 Gaussian 16, Revision B.01,
 Gaussian 16:  ES64L-G16RevB.01 20-Dec-2017

 ------------------------------------------
 # nmr=giao b3lyp/genecp pop=nbo scfcyc=200
 ------------------------------------------

 ----------
 cyPAMP_SPE
 ----------
 Symbolic Z-matrix:
 Charge =  1 Multiplicity = 1

                         Standard orientation:
 ---------------------------------------------------------------------
 Center     Atomic      Atomic             Coordinates (Angstroms)
 Number     Number       Type             X           Y           Z
 ---------------------------------------------------------------------
      1         15           0       -1.289379    0.284930    0.744399
      2         15           0        1.509951    0.181839    0.415279
      3          8           0       -3.764319    0.666341   -0.722641
      4          6           0       -2.072629    1.902241    0.337019
      5          6           0       -3.277519    1.894411   -0.395591
      6          6           0       -3.903308    3.092731   -0.733021
      7          1           0       -4.830138    3.091622   -1.288091
      8          6           0       -3.330188    4.303881   -0.357841
      9          1           0       -3.824007    5.228701   -0.627991
     10          6           0       -2.142428    4.330251    0.358819
     11          1           0       -1.701127    5.271711    0.657789
     12          6           0       -1.524568    3.131670    0.701679
     13          1           0       -0.608008    3.169760    1.273089
     14          6           0       -5.060209    0.564362   -1.319421
     15          1           0       -5.253169   -0.499818   -1.424371
     16          1           0       -5.081039    1.036792   -2.304371
     17          1           0       -5.821999    1.011132   -0.677121
     18          6           0       -2.419949   -0.523969    1.958059
     19          6           0       -2.315920   -1.903159    2.155689
     20          1           0       -1.620480   -2.482029    1.559559
     21          6           0       -3.100710   -2.535629    3.114259
     22          1           0       -3.013801   -3.604949    3.261499
     23          6           0       -4.000230   -1.796889    3.875909
     24          1           0       -4.614790   -2.289398    4.618879
     25          6           0       -4.109039   -0.423279    3.680969
     26          1           0       -4.807159    0.155302    4.273029
     27          6           0       -3.322289    0.213951    2.727619
     28          1           0       -3.415619    1.283061    2.585879
     29          6           0        0.264091    0.653310    1.728939
     30          1           0        0.364611    1.636640    2.186109
     31          1           0        0.296421   -0.090150    2.526019
     32         45           0       -0.101860   -0.994970   -0.876671
     33          6           0       -1.780830   -2.381789   -1.578541
     34          6           0       -1.675590   -1.313749   -2.443891
     35          6           0        1.167230   -1.929791   -2.517091
     36          6           0        1.096400   -2.793130   -1.440261
     37          1           0       -2.519640   -2.297739   -0.789921
     38          6           0       -1.244571   -3.777420   -1.834401
     39          1           0       -2.345889   -0.479759   -2.268701
     40          6           0       -0.966730   -1.291780   -3.775171
     41          6           0        0.372400   -2.059750   -3.802681
     42          1           0        2.039950   -1.289401   -2.573321
     43          1           0        1.931990   -2.790811   -0.748371
     44          6           0        0.188419   -3.991050   -1.301211
     45          1           0       -1.289191   -3.998870   -2.900691
     46          1           0       -1.904591   -4.499949   -1.351261
     47          1           0       -1.633500   -1.680329   -4.555401
     48          1           0       -0.783549   -0.246790   -4.034911
     49          1           0        0.975820   -1.673780   -4.625911
     50          1           0        0.202810   -3.113260   -4.025331
     51          1           0        0.645419   -4.856760   -1.797371
     52          1           0        0.140819   -4.248660   -0.240771
     53          6           0        2.039781    1.825789   -0.334091
     54          6           0        2.865362    2.744579    0.583009
     55          6           0        2.706501    1.679059   -1.714741
     56          1           0        1.067482    2.305200   -0.502681
     57          6           0        3.079702    4.118059   -0.070891
     58          1           0        3.841722    2.290528    0.772489
     59          1           0        2.382182    2.867539    1.555909
     60          6           0        2.937562    3.053329   -2.359901
     61          1           0        3.666531    1.164329   -1.613691
     62          1           0        2.081181    1.065319   -2.365911
     63          6           0        3.736972    3.987789   -1.447641
     64          1           0        3.690232    4.742089    0.586239
     65          1           0        2.113602    4.625019   -0.173841
     66          1           0        3.450522    2.924619   -3.316091
     67          1           0        1.967162    3.509249   -2.586511
     68          1           0        3.837033    4.971598   -1.911651
     69          1           0        4.753852    3.597158   -1.327401
     70          6           0        2.911110   -0.704091    1.308829
     71          6           0        4.122060   -0.978802    0.397449
     72          6           0        3.361391   -0.092571    2.648269
     73          1           0        2.440990   -1.670261    1.532749
     74          6           0        5.137240   -1.892912    1.098919
     75          1           0        4.610991   -0.033022    0.146389
     76          1           0        3.806930   -1.428511   -0.547641
     77          6           0        4.374420   -1.013312    3.346179
     78          1           0        3.823541    0.881998    2.477329
     79          1           0        2.506241    0.075059    3.306799
     80          6           0        5.577170   -1.318182    2.448469
     81          1           0        6.002170   -2.043132    0.448499
     82          1           0        4.687190   -2.880392    1.251429
     83          1           0        4.703521   -0.549092    4.278879
     84          1           0        3.878470   -1.950302    3.623589
     85          1           0        6.254050   -2.013512    2.949869
     86          1           0        6.147291   -0.397312    2.281279
 ---------------------------------------------------------------------

 SCF Done:  E(RB3LYP) =  -2193.43656662     A.U. after   16 cycles

      1  P    Isotropic =   328.7149   Anisotropy =    95.7799

      2  P    Isotropic =   304.6265   Anisotropy =    81.2436

      3  O    Isotropic =   208.7098   Anisotropy =   102.0746

      4  C    Isotropic =    62.0495   Anisotropy =   138.3146

      5  C    Isotropic =    14.9442   Anisotropy =   140.0027

      6  C    Isotropic =    68.8173   Anisotropy =   161.6182

      7  H    Isotropic =    24.9057   Anisotropy =     8.0629

      8  C    Isotropic =    44.0407   Anisotropy =   194.6354

      9  H    Isotropic =    23.9957   Anisotropy =     3.8744

     10  C    Isotropic =    57.6957   Anisotropy =   177.0412

     11  H    Isotropic =    24.4450   Anisotropy =     6.1623

     12  C    Isotropic =    48.1959   Anisotropy =   184.9994

     13  H    Isotropic =    24.4233   Anisotropy =     9.9152

     14  C    Isotropic =   128.4642   Anisotropy =    78.7746

     15  H    Isotropic =    28.3545   Anisotropy =     8.6396

     16  H    Isotropic =    28.2751   Anisotropy =    10.0359

     17  H    Isotropic =    28.6320   Anisotropy =    10.4680

     18  C    Isotropic =    41.3433   Anisotropy =   178.8853

     19  C    Isotropic =    46.8265   Anisotropy =   177.4600

     20  H    Isotropic =    23.3797   Anisotropy =     9.7251

     21  C    Isotropic =    49.1254   Anisotropy =   187.2475

     22  H    Isotropic =    24.0463   Anisotropy =     7.1367

     23  C    Isotropic =    46.0533   Anisotropy =   195.4619

     24  H    Isotropic =    24.0939   Anisotropy =     3.8495

     25  C    Isotropic =    48.9124   Anisotropy =   188.6195

     26  H    Isotropic =    24.4087   Anisotropy =     6.6885

     27  C    Isotropic =    49.4095   Anisotropy =   186.8754

     28  H    Isotropic =    25.0215   Anisotropy =    13.0749

     29  C    Isotropic =   140.6896   Anisotropy =    53.5866

     30  H    Isotropic =    28.3675   Anisotropy =     7.0916

     31  H    Isotropic =    29.1887   Anisotropy =     4.9337

     32  Rh   Isotropic =  -329.3512   Anisotropy =   389.5310

     33  C    Isotropic =    79.1754   Anisotropy =   122.8004

     34  C    Isotropic =    75.1315   Anisotropy =   122.0911

     35  C    Isotropic =    84.6344   Anisotropy =   114.5147

     36  C    Isotropic =    76.6782   Anisotropy =   115.3430

     37  H    Isotropic =    26.9481   Anisotropy =     4.4000

     38  C    Isotropic =   154.2751   Anisotropy =    24.3335

     39  H    Isotropic =    25.9936   Anisotropy =     7.6792

     40  C    Isotropic =   147.9933   Anisotropy =    29.1201

     41  C    Isotropic =   154.0553   Anisotropy =    24.3993

     42  H    Isotropic =    27.1004   Anisotropy =     5.4396

     43  H    Isotropic =    26.1770   Anisotropy =     4.8998

     44  C    Isotropic =   146.4414   Anisotropy =    31.0412

     45  H    Isotropic =    29.7653   Anisotropy =     9.5200

     46  H    Isotropic =    29.7694   Anisotropy =    11.2737

     47  H    Isotropic =    29.2245   Anisotropy =    12.4788

     48  H    Isotropic =    29.2888   Anisotropy =     6.9041

     49  H    Isotropic =    29.9075   Anisotropy =    11.1520

     50  H    Isotropic =    29.8048   Anisotropy =     9.6678

     51  H    Isotropic =    28.9515   Anisotropy =    12.4950

     52  H    Isotropic =    28.8506   Anisotropy =     7.4840

     53  C    Isotropic =   134.1467   Anisotropy =    31.2142

     54  C    Isotropic =   151.9369   Anisotropy =    14.7778

     55  C    Isotropic =   148.7876   Anisotropy =    15.9117

     56  H    Isotropic =    30.0326   Anisotropy =     7.0764

     57  C    Isotropic =   153.2721   Anisotropy =     7.6202

     58  H    Isotropic =    30.3373   Anisotropy =     7.4829

     59  H    Isotropic =    29.9524   Anisotropy =     3.4324

     60  C    Isotropic =   153.2976   Anisotropy =     8.3012

     61  H    Isotropic =    30.3463   Anisotropy =     5.2078

     62  H    Isotropic =    29.7402   Anisotropy =     9.4394

     63  C    Isotropic =   155.6661   Anisotropy =     2.2687

     64  H    Isotropic =    29.9194   Anisotropy =    10.6930

     65  H    Isotropic =    30.6494   Anisotropy =     7.9008

     66  H    Isotropic =    30.0726   Anisotropy =    10.2238

     67  H    Isotropic =    30.7165   Anisotropy =     6.6079

     68  H    Isotropic =    30.1318   Anisotropy =    11.6125

     69  H    Isotropic =    30.5441   Anisotropy =     9.0173

     70  C    Isotropic =   132.6587   Anisotropy =    32.9637

     71  C    Isotropic =   151.2132   Anisotropy =    12.3423

     72  C    Isotropic =   152.3469   Anisotropy =    14.8025

     73  H    Isotropic =    29.9811   Anisotropy =     6.0882

     74  C    Isotropic =   153.4642   Anisotropy =     8.1753

     75  H    Isotropic =    30.3685   Anisotropy =     6.4765

     76  H    Isotropic =    30.4612   Anisotropy =     6.8581

     77  C    Isotropic =   153.2499   Anisotropy =     8.6045

     78  H    Isotropic =    30.4226   Anisotropy =     6.5800

     79  H    Isotropic =    30.3004   Anisotropy =     6.2017

     80  C    Isotropic =   155.7398   Anisotropy =     1.9869

     81  H    Isotropic =    30.0204   Anisotropy =    10.2310

     82  H    Isotropic =    30.5971   Anisotropy =     7.6303

     83  H    Isotropic =    30.0637   Anisotropy =    10.6910

     84  H    Isotropic =    30.7046   Anisotropy =     7.9916

     85  H    Isotropic =    30.1200   Anisotropy =    11.7442

     86  H    Isotropic =    30.5653   Anisotropy =     8.8297

 The electronic state is 1-A.
 Alpha  occ. eigenvalues --  -77.23575 -77.22295 -19.26551 -10.34616 -10.32207
 Alpha  occ. eigenvalues --  -10.29756 -10.29500 -10.29269 -10.29152 -10.29008
 Alpha  occ. eigenvalues --  -10.28937 -10.28698 -10.28341 -10.28277 -10.28200
 Alpha  occ. eigenvalues --  -10.27910 -10.27789 -10.27653 -10.27640 -10.27312
 Alpha  occ. eigenvalues --  -10.27148 -10.27075 -10.27066 -10.27062 -10.27018
 Alpha  occ. eigenvalues --  -10.26977 -10.26959 -10.26915 -10.26830 -10.26621
 Alpha  occ. eigenvalues --  -10.26506 -10.25392 -10.25390 -10.25267 -10.25224
 Alpha  occ. eigenvalues --  -10.24753 -10.24750  -6.69486  -6.68336  -4.85785
 Alpha  occ. eigenvalues --   -4.85713  -4.85375  -4.84632  -4.84522  -4.84239
 Alpha  occ. eigenvalues --   -3.31086  -2.07947  -2.07285  -2.04588  -1.17594
 Alpha  occ. eigenvalues --   -0.96571  -0.95800  -0.94080  -0.93795  -0.92758
 Alpha  occ. eigenvalues --   -0.89022  -0.88705  -0.87648  -0.86664  -0.85787
 Alpha  occ. eigenvalues --   -0.85171  -0.84703  -0.84009  -0.83726  -0.83554
 Alpha  occ. eigenvalues --   -0.83016  -0.80070  -0.79930  -0.77414  -0.75231
 Alpha  occ. eigenvalues --   -0.73122  -0.71026  -0.70722  -0.70498  -0.70413
 Alpha  occ. eigenvalues --   -0.70236  -0.70177  -0.69815  -0.66886  -0.65856
 Alpha  occ. eigenvalues --   -0.65476  -0.64730  -0.64642  -0.63791  -0.62114
 Alpha  occ. eigenvalues --   -0.61226  -0.59940  -0.59155  -0.58441  -0.58023
 Alpha  occ. eigenvalues --   -0.57500  -0.56826  -0.56283  -0.55960  -0.55749
 Alpha  occ. eigenvalues --   -0.55390  -0.55371  -0.54674  -0.54080  -0.53853
 Alpha  occ. eigenvalues --   -0.53384  -0.53312  -0.53258  -0.52810  -0.52345
 Alpha  occ. eigenvalues --   -0.52301  -0.52188  -0.52143  -0.52035  -0.50966
 Alpha  occ. eigenvalues --   -0.50285  -0.49075  -0.48886  -0.48024  -0.47917
 Alpha  occ. eigenvalues --   -0.47758  -0.47698  -0.47479  -0.47251  -0.47044
 Alpha  occ. eigenvalues --   -0.46621  -0.46436  -0.46098  -0.45641  -0.45474
 Alpha  occ. eigenvalues --   -0.45253  -0.44552  -0.44436  -0.43745  -0.43643
 Alpha  occ. eigenvalues --   -0.43465  -0.43320  -0.42987  -0.42761  -0.42490
 Alpha  occ. eigenvalues --   -0.42000  -0.41776  -0.41395  -0.40749  -0.39869
 Alpha  occ. eigenvalues --   -0.39682  -0.39464  -0.38604  -0.37591  -0.36233
 Alpha  occ. eigenvalues --   -0.35773  -0.35488  -0.35179  -0.34363  -0.33984
 Alpha  occ. eigenvalues --   -0.33529  -0.32759  -0.30367
 Alpha virt. eigenvalues --   -0.15834  -0.14177  -0.12783  -0.11588  -0.11176
 Alpha virt. eigenvalues --   -0.10373  -0.08888  -0.08012  -0.07423  -0.06938
 Alpha virt. eigenvalues --   -0.06630  -0.05672  -0.05357  -0.05054  -0.04763

 Mulliken charges:
               1
     1  P    0.442579
     2  P    0.469467
     3  O   -0.249754
     4  C   -0.201541
     5  C    0.113314
     6  C   -0.098526
     7  H    0.151647
     8  C   -0.117541
     9  H    0.134774
    10  C   -0.092035
    11  H    0.128993
    12  C   -0.074774
    13  H    0.118830
    14  C   -0.230911
    15  H    0.156640
    16  H    0.145211
    17  H    0.151108
    18  C   -0.250844
    19  C   -0.060118
    20  H    0.184605
    21  C   -0.105937
    22  H    0.128400
    23  C   -0.089533
    24  H    0.137209
    25  C   -0.098897
    26  H    0.133005
    27  C   -0.055511
    28  H    0.157329
    29  C   -0.611968
    30  H    0.207068
    31  H    0.235693
    32  Rh  -0.570399
    33  C   -0.098485
    34  C   -0.047174
    35  C   -0.045489
    36  C   -0.111620
    37  H    0.208798
    38  C   -0.358527
    39  H    0.206179
    40  C   -0.213658
    41  C   -0.355093
    42  H    0.187698
    43  H    0.188135
    44  C   -0.213058
    45  H    0.167814
    46  H    0.166098
    47  H    0.165776
    48  H    0.130031
    49  H    0.166929
    50  H    0.165657
    51  H    0.170322
    52  H    0.125693
    53  C   -0.163225
    54  C   -0.239174
    55  C   -0.289862
    56  H    0.141041
    57  C   -0.256516
    58  H    0.124802
    59  H    0.136244
    60  C   -0.241851
    61  H    0.140315
    62  H    0.134069
    63  C   -0.230518
    64  H    0.147581
    65  H    0.119117
    66  H    0.144587
    67  H    0.121252
    68  H    0.146969
    69  H    0.116882
    70  C   -0.215716
    71  C   -0.294684
    72  C   -0.237822
    73  H    0.158851
    74  C   -0.249872
    75  H    0.137868
    76  H    0.149995
    77  C   -0.237862
    78  H    0.143667
    79  H    0.132504
    80  C   -0.231325
    81  H    0.147378
    82  H    0.119468
    83  H    0.146950
    84  H    0.119401
    85  H    0.149365
    86  H    0.116515
 Sum of Mulliken charges =   1.00000

 Dipole moment (field-independent basis, Debye):
    X=             -1.6146    Y=              0.1595    Z=             -0.1284  Tot=              1.6275
 Quadrupole moment (field-independent basis, Debye-Ang):
   XX=           -195.4573   YY=           -217.1177   ZZ=           -228.9895
   XY=             -2.9064   XZ=              3.3257   YZ=              0.2673

 Summary of Natural Population Analysis:

                                       Natural Population
                Natural  -----------------------------------------------
    Atom  No    Charge         Core      Valence    Rydberg      Total
 -----------------------------------------------------------------------
      P    1    1.11519      9.99660     3.83647    0.05175    13.88481
      P    2    1.12506      9.99675     3.83067    0.04751    13.87494
      O    3   -0.46603      1.99976     6.45057    0.01570     8.46603
      C    4   -0.37919      1.99890     4.35576    0.02452     6.37919
      C    5    0.29803      1.99869     3.68061    0.02267     5.70197
      C    6   -0.28105      1.99908     4.26817    0.01380     6.28105
      H    7    0.22619      0.00000     0.77195    0.00186     0.77381
      C    8   -0.15669      1.99922     4.14237    0.01510     6.15669
      H    9    0.22337      0.00000     0.77549    0.00113     0.77663
      C   10   -0.22594      1.99919     4.21135    0.01540     6.22594
      H   11    0.22304      0.00000     0.77575    0.00121     0.77696
      C   12   -0.17967      1.99911     4.16476    0.01580     6.17967
      H   13    0.20635      0.00000     0.79123    0.00242     0.79365
      C   14   -0.25692      1.99927     4.24469    0.01296     6.25692
      H   15    0.20539      0.00000     0.79334    0.00128     0.79461
      H   16    0.17957      0.00000     0.81845    0.00198     0.82043
      H   17    0.18617      0.00000     0.81192    0.00191     0.81383
      C   18   -0.32717      1.99898     4.30388    0.02431     6.32717
      C   19   -0.19841      1.99909     4.18391    0.01541     6.19841
      H   20    0.21845      0.00000     0.77955    0.00200     0.78155
      C   21   -0.19518      1.99920     4.18134    0.01464     6.19518
      H   22    0.21953      0.00000     0.77923    0.00124     0.78047
      C   23   -0.18118      1.99921     4.16733    0.01465     6.18118
      H   24    0.22187      0.00000     0.77695    0.00119     0.77813
      C   25   -0.19060      1.99920     4.17685    0.01455     6.19060
      H   26    0.22140      0.00000     0.77737    0.00123     0.77860
      C   27   -0.19129      1.99909     4.17613    0.01607     6.19129
      H   28    0.22018      0.00000     0.77794    0.00188     0.77982
      C   29   -0.98813      1.99942     4.97138    0.01734     6.98813
      H   30    0.24601      0.00000     0.75165    0.00234     0.75399
      H   31    0.26642      0.00000     0.73205    0.00153     0.73358
     Rh   32   -0.37258     35.98560     9.35807    0.02891    45.37258
      C   33   -0.17876      1.99906     4.16045    0.01925     6.17876
      C   34   -0.16642      1.99907     4.14770    0.01964     6.16642
      C   35   -0.19072      1.99907     4.17215    0.01951     6.19072
      C   36   -0.15116      1.99907     4.13214    0.01995     6.15116
      H   37    0.22926      0.00000     0.76851    0.00223     0.77074
      C   38   -0.42450      1.99936     4.41324    0.01190     6.42450
      H   39    0.23929      0.00000     0.75831    0.00240     0.76071
      C   40   -0.41819      1.99935     4.40639    0.01245     6.41819
      C   41   -0.42203      1.99936     4.41081    0.01186     6.42203
      H   42    0.22384      0.00000     0.77405    0.00211     0.77616
      H   43    0.22010      0.00000     0.77763    0.00227     0.77990
      C   44   -0.41728      1.99935     4.40524    0.01269     6.41728
      H   45    0.21413      0.00000     0.78388    0.00200     0.78587
      H   46    0.22638      0.00000     0.77212    0.00149     0.77362
      H   47    0.23139      0.00000     0.76670    0.00192     0.76861
      H   48    0.21568      0.00000     0.78275    0.00156     0.78432
      H   49    0.22700      0.00000     0.77150    0.00150     0.77300
      H   50    0.21360      0.00000     0.78438    0.00202     0.78640
      H   51    0.23215      0.00000     0.76592    0.00194     0.76785
      H   52    0.21295      0.00000     0.78545    0.00160     0.78705
      C   53   -0.47383      1.99935     4.45581    0.01868     6.47383
      C   54   -0.39465      1.99938     4.38384    0.01143     6.39465
      C   55   -0.38936      1.99937     4.37951    0.01048     6.38936
      H   56    0.22499      0.00000     0.77128    0.00373     0.77501
      C   57   -0.38289      1.99942     4.37368    0.00979     6.38289
      H   58    0.19571      0.00000     0.80188    0.00241     0.80429
      H   59    0.20037      0.00000     0.79755    0.00208     0.79963
      C   60   -0.38377      1.99942     4.37460    0.00976     6.38377
      H   61    0.19502      0.00000     0.80276    0.00221     0.80498
      H   62    0.21166      0.00000     0.78655    0.00178     0.78834
      C   63   -0.38931      1.99942     4.38040    0.00948     6.38931
      H   64    0.21507      0.00000     0.78356    0.00137     0.78493
      H   65    0.19139      0.00000     0.80673    0.00189     0.80861
      H   66    0.21410      0.00000     0.78453    0.00137     0.78590
      H   67    0.19330      0.00000     0.80488    0.00182     0.80670
      H   68    0.21531      0.00000     0.78333    0.00135     0.78469
      H   69    0.19328      0.00000     0.80491    0.00181     0.80672
      C   70   -0.47279      1.99935     4.45658    0.01686     6.47279
      C   71   -0.39176      1.99937     4.38232    0.01007     6.39176
      C   72   -0.39240      1.99937     4.38270    0.01033     6.39240
      H   73    0.22012      0.00000     0.77713    0.00275     0.77988
      C   74   -0.38315      1.99942     4.37399    0.00974     6.38315
      H   75    0.19591      0.00000     0.80159    0.00250     0.80409
      H   76    0.20425      0.00000     0.79365    0.00210     0.79575
      C   77   -0.38241      1.99942     4.37331    0.00968     6.38241
      H   78    0.19858      0.00000     0.79909    0.00233     0.80142
      H   79    0.20242      0.00000     0.79555    0.00202     0.79758
      C   80   -0.38974      1.99942     4.38079    0.00952     6.38974
      H   81    0.21540      0.00000     0.78320    0.00139     0.78460
      H   82    0.19220      0.00000     0.80591    0.00188     0.80780
      H   83    0.21590      0.00000     0.78272    0.00138     0.78410
      H   84    0.19257      0.00000     0.80556    0.00187     0.80743
      H   85    0.21618      0.00000     0.78248    0.00135     0.78382
      H   86    0.19340      0.00000     0.80480    0.00180     0.80660
 =======================================================================
   * Total *    1.00000    125.95274   207.31365    0.73360   334.00000

 Normal termination of Gaussian 16 at Thu Jan 30 11:00:11 2025.
