 Gaussian 16, Revision B.01,
 Gaussian 16:  ES64L-G16RevB.01 20-Dec-2017

 ------------------------------------------
 # nmr=giao b3lyp/genecp pop=nbo scfcyc=200
 ------------------------------------------

 ----------
 dcPAMP_SPE
 ----------
 Symbolic Z-matrix:
 Charge =  1 Multiplicity = 1

                         Standard orientation:
 ---------------------------------------------------------------------
 Center     Atomic      Atomic             Coordinates (Angstroms)
 Number     Number       Type             X           Y           Z
 ---------------------------------------------------------------------
      1         15           0        0.966330   -0.648321    0.030080
      2         15           0       -1.832071   -1.174148   -0.172030
      3          8           0        3.258202    1.081126   -0.371820
      4          6           0        2.277279   -0.861853   -1.253130
      5          6           0        3.322521    0.083716   -1.295720
      6          6           0        4.343450   -0.036715   -2.236380
      7          1           0        5.148681    0.682694   -2.268470
      8          6           0        4.327959   -1.089245   -3.145930
      9          1           0        5.124769   -1.171046   -3.874260
     10          6           0        3.306958   -2.028044   -3.119490
     11          1           0        3.297757   -2.851404   -3.821180
     12          6           0        2.292698   -1.907893   -2.174900
     13          1           0        1.516537   -2.659812   -2.160530
     14          6           0        4.348693    1.999135   -0.259240
     15          1           0        4.099194    2.653925    0.571220
     16          1           0        4.461033    2.593445   -1.169110
     17          1           0        5.280712    1.473764   -0.040650
     18          6           0        1.847369   -0.925312    1.630010
     19          6           0        1.486450   -0.189232    2.759190
     20          1           0        0.715031    0.566549    2.681970
     21          6           0        2.111930   -0.424982    3.980110
     22          1           0        1.826911    0.151488    4.851430
     23          6           0        3.103339   -1.394644    4.079200
     24          1           0        3.592309   -1.576214    5.028020
     25          6           0        3.468648   -2.130894    2.955080
     26          1           0        4.242207   -2.885175    3.027830
     27          6           0        2.845558   -1.898783    1.734560
     28          1           0        3.146858   -2.470224    0.865220
     29          6           0       -0.200852   -2.109910   -0.109530
     30          1           0       -0.045533   -2.734980   -0.984580
     31          1           0       -0.115333   -2.745240    0.769380
     32          6           0       -2.848572   -1.886427    1.299450
     33          6           0       -2.146371   -1.387707    2.576460
     34          1           0       -2.704992   -1.743857    3.445830
     35          1           0       -2.107160   -0.299258    2.624670
     36          1           0       -1.127842   -1.766139    2.670940
     37          6           0       -2.888704   -3.422427    1.327490
     38          1           0       -3.385254   -3.741226    2.248070
     39          1           0       -1.894634   -3.871318    1.330850
     40          1           0       -3.449834   -3.842926    0.496200
     41          6           0       -4.285331   -1.339205    1.275750
     42          1           0       -4.768371   -1.573434    2.227750
     43          1           0       -4.886702   -1.795234    0.490910
     44          1           0       -4.322950   -0.256015    1.149740
     45          6           0       -2.560661   -1.607607   -1.902350
     46          6           0       -2.780073   -3.113907   -2.106400
     47          1           0       -3.007763   -3.296836   -3.160120
     48          1           0       -3.621864   -3.489556   -1.527150
     49          1           0       -1.900874   -3.711218   -1.858930
     50          6           0       -3.886381   -0.864495   -2.133660
     51          1           0       -4.223601   -1.062585   -3.154370
     52          1           0       -3.773669    0.214564   -2.035730
     53          1           0       -4.678331   -1.190575   -1.463220
     54          6           0       -1.540231   -1.095398   -2.937080
     55          1           0       -1.958681   -1.229188   -3.937880
     56          1           0       -0.597551   -1.641409   -2.908910
     57          1           0       -1.322220   -0.034428   -2.801150
     58         45           0       -0.752018    0.990291   -0.025550
     59          6           0        0.464044    2.814749    0.556170
     60          6           0        0.417124    2.714790   -0.821590
     61          6           0       -2.454467    2.458453   -0.480760
     62          6           0       -2.369277    2.266053    0.881550
     63          1           0        1.337393    2.392668    1.038920
     64          6           0       -0.357525    3.772840    1.398540
     65          1           0        1.266833    2.243749   -1.302090
     66          6           0       -0.488685    3.478431   -1.754890
     67          6           0       -1.930095    3.663382   -1.236870
     68          1           0       -3.181057    1.857344   -1.012320
     69          1           0       -3.054278    1.549734    1.321170
     70          6           0       -1.695316    3.173162    1.881070
     71          1           0       -0.533744    4.693921    0.843000
     72          1           0        0.228255    4.059510    2.273580
     73          1           0       -0.045724    4.456810   -1.980450
     74          1           0       -0.516176    2.939801   -2.704670
     75          1           0       -2.584685    3.850673   -2.089660
     76          1           0       -1.998374    4.550582   -0.607470
     77          1           0       -2.383805    3.977913    2.168210
     78          1           0       -1.521027    2.594912    2.791230
 ---------------------------------------------------------------------

 SCF Done:  E(RB3LYP) =  -2038.53388621     A.U. after   16 cycles

      1  P    Isotropic =   329.4794   Anisotropy =    92.1794

      2  P    Isotropic =   284.1927   Anisotropy =   142.2856

      3  O    Isotropic =   211.8564   Anisotropy =    97.2019

      4  C    Isotropic =    60.8492   Anisotropy =   138.6960

      5  C    Isotropic =    15.5785   Anisotropy =   140.0216

      6  C    Isotropic =    68.4447   Anisotropy =   161.6160

      7  H    Isotropic =    25.0444   Anisotropy =     8.4869

      8  C    Isotropic =    44.0070   Anisotropy =   194.1139

      9  H    Isotropic =    24.0709   Anisotropy =     3.9106

     10  C    Isotropic =    57.9772   Anisotropy =   176.1026

     11  H    Isotropic =    24.4631   Anisotropy =     5.9319

     12  C    Isotropic =    48.7483   Anisotropy =   184.3418

     13  H    Isotropic =    24.2652   Anisotropy =    11.1087

     14  C    Isotropic =   128.6271   Anisotropy =    78.6867

     15  H    Isotropic =    28.4381   Anisotropy =     8.5477

     16  H    Isotropic =    28.4295   Anisotropy =    10.0858

     17  H    Isotropic =    28.8310   Anisotropy =    10.4444

     18  C    Isotropic =    40.1996   Anisotropy =   179.0299

     19  C    Isotropic =    43.6845   Anisotropy =   178.8409

     20  H    Isotropic =    23.1050   Anisotropy =     8.3929

     21  C    Isotropic =    50.1948   Anisotropy =   185.5848

     22  H    Isotropic =    24.0971   Anisotropy =     7.1135

     23  C    Isotropic =    45.9675   Anisotropy =   196.4368

     24  H    Isotropic =    24.0719   Anisotropy =     3.8055

     25  C    Isotropic =    48.0385   Anisotropy =   189.8306

     26  H    Isotropic =    24.3246   Anisotropy =     6.4388

     27  C    Isotropic =    49.0804   Anisotropy =   186.1430

     28  H    Isotropic =    24.8771   Anisotropy =    12.3695

     29  C    Isotropic =   142.1196   Anisotropy =    51.1031

     30  H    Isotropic =    28.0717   Anisotropy =     6.0318

     31  H    Isotropic =    29.0828   Anisotropy =     4.9203

     32  C    Isotropic =   136.0485   Anisotropy =    32.3005

     33  C    Isotropic =   151.3801   Anisotropy =    41.6166

     34  H    Isotropic =    31.0457   Anisotropy =     9.6724

     35  H    Isotropic =    30.1516   Anisotropy =     6.8683

     36  H    Isotropic =    30.9248   Anisotropy =     8.7754

     37  C    Isotropic =   158.1225   Anisotropy =    38.9588

     38  H    Isotropic =    30.9759   Anisotropy =    11.0057

     39  H    Isotropic =    30.9635   Anisotropy =     6.1116

     40  H    Isotropic =    30.6324   Anisotropy =     8.6249

     41  C    Isotropic =   155.5013   Anisotropy =    36.1894

     42  H    Isotropic =    30.6961   Anisotropy =    10.5635

     43  H    Isotropic =    30.5074   Anisotropy =     8.1256

     44  H    Isotropic =    30.7898   Anisotropy =     5.0633

     45  C    Isotropic =   133.7452   Anisotropy =    35.0968

     46  C    Isotropic =   157.2405   Anisotropy =    36.0990

     47  H    Isotropic =    30.7298   Anisotropy =    11.0007

     48  H    Isotropic =    30.5318   Anisotropy =     8.4676

     49  H    Isotropic =    30.5839   Anisotropy =     6.5253

     50  C    Isotropic =   155.4248   Anisotropy =    39.1494

     51  H    Isotropic =    30.7203   Anisotropy =    10.5298

     52  H    Isotropic =    30.5896   Anisotropy =     6.2771

     53  H    Isotropic =    30.3877   Anisotropy =     7.5275

     54  C    Isotropic =   151.4278   Anisotropy =    41.5841

     55  H    Isotropic =    30.8808   Anisotropy =     9.5650

     56  H    Isotropic =    30.4832   Anisotropy =     8.3018

     57  H    Isotropic =    29.5432   Anisotropy =     7.1054

     58  Rh   Isotropic =  -346.8794   Anisotropy =   397.2070

     59  C    Isotropic =    82.9985   Anisotropy =   118.1058

     60  C    Isotropic =    77.4349   Anisotropy =   118.0028

     61  C    Isotropic =    80.0309   Anisotropy =   120.8810

     62  C    Isotropic =    75.9567   Anisotropy =   117.1169

     63  H    Isotropic =    26.9380   Anisotropy =     4.7162

     64  C    Isotropic =   154.4515   Anisotropy =    23.9423

     65  H    Isotropic =    26.4602   Anisotropy =     6.7323

     66  C    Isotropic =   147.3571   Anisotropy =    29.6839

     67  C    Isotropic =   154.2380   Anisotropy =    24.6481

     68  H    Isotropic =    26.7967   Anisotropy =     5.8131

     69  H    Isotropic =    25.9367   Anisotropy =     3.7264

     70  C    Isotropic =   146.9372   Anisotropy =    29.4020

     71  H    Isotropic =    29.7697   Anisotropy =     9.6544

     72  H    Isotropic =    29.7142   Anisotropy =    11.0547

     73  H    Isotropic =    29.2033   Anisotropy =    12.4214

     74  H    Isotropic =    29.1904   Anisotropy =     6.6699

     75  H    Isotropic =    29.8509   Anisotropy =    11.4421

     76  H    Isotropic =    29.7834   Anisotropy =     9.6713

     77  H    Isotropic =    28.9543   Anisotropy =    12.7295

     78  H    Isotropic =    28.8077   Anisotropy =     7.1362

 The electronic state is 1-A.
 Alpha  occ. eigenvalues --  -77.23735 -77.22476 -19.26560 -10.34619 -10.32244
 Alpha  occ. eigenvalues --  -10.31067 -10.31026 -10.29881 -10.29537 -10.29154
 Alpha  occ. eigenvalues --  -10.29124 -10.28730 -10.28713 -10.28599 -10.28373
 Alpha  occ. eigenvalues --  -10.27904 -10.27868 -10.27865 -10.27626 -10.27552
 Alpha  occ. eigenvalues --  -10.27322 -10.27301 -10.27273 -10.27227 -10.27189
 Alpha  occ. eigenvalues --  -10.27177 -10.27027 -10.26674 -10.26608 -10.26574
 Alpha  occ. eigenvalues --  -10.26512 -10.26488 -10.26397  -6.69641  -6.68461
 Alpha  occ. eigenvalues --   -4.85940  -4.85864  -4.85538  -4.84761  -4.84641
 Alpha  occ. eigenvalues --   -4.84362  -3.31278  -2.08135  -2.07490  -2.04763
 Alpha  occ. eigenvalues --   -1.17620  -0.96599  -0.95939  -0.94345  -0.93433
 Alpha  occ. eigenvalues --   -0.91548  -0.88984  -0.88691  -0.87924  -0.86192
 Alpha  occ. eigenvalues --   -0.85335  -0.84897  -0.84269  -0.80258  -0.80131
 Alpha  occ. eigenvalues --   -0.79770  -0.79557  -0.79092  -0.78975  -0.77678
 Alpha  occ. eigenvalues --   -0.75356  -0.72566  -0.70933  -0.70533  -0.70428
 Alpha  occ. eigenvalues --   -0.69799  -0.66980  -0.66022  -0.65725  -0.63952
 Alpha  occ. eigenvalues --   -0.62632  -0.62341  -0.61348  -0.60168  -0.59263
 Alpha  occ. eigenvalues --   -0.58653  -0.57995  -0.57620  -0.56610  -0.56533
 Alpha  occ. eigenvalues --   -0.56250  -0.55713  -0.55435  -0.55213  -0.55047
 Alpha  occ. eigenvalues --   -0.54874  -0.54375  -0.53683  -0.53585  -0.52982
 Alpha  occ. eigenvalues --   -0.52611  -0.52436  -0.52366  -0.52224  -0.50989
 Alpha  occ. eigenvalues --   -0.50589  -0.50197  -0.49560  -0.48953  -0.48857
 Alpha  occ. eigenvalues --   -0.48555  -0.48227  -0.47968  -0.47833  -0.47503
 Alpha  occ. eigenvalues --   -0.47137  -0.46582  -0.46563  -0.46158  -0.45891
 Alpha  occ. eigenvalues --   -0.45421  -0.45159  -0.44813  -0.44637  -0.44405
 Alpha  occ. eigenvalues --   -0.43945  -0.43554  -0.43213  -0.42872  -0.42644
 Alpha  occ. eigenvalues --   -0.42582  -0.41908  -0.40399  -0.40261  -0.37776
 Alpha  occ. eigenvalues --   -0.36279  -0.36063  -0.35702  -0.35361  -0.34621
 Alpha  occ. eigenvalues --   -0.34233  -0.33594  -0.32987  -0.30529
 Alpha virt. eigenvalues --   -0.16003  -0.14504  -0.13010  -0.11846  -0.11180
 Alpha virt. eigenvalues --   -0.10405  -0.09144  -0.08119  -0.07451  -0.07161
 Alpha virt. eigenvalues --   -0.06695  -0.06292  -0.05829  -0.05307  -0.04559

 Mulliken charges:
               1
     1  P    0.484583
     2  P    0.399135
     3  O   -0.248132
     4  C   -0.214438
     5  C    0.108581
     6  C   -0.091282
     7  H    0.151884
     8  C   -0.120091
     9  H    0.135201
    10  C   -0.088614
    11  H    0.128403
    12  C   -0.077067
    13  H    0.122350
    14  C   -0.218281
    15  H    0.151623
    16  H    0.141462
    17  H    0.149912
    18  C   -0.261143
    19  C   -0.040838
    20  H    0.179705
    21  C   -0.116334
    22  H    0.127274
    23  C   -0.089436
    24  H    0.137793
    25  C   -0.096946
    26  H    0.133066
    27  C   -0.061859
    28  H    0.155620
    29  C   -0.659587
    30  H    0.193039
    31  H    0.223878
    32  C   -0.055335
    33  C   -0.396461
    34  H    0.157816
    35  H    0.132276
    36  H    0.155483
    37  C   -0.360363
    38  H    0.150359
    39  H    0.132214
    40  H    0.144163
    41  C   -0.407768
    42  H    0.154725
    43  H    0.144249
    44  H    0.143905
    45  C   -0.047303
    46  C   -0.374200
    47  H    0.151547
    48  H    0.140417
    49  H    0.137529
    50  C   -0.392768
    51  H    0.155202
    52  H    0.122915
    53  H    0.148511
    54  C   -0.395537
    55  H    0.157279
    56  H    0.117968
    57  H    0.160808
    58  Rh  -0.541482
    59  C   -0.077934
    60  C   -0.038981
    61  C   -0.044216
    62  C   -0.114435
    63  H    0.206260
    64  C   -0.365430
    65  H    0.203787
    66  C   -0.227928
    67  C   -0.350710
    68  H    0.192863
    69  H    0.170845
    70  C   -0.207095
    71  H    0.169608
    72  H    0.166089
    73  H    0.166952
    74  H    0.137724
    75  H    0.167642
    76  H    0.168833
    77  H    0.171938
    78  H    0.128579
 Sum of Mulliken charges =   1.00000

 Dipole moment (field-independent basis, Debye):
    X=              0.3125    Y=             -0.2410    Z=             -0.2620  Tot=              0.4737
 Quadrupole moment (field-independent basis, Debye-Ang):
   XX=           -180.9429   YY=           -198.3625   ZZ=           -203.7997
   XY=              5.2252   XZ=             -1.5311   YZ=              2.8073

 Summary of Natural Population Analysis:

                                       Natural Population
                Natural  -----------------------------------------------
    Atom  No    Charge         Core      Valence    Rydberg      Total
 -----------------------------------------------------------------------
      P    1    1.11300      9.99658     3.83850    0.05191    13.88700
      P    2    1.07583      9.99682     3.88212    0.04523    13.92417
      O    3   -0.46599      1.99976     6.45028    0.01595     8.46599
      C    4   -0.37531      1.99889     4.35233    0.02409     6.37531
      C    5    0.29742      1.99869     3.68117    0.02271     5.70258
      C    6   -0.28060      1.99908     4.26776    0.01377     6.28060
      H    7    0.22618      0.00000     0.77195    0.00187     0.77382
      C    8   -0.15594      1.99922     4.14164    0.01509     6.15594
      H    9    0.22358      0.00000     0.77529    0.00113     0.77642
      C   10   -0.22478      1.99919     4.21029    0.01531     6.22478
      H   11    0.22366      0.00000     0.77514    0.00120     0.77634
      C   12   -0.17705      1.99911     4.16216    0.01577     6.17705
      H   13    0.20337      0.00000     0.79423    0.00240     0.79663
      C   14   -0.25556      1.99927     4.24324    0.01304     6.25556
      H   15    0.20338      0.00000     0.79534    0.00128     0.79662
      H   16    0.18004      0.00000     0.81797    0.00199     0.81996
      H   17    0.18638      0.00000     0.81172    0.00190     0.81362
      C   18   -0.32703      1.99898     4.30346    0.02460     6.32703
      C   19   -0.19014      1.99909     4.17537    0.01567     6.19014
      H   20    0.22047      0.00000     0.77728    0.00225     0.77953
      C   21   -0.19790      1.99919     4.18413    0.01458     6.19790
      H   22    0.21945      0.00000     0.77931    0.00124     0.78055
      C   23   -0.18042      1.99921     4.16659    0.01463     6.18042
      H   24    0.22206      0.00000     0.77675    0.00119     0.77794
      C   25   -0.19131      1.99920     4.17755    0.01456     6.19131
      H   26    0.22201      0.00000     0.77676    0.00123     0.77799
      C   27   -0.19513      1.99909     4.17993    0.01611     6.19513
      H   28    0.21906      0.00000     0.77903    0.00191     0.78094
      C   29   -1.00403      1.99939     4.98634    0.01829     7.00403
      H   30    0.24916      0.00000     0.74844    0.00240     0.75084
      H   31    0.26234      0.00000     0.73551    0.00215     0.73766
      C   32   -0.26156      1.99941     4.24527    0.01688     6.26156
      C   33   -0.60021      1.99936     4.59156    0.00929     6.60021
      H   34    0.22182      0.00000     0.77631    0.00186     0.77818
      H   35    0.21471      0.00000     0.78356    0.00173     0.78529
      H   36    0.20956      0.00000     0.78839    0.00205     0.79044
      C   37   -0.60453      1.99935     4.59640    0.00878     6.60453
      H   38    0.22204      0.00000     0.77622    0.00174     0.77796
      H   39    0.20509      0.00000     0.79318    0.00173     0.79491
      H   40    0.21045      0.00000     0.78787    0.00168     0.78955
      C   41   -0.60075      1.99935     4.59322    0.00818     6.60075
      H   42    0.22190      0.00000     0.77630    0.00180     0.77810
      H   43    0.20853      0.00000     0.78979    0.00168     0.79147
      H   44    0.20671      0.00000     0.79178    0.00151     0.79329
      C   45   -0.25747      1.99941     4.24097    0.01709     6.25747
      C   46   -0.60452      1.99935     4.59632    0.00885     6.60452
      H   47    0.22207      0.00000     0.77617    0.00176     0.77793
      H   48    0.20911      0.00000     0.78921    0.00167     0.79089
      H   49    0.20420      0.00000     0.79404    0.00176     0.79580
      C   50   -0.59875      1.99935     4.59124    0.00816     6.59875
      H   51    0.22078      0.00000     0.77742    0.00180     0.77922
      H   52    0.20593      0.00000     0.79257    0.00149     0.79407
      H   53    0.21016      0.00000     0.78818    0.00166     0.78984
      C   54   -0.59911      1.99935     4.59126    0.00849     6.59911
      H   55    0.22250      0.00000     0.77564    0.00186     0.77750
      H   56    0.20393      0.00000     0.79429    0.00178     0.79607
      H   57    0.22251      0.00000     0.77591    0.00158     0.77749
     Rh   58   -0.35437     35.98574     9.34061    0.02802    45.35437
      C   59   -0.18783      1.99907     4.16927    0.01948     6.18783
      C   60   -0.16198      1.99909     4.14327    0.01962     6.16198
      C   61   -0.18250      1.99908     4.16383    0.01959     6.18250
      C   62   -0.15910      1.99909     4.13992    0.02008     6.15910
      H   63    0.23086      0.00000     0.76668    0.00246     0.76914
      C   64   -0.42329      1.99936     4.41201    0.01193     6.42329
      H   65    0.23424      0.00000     0.76341    0.00235     0.76576
      C   66   -0.41652      1.99935     4.40466    0.01251     6.41652
      C   67   -0.42294      1.99936     4.41172    0.01186     6.42294
      H   68    0.21943      0.00000     0.77830    0.00227     0.78057
      H   69    0.22035      0.00000     0.77737    0.00228     0.77965
      C   70   -0.41689      1.99935     4.40482    0.01273     6.41689
      H   71    0.21502      0.00000     0.78299    0.00199     0.78498
      H   72    0.22601      0.00000     0.77244    0.00154     0.77399
      H   73    0.23184      0.00000     0.76626    0.00190     0.76816
      H   74    0.21636      0.00000     0.78194    0.00170     0.78364
      H   75    0.22770      0.00000     0.77079    0.00151     0.77230
      H   76    0.21524      0.00000     0.78279    0.00197     0.78476
      H   77    0.23355      0.00000     0.76455    0.00190     0.76645
      H   78    0.21346      0.00000     0.78480    0.00174     0.78654
 =======================================================================
   * Total *    1.00000    117.95518   187.37306    0.67176   306.00000

 Normal termination of Gaussian 16 at Sun Jan 19 21:43:43 2025.
