 Gaussian 16, Revision B.01,
 Gaussian 16:  ES64L-G16RevB.01 20-Dec-2017

 ------------------------------------------
 # nmr=giao b3lyp/genecp pop=nbo scfcyc=200
 ------------------------------------------

 ---------
 DS-15_SPE
 ---------
 Symbolic Z-matrix:
 Charge =  1 Multiplicity = 1

                         Standard orientation:
 ---------------------------------------------------------------------
 Center     Atomic      Atomic             Coordinates (Angstroms)
 Number     Number       Type             X           Y           Z
 ---------------------------------------------------------------------
      1         15           0       -1.057670    1.192501    0.065920
      2         15           0        0.846069   -0.839490    0.232060
      3          6           0        1.664019   -0.210681    2.870880
      4          6           0        2.009419   -0.529871    4.180860
      5          6           0        2.093828   -1.858651    4.579280
      6          6           0        1.826228   -2.873981    3.664450
      7          6           0        1.473948   -2.560251    2.358180
      8          6           0        1.400619   -1.223451    1.946060
      9          1           0        1.596780    0.828039    2.575530
     10          1           0        2.213310    0.264039    4.888290
     11          1           0        2.364558   -2.104571    5.598280
     12          1           0        1.888547   -3.911111    3.969410
     13          1           0        1.269168   -3.362851    1.659820
     14          6           0        3.243318   -2.221322   -0.497210
     15          6           0        4.119808   -2.772342   -1.427270
     16          6           0        3.857908   -2.664012   -2.787820
     17          6           0        2.708738   -2.007862   -3.221300
     18          6           0        1.824089   -1.469721   -2.296180
     19          6           0        2.088819   -1.563131   -0.925010
     20          1           0        3.467918   -2.306522    0.557240
     21          1           0        5.010788   -3.283293   -1.084330
     22          1           0        4.543198   -3.091643   -3.508720
     23          1           0        2.497958   -1.923571   -4.280110
     24          1           0        0.920729   -0.979640   -2.639600
     25          6           0       -1.062639    2.398491   -2.470760
     26          6           0       -1.496538    3.295511   -3.438360
     27          6           0       -2.446438    4.263002   -3.119700
     28          6           0       -2.958838    4.329162   -1.829560
     29          6           0       -2.522318    3.436832   -0.854080
     30          6           0       -1.563759    2.468621   -1.164990
     31          1           0       -0.327759    1.647270   -2.732870
     32          1           0       -1.095478    3.238201   -4.442630
     33          1           0       -2.785437    4.960142   -3.875460
     34          1           0       -3.699267    5.077452   -1.576160
     35          1           0       -2.927058    3.504362    0.146860
     36          6           0       -2.337810    1.201422    2.564580
     37          6           0       -2.648159    1.708522    3.823490
     38          6           0       -2.089459    2.908201    4.247220
     39          6           0       -1.215868    3.602511    3.412480
     40          6           0       -0.904428    3.099181    2.156170
     41          6           0       -1.469269    1.895261    1.720240
     42          1           0       -2.762510    0.259622    2.241460
     43          1           0       -3.323310    1.163992    4.471600
     44          1           0       -2.330638    3.303292    5.226080
     45          1           0       -0.777478    4.536421    3.741500
     46          1           0       -0.224178    3.649880    1.518230
     47          6           0        0.780880    1.000650    0.019980
     48         45           0       -1.453151   -1.090859   -0.271930
     49          6           0       -3.726541   -1.208688   -0.379960
     50          6           0       -3.229541   -0.895028   -1.629550
     51          6           0       -1.442122   -3.171869   -1.235550
     52          6           0       -1.740792   -3.296199    0.103710
     53          6           0       -4.208892   -2.578577    0.060230
     54          1           0       -4.061621   -0.377407    0.231090
     55          1           0       -3.235030    0.151492   -1.915250
     56          6           0       -3.002152   -1.848148   -2.777180
     57          6           0       -2.448332   -3.230038   -2.369340
     58          1           0       -0.405272   -3.302950   -1.523540
     59          6           0       -3.110633   -3.440978    0.719920
     60          1           0       -0.924283   -3.546219    0.772990
     61          1           0       -5.020212   -2.446967    0.778080
     62          1           0       -4.645492   -3.104027   -0.789040
     63          1           0       -3.936172   -1.974077   -3.339390
     64          1           0       -2.302811   -1.371998   -3.467870
     65          1           0       -3.263443   -3.901718   -2.100850
     66          1           0       -1.964553   -3.678969   -3.238480
     67          1           0       -3.027782   -3.168688    1.774440
     68          1           0       -3.411083   -4.496218    0.707910
     69          6           0        1.656701    1.959189   -0.342840
     70          1           0        1.204281    2.909779   -0.622580
     71          6           0        3.109921    1.969928   -0.474580
     72          6           0        3.681222    2.958508   -1.295170
     73          6           0        3.966790    1.092248    0.205970
     74          6           0        5.055112    3.041447   -1.461940
     75          1           0        3.034852    3.660638   -1.809040
     76          6           0        5.341750    1.187617    0.050920
     77          1           0        3.561280    0.358568    0.886510
     78          6           0        5.890041    2.154036   -0.788620
     79          1           0        5.476302    3.803287   -2.105440
     80          1           0        5.991100    0.511936    0.593190
     81          1           0        6.964121    2.224296   -0.905760
 ---------------------------------------------------------------------

 SCF Done:  E(RB3LYP) =  -2340.83226177     A.U. after   17 cycles

      1  P    Isotropic =   288.0390   Anisotropy =    66.5594

      2  P    Isotropic =   288.8729   Anisotropy =    81.1070

      3  C    Isotropic =    46.9918   Anisotropy =   188.7349

      4  C    Isotropic =    48.4599   Anisotropy =   191.3912

      5  C    Isotropic =    46.4746   Anisotropy =   196.5211

      6  C    Isotropic =    49.1591   Anisotropy =   190.0344

      7  C    Isotropic =    46.9676   Anisotropy =   188.9936

      8  C    Isotropic =    49.0047   Anisotropy =   166.7940

      9  H    Isotropic =    24.6276   Anisotropy =     8.2608

     10  H    Isotropic =    24.5451   Anisotropy =     7.2895

     11  H    Isotropic =    24.1379   Anisotropy =     3.5659

     12  H    Isotropic =    24.0565   Anisotropy =     5.8484

     13  H    Isotropic =    24.3376   Anisotropy =    10.4768

     14  C    Isotropic =    45.4493   Anisotropy =   196.6229

     15  C    Isotropic =    49.8627   Anisotropy =   188.6717

     16  C    Isotropic =    46.1005   Anisotropy =   196.3364

     17  C    Isotropic =    49.4241   Anisotropy =   188.2358

     18  C    Isotropic =    45.0373   Anisotropy =   185.3411

     19  C    Isotropic =    48.2930   Anisotropy =   164.2399

     20  H    Isotropic =    24.4016   Anisotropy =    11.8688

     21  H    Isotropic =    24.4127   Anisotropy =     6.1888

     22  H    Isotropic =    24.3010   Anisotropy =     3.2318

     23  H    Isotropic =    24.2501   Anisotropy =     6.5266

     24  H    Isotropic =    23.5460   Anisotropy =     9.3255

     25  C    Isotropic =    48.1391   Anisotropy =   187.7485

     26  C    Isotropic =    49.2732   Anisotropy =   188.3101

     27  C    Isotropic =    46.2344   Anisotropy =   195.4884

     28  C    Isotropic =    48.4191   Anisotropy =   189.9504

     29  C    Isotropic =    44.8740   Anisotropy =   193.6567

     30  C    Isotropic =    45.1665   Anisotropy =   165.6036

     31  H    Isotropic =    23.7088   Anisotropy =    10.2751

     32  H    Isotropic =    23.9537   Anisotropy =     6.7411

     33  H    Isotropic =    24.0237   Anisotropy =     3.6860

     34  H    Isotropic =    24.2543   Anisotropy =     6.4862

     35  H    Isotropic =    24.8795   Anisotropy =    12.8087

     36  C    Isotropic =    41.1669   Anisotropy =   181.6726

     37  C    Isotropic =    49.5244   Anisotropy =   188.2594

     38  C    Isotropic =    45.0313   Anisotropy =   198.3032

     39  C    Isotropic =    48.4628   Anisotropy =   190.4304

     40  C    Isotropic =    46.4929   Anisotropy =   191.4869

     41  C    Isotropic =    45.8681   Anisotropy =   171.7239

     42  H    Isotropic =    23.7424   Anisotropy =     9.8510

     43  H    Isotropic =    24.2487   Anisotropy =     6.4447

     44  H    Isotropic =    24.0001   Anisotropy =     3.1833

     45  H    Isotropic =    24.0672   Anisotropy =     6.1953

     46  H    Isotropic =    24.1136   Anisotropy =    10.7932

     47  C    Isotropic =    35.1961   Anisotropy =    75.3450

     48  Rh   Isotropic =  -307.0906   Anisotropy =   318.9256

     49  C    Isotropic =    82.9496   Anisotropy =   114.7924

     50  C    Isotropic =    73.4161   Anisotropy =   121.5134

     51  C    Isotropic =    73.8822   Anisotropy =   127.9603

     52  C    Isotropic =    75.8479   Anisotropy =   116.1212

     53  C    Isotropic =   154.2529   Anisotropy =    24.5800

     54  H    Isotropic =    27.0472   Anisotropy =     6.7561

     55  H    Isotropic =    26.8639   Anisotropy =     4.6655

     56  C    Isotropic =   147.3294   Anisotropy =    29.6264

     57  C    Isotropic =   153.8124   Anisotropy =    24.9664

     58  H    Isotropic =    27.0354   Anisotropy =     4.3083

     59  C    Isotropic =   148.1764   Anisotropy =    29.1358

     60  H    Isotropic =    26.3194   Anisotropy =     5.3137

     61  H    Isotropic =    29.8518   Anisotropy =    11.8181

     62  H    Isotropic =    29.7911   Anisotropy =     9.7432

     63  H    Isotropic =    29.2382   Anisotropy =    12.4791

     64  H    Isotropic =    29.1061   Anisotropy =     7.1334

     65  H    Isotropic =    29.7735   Anisotropy =     9.7672

     66  H    Isotropic =    29.9034   Anisotropy =    10.8824

     67  H    Isotropic =    29.2343   Anisotropy =     7.6452

     68  H    Isotropic =    29.1483   Anisotropy =    12.8397

     69  C    Isotropic =    23.2271   Anisotropy =   159.0925

     70  H    Isotropic =    24.0480   Anisotropy =    10.3671

     71  C    Isotropic =    46.1979   Anisotropy =   184.9465

     72  C    Isotropic =    45.3653   Anisotropy =   175.4292

     73  C    Isotropic =    49.9235   Anisotropy =   185.6438

     74  C    Isotropic =    49.8712   Anisotropy =   188.2974

     75  H    Isotropic =    24.7154   Anisotropy =     9.5335

     76  C    Isotropic =    51.0230   Anisotropy =   188.5734

     77  H    Isotropic =    24.7859   Anisotropy =     8.8668

     78  C    Isotropic =    44.8605   Anisotropy =   198.0291

     79  H    Isotropic =    24.4502   Anisotropy =     5.0355

     80  H    Isotropic =    24.9234   Anisotropy =     8.7361

     81  H    Isotropic =    24.4327   Anisotropy =     4.5339

 The electronic state is 1-A.
 Alpha  occ. eigenvalues --  -77.23693 -77.23286 -10.30474 -10.29979 -10.29424
 Alpha  occ. eigenvalues --  -10.29334 -10.29288 -10.29126 -10.28633 -10.28618
 Alpha  occ. eigenvalues --  -10.28521 -10.28496 -10.28265 -10.28178 -10.28110
 Alpha  occ. eigenvalues --  -10.28061 -10.27998 -10.27979 -10.27918 -10.27903
 Alpha  occ. eigenvalues --  -10.27830 -10.27419 -10.27403 -10.27395 -10.27344
 Alpha  occ. eigenvalues --  -10.27296 -10.27287 -10.27276 -10.27261 -10.27242
 Alpha  occ. eigenvalues --  -10.27238 -10.27215 -10.27210 -10.27189 -10.27145
 Alpha  occ. eigenvalues --  -10.27130 -10.27113 -10.26923 -10.26880 -10.26834
 Alpha  occ. eigenvalues --  -10.26619 -10.26532  -6.69604  -6.69247  -4.85904
 Alpha  occ. eigenvalues --   -4.85823  -4.85524  -4.85509  -4.85468  -4.85163
 Alpha  occ. eigenvalues --   -3.31150  -2.08051  -2.07356  -2.04631  -0.96729
 Alpha  occ. eigenvalues --   -0.96406  -0.95989  -0.95847  -0.95806  -0.94012
 Alpha  occ. eigenvalues --   -0.91172  -0.88724  -0.87604  -0.87269  -0.87020
 Alpha  occ. eigenvalues --   -0.85099  -0.85077  -0.85013  -0.84985  -0.84650
 Alpha  occ. eigenvalues --   -0.84620  -0.84341  -0.83540  -0.79936  -0.77708
 Alpha  occ. eigenvalues --   -0.77404  -0.75464  -0.71777  -0.71043  -0.70983
 Alpha  occ. eigenvalues --   -0.70811  -0.70618  -0.70225  -0.70155  -0.69948
 Alpha  occ. eigenvalues --   -0.69917  -0.68492  -0.66862  -0.65437  -0.64197
 Alpha  occ. eigenvalues --   -0.62249  -0.62150  -0.61948  -0.61645  -0.60385
 Alpha  occ. eigenvalues --   -0.59629  -0.59361  -0.57225  -0.56653  -0.56560
 Alpha  occ. eigenvalues --   -0.55968  -0.55846  -0.55765  -0.55615  -0.55564
 Alpha  occ. eigenvalues --   -0.55188  -0.55139  -0.54556  -0.54017  -0.53248
 Alpha  occ. eigenvalues --   -0.52981  -0.52731  -0.52559  -0.52478  -0.52355
 Alpha  occ. eigenvalues --   -0.52333  -0.52176  -0.52137  -0.51607  -0.51432
 Alpha  occ. eigenvalues --   -0.50988  -0.48635  -0.48374  -0.47948  -0.47646
 Alpha  occ. eigenvalues --   -0.47468  -0.47326  -0.46990  -0.46762  -0.46135
 Alpha  occ. eigenvalues --   -0.45857  -0.45583  -0.45293  -0.44891  -0.44832
 Alpha  occ. eigenvalues --   -0.44813  -0.44700  -0.44237  -0.44017  -0.43309
 Alpha  occ. eigenvalues --   -0.43075  -0.42956  -0.42595  -0.42125  -0.41076
 Alpha  occ. eigenvalues --   -0.40630  -0.37886  -0.37412  -0.36580  -0.36094
 Alpha  occ. eigenvalues --   -0.35991  -0.35727  -0.35658  -0.35628  -0.35443
 Alpha  occ. eigenvalues --   -0.34832  -0.34658  -0.34386  -0.33895  -0.33333
 Alpha  occ. eigenvalues --   -0.33181  -0.30185
 Alpha virt. eigenvalues --   -0.17939  -0.14696  -0.14215  -0.13588  -0.12434
 Alpha virt. eigenvalues --   -0.12330  -0.11615  -0.11407  -0.11025  -0.10531
 Alpha virt. eigenvalues --   -0.10121  -0.09981  -0.08879  -0.07315  -0.07192

 Mulliken charges:
               1
     1  P    0.458535
     2  P    0.342568
     3  C   -0.061114
     4  C   -0.096175
     5  C   -0.100341
     6  C   -0.089723
     7  C   -0.136648
     8  C   -0.137855
     9  H    0.173174
    10  H    0.132612
    11  H    0.137122
    12  H    0.133569
    13  H    0.160264
    14  C   -0.062874
    15  C   -0.106513
    16  C   -0.088038
    17  C   -0.106171
    18  C   -0.033207
    19  C   -0.218733
    20  H    0.169356
    21  H    0.131044
    22  H    0.136723
    23  H    0.128106
    24  H    0.144651
    25  C   -0.096480
    26  C   -0.095370
    27  C   -0.095848
    28  C   -0.098423
    29  C   -0.055316
    30  C   -0.216936
    31  H    0.146595
    32  H    0.130476
    33  H    0.138603
    34  H    0.135019
    35  H    0.161163
    36  C   -0.003853
    37  C   -0.120465
    38  C   -0.090093
    39  C   -0.090595
    40  C   -0.058241
    41  C   -0.270220
    42  H    0.146524
    43  H    0.130254
    44  H    0.138206
    45  H    0.133845
    46  H    0.133399
    47  C   -0.631871
    48  Rh  -0.565491
    49  C   -0.010738
    50  C   -0.110367
    51  C   -0.028470
    52  C   -0.076690
    53  C   -0.356651
    54  H    0.180544
    55  H    0.217720
    56  C   -0.231729
    57  C   -0.359214
    58  H    0.211509
    59  C   -0.218718
    60  H    0.165064
    61  H    0.167039
    62  H    0.166089
    63  H    0.170296
    64  H    0.128827
    65  H    0.166677
    66  H    0.167643
    67  H    0.131934
    68  H    0.169641
    69  C    0.048175
    70  H    0.173909
    71  C    0.041931
    72  C   -0.136903
    73  C   -0.022163
    74  C   -0.092906
    75  H    0.123386
    76  C   -0.158930
    77  H    0.152771
    78  C   -0.086219
    79  H    0.132411
    80  H    0.124056
    81  H    0.134861
 Sum of Mulliken charges =   1.00000

 Dipole moment (field-independent basis, Debye):
    X=              0.1547    Y=              0.0588    Z=             -0.1249  Tot=              0.2074
 Quadrupole moment (field-independent basis, Debye-Ang):
   XX=           -220.1197   YY=           -227.9172   ZZ=           -227.9433
   XY=             -2.4407   XZ=             -2.2142   YZ=             -2.8390

 Summary of Natural Population Analysis:

                                       Natural Population
                Natural  -----------------------------------------------
    Atom  No    Charge         Core      Valence    Rydberg      Total
 -----------------------------------------------------------------------
      P    1    1.13465      9.99618     3.81442    0.05474    13.86535
      P    2    1.11272      9.99625     3.83625    0.05478    13.88728
      C    3   -0.19589      1.99909     4.18074    0.01606     6.19589
      C    4   -0.18984      1.99919     4.17566    0.01498     6.18984
      C    5   -0.18087      1.99920     4.16708    0.01458     6.18087
      C    6   -0.19274      1.99919     4.17898    0.01457     6.19274
      C    7   -0.19995      1.99909     4.18562    0.01524     6.19995
      C    8   -0.34103      1.99898     4.31856    0.02348     6.34103
      H    9    0.22343      0.00000     0.77383    0.00274     0.77657
      H   10    0.22181      0.00000     0.77692    0.00127     0.77819
      H   11    0.22241      0.00000     0.77642    0.00117     0.77759
      H   12    0.22207      0.00000     0.77669    0.00124     0.77793
      H   13    0.21297      0.00000     0.78504    0.00200     0.78703
      C   14   -0.19216      1.99909     4.17728    0.01579     6.19216
      C   15   -0.19211      1.99919     4.17804    0.01487     6.19211
      C   16   -0.17721      1.99920     4.16334    0.01467     6.17721
      C   17   -0.19480      1.99919     4.18093    0.01468     6.19480
      C   18   -0.19051      1.99910     4.17550    0.01591     6.19051
      C   19   -0.33486      1.99897     4.31091    0.02499     6.33486
      H   20    0.22203      0.00000     0.77593    0.00204     0.77797
      H   21    0.22126      0.00000     0.77752    0.00122     0.77874
      H   22    0.22198      0.00000     0.77687    0.00115     0.77802
      H   23    0.21993      0.00000     0.77885    0.00122     0.78007
      H   24    0.21609      0.00000     0.78194    0.00197     0.78391
      C   25   -0.19844      1.99910     4.18401    0.01534     6.19844
      C   26   -0.19508      1.99920     4.18112    0.01476     6.19508
      C   27   -0.18082      1.99920     4.16690    0.01471     6.18082
      C   28   -0.19062      1.99920     4.17674    0.01468     6.19062
      C   29   -0.19314      1.99910     4.17871    0.01534     6.19314
      C   30   -0.34760      1.99899     4.32436    0.02425     6.34760
      H   31    0.21494      0.00000     0.78303    0.00203     0.78506
      H   32    0.22068      0.00000     0.77809    0.00123     0.77932
      H   33    0.22270      0.00000     0.77613    0.00117     0.77730
      H   34    0.22296      0.00000     0.77582    0.00122     0.77704
      H   35    0.22457      0.00000     0.77371    0.00172     0.77543
      C   36   -0.17937      1.99909     4.16489    0.01539     6.17937
      C   37   -0.19605      1.99920     4.18231    0.01455     6.19605
      C   38   -0.17599      1.99921     4.16222    0.01457     6.17599
      C   39   -0.19478      1.99920     4.18102    0.01456     6.19478
      C   40   -0.19101      1.99909     4.17594    0.01598     6.19101
      C   41   -0.34293      1.99898     4.31910    0.02484     6.34293
      H   42    0.22064      0.00000     0.77736    0.00200     0.77936
      H   43    0.22119      0.00000     0.77758    0.00122     0.77881
      H   44    0.22226      0.00000     0.77656    0.00118     0.77774
      H   45    0.22228      0.00000     0.77648    0.00124     0.77772
      H   46    0.21510      0.00000     0.78299    0.00191     0.78490
      C   47   -0.62685      1.99902     4.60127    0.02656     6.62685
     Rh   48   -0.37871     35.98577     9.36426    0.02869    45.37871
      C   49   -0.18875      1.99906     4.17009    0.01960     6.18875
      C   50   -0.14932      1.99907     4.13045    0.01980     6.14932
      C   51   -0.16640      1.99907     4.14780    0.01953     6.16640
      C   52   -0.16777      1.99907     4.14890    0.01980     6.16777
      C   53   -0.42221      1.99936     4.41114    0.01171     6.42221
      H   54    0.22462      0.00000     0.77347    0.00190     0.77538
      H   55    0.23132      0.00000     0.76674    0.00193     0.76868
      C   56   -0.41720      1.99935     4.40527    0.01258     6.41720
      C   57   -0.42450      1.99936     4.41330    0.01184     6.42450
      H   58    0.23029      0.00000     0.76774    0.00196     0.76971
      C   59   -0.41854      1.99935     4.40656    0.01262     6.41854
      H   60    0.22376      0.00000     0.77421    0.00203     0.77624
      H   61    0.22741      0.00000     0.77109    0.00150     0.77259
      H   62    0.21411      0.00000     0.78389    0.00200     0.78589
      H   63    0.23267      0.00000     0.76541    0.00192     0.76733
      H   64    0.21437      0.00000     0.78406    0.00157     0.78563
      H   65    0.21443      0.00000     0.78359    0.00198     0.78557
      H   66    0.22773      0.00000     0.77080    0.00147     0.77227
      H   67    0.21654      0.00000     0.78193    0.00153     0.78346
      H   68    0.23280      0.00000     0.76528    0.00192     0.76720
      C   69   -0.11013      1.99899     4.09077    0.02038     6.11013
      H   70    0.21366      0.00000     0.78278    0.00356     0.78634
      C   71   -0.11414      1.99906     4.09479    0.02030     6.11414
      C   72   -0.15813      1.99916     4.14492    0.01406     6.15813
      C   73   -0.16654      1.99911     4.15207    0.01537     6.16654
      C   74   -0.20070      1.99920     4.18668    0.01482     6.20070
      H   75    0.21121      0.00000     0.78726    0.00153     0.78879
      C   76   -0.19832      1.99921     4.18401    0.01510     6.19832
      H   77    0.21112      0.00000     0.78587    0.00301     0.78888
      C   78   -0.16881      1.99921     4.15489    0.01471     6.16881
      H   79    0.22166      0.00000     0.77716    0.00119     0.77834
      H   80    0.21810      0.00000     0.78053    0.00138     0.78190
      H   81    0.22040      0.00000     0.77848    0.00113     0.77960
 =======================================================================
   * Total *    1.00000    135.94391   215.18586    0.87023   352.00000

 Normal termination of Gaussian 16 at Sun Jan 19 21:45:57 2025.
