 Gaussian 16, Revision B.01,
 Gaussian 16:  ES64L-G16RevB.01 20-Dec-2017

 ------------------------------------------
 # nmr=giao b3lyp/genecp pop=nbo scfcyc=200
 ------------------------------------------

 ---------
 DS-11_SPE
 ---------
 Symbolic Z-matrix:
 Charge =  1 Multiplicity = 1

                         Standard orientation:
 ---------------------------------------------------------------------
 Center     Atomic      Atomic             Coordinates (Angstroms)
 Number     Number       Type             X           Y           Z
 ---------------------------------------------------------------------
      1         15           0       -1.395451    0.096001   -0.446420
      2         15           0        1.419199   -0.077751   -0.403770
      3          6           0        1.851831    2.590959   -1.278650
      4          6           0        2.471772    3.835178   -1.216900
      5          6           0        3.456552    4.109637   -0.268200
      6          6           0        3.807961    3.090527    0.624770
      7          6           0        3.190030    1.850728    0.577190
      8          6           0        2.205780    1.582928   -0.382270
      9          1           0        1.094841    2.413229   -2.030660
     10          1           0        2.184712    4.603188   -1.925600
     11          1           0        4.575871    3.272557    1.367910
     12          1           0        3.495710    1.083607    1.278980
     13          6           0        3.822508   -0.776653   -1.749510
     14          6           0        4.730778   -1.686743   -2.277880
     15          6           0        4.536996   -3.063943   -2.151390
     16          6           0        3.393366   -3.506172   -1.478290
     17          6           0        2.483177   -2.606372   -0.942720
     18          6           0        2.686208   -1.228492   -1.074480
     19          1           0        4.004889    0.283837   -1.864300
     20          1           0        5.605908   -1.316844   -2.799460
     21          1           0        3.216675   -4.570092   -1.369290
     22          1           0        1.606277   -2.976151   -0.424090
     23          6           0       -2.611843   -2.164978   -1.577430
     24          6           0       -3.680213   -2.926017   -2.027440
     25          6           0       -4.982353   -2.413206   -2.040150
     26          6           0       -5.174732   -1.110256   -1.579610
     27          6           0       -4.109611   -0.335277   -1.132850
     28          6           0       -2.812042   -0.851238   -1.135810
     29          1           0       -1.618453   -2.597339   -1.573680
     30          1           0       -3.502214   -3.938327   -2.371860
     31          1           0       -6.173452   -0.689555   -1.569060
     32          1           0       -4.297501    0.672233   -0.786150
     33          6           0       -1.941519    2.553262    0.794900
     34          6           0       -2.324278    3.889922    0.830160
     35          6           0       -2.683108    4.568732   -0.334640
     36          6           0       -2.639338    3.866512   -1.545450
     37          6           0       -2.259449    2.533912   -1.590000
     38          6           0       -1.911080    1.858792   -0.414560
     39          1           0       -1.653070    2.053351    1.710810
     40          1           0       -2.338998    4.412942    1.779190
     41          1           0       -2.905098    4.373602   -2.465970
     42          1           0       -2.236920    2.021782   -2.544330
     43          6           0        0.026149   -0.014810   -1.625080
     44         45           0       -0.074072   -0.674760    1.349650
     45          6           0       -1.604882   -0.841949    3.017160
     46          6           0       -1.607983   -2.010329    2.278440
     47          6           0        1.285787   -1.981271    2.650600
     48          6           0        1.304868   -0.688741    3.128720
     49          6           0       -0.944172   -0.655669    4.370740
     50          1           0       -2.359021   -0.105338    2.761320
     51          1           0       -2.375253   -2.111978    1.518190
     52          6           0       -0.908574   -3.301269    2.627150
     53          6           0        0.492916   -3.127510    3.250020
     54          1           0        2.085057   -2.266151    1.976130
     55          6           0        0.506819   -0.134770    4.283290
     56          1           0        2.130359   -0.058031    2.815650
     57          1           0       -1.532191    0.058471    4.949590
     58          1           0       -0.979372   -1.591419    4.928630
     59          1           0       -1.543374   -3.892209    3.299610
     60          1           0       -0.822394   -3.887809    1.709830
     61          1           0        0.415307   -2.993360    4.328790
     62          1           0        1.054316   -4.051831    3.103260
     63          1           0        0.490540    0.952530    4.180640
     64          1           0        1.031939   -0.337061    5.225270
     65          6           0        0.043979   -0.296350   -2.923870
     66          1           0        0.974558   -0.470621   -3.453970
     67          1           0       -0.869531   -0.392559   -3.501040
     68          6           0        5.541306   -4.043164   -2.696560
     69          1           0        6.275766   -4.308975   -1.930600
     70          1           0        5.061715   -4.967094   -3.022200
     71          1           0        6.088216   -3.624605   -3.541860
     72          6           0        4.112163    5.462197   -0.189340
     73          1           0        3.701723    6.044317    0.640740
     74          1           0        5.186913    5.373686   -0.021530
     75          1           0        3.956153    6.035267   -1.103310
     76          6           0       -3.125597    6.006573   -0.294660
     77          1           0       -2.758306    6.560672   -1.159830
     78          1           0       -4.217307    6.074393   -0.305860
     79          1           0       -2.774686    6.507872    0.607470
     80          6           0       -6.131964   -3.236105   -2.555670
     81          1           0       -7.083133   -2.891894   -2.149140
     82          1           0       -6.196634   -3.168785   -3.645630
     83          1           0       -6.012774   -4.290525   -2.302320
 ---------------------------------------------------------------------

 SCF Done:  E(RB3LYP) =  -2267.03107046     A.U. after   17 cycles

      1  P    Isotropic =   287.3675   Anisotropy =    86.1999

      2  P    Isotropic =   294.9562   Anisotropy =    80.4040

      3  C    Isotropic =    47.1571   Anisotropy =   187.3111

      4  C    Isotropic =    48.9749   Anisotropy =   166.4566

      5  C    Isotropic =    32.4950   Anisotropy =   212.9489

      6  C    Isotropic =    48.4754   Anisotropy =   172.8396

      7  C    Isotropic =    46.8724   Anisotropy =   184.5008

      8  C    Isotropic =    52.9316   Anisotropy =   165.7416

      9  H    Isotropic =    24.9580   Anisotropy =     9.2589

     10  H    Isotropic =    24.8002   Anisotropy =     8.0233

     11  H    Isotropic =    24.3625   Anisotropy =     7.6275

     12  H    Isotropic =    24.6521   Anisotropy =    10.4410

     13  C    Isotropic =    45.1977   Anisotropy =   189.7226

     14  C    Isotropic =    48.4668   Anisotropy =   167.2323

     15  C    Isotropic =    30.9327   Anisotropy =   213.0513

     16  C    Isotropic =    48.4941   Anisotropy =   167.7846

     17  C    Isotropic =    45.7417   Anisotropy =   177.7604

     18  C    Isotropic =    50.4685   Anisotropy =   162.6771

     19  H    Isotropic =    25.1644   Anisotropy =    13.3159

     20  H    Isotropic =    24.5482   Anisotropy =     8.3324

     21  H    Isotropic =    24.1808   Anisotropy =     8.8045

     22  H    Isotropic =    23.6885   Anisotropy =    10.3424

     23  C    Isotropic =    48.1601   Anisotropy =   184.2574

     24  C    Isotropic =    48.7130   Anisotropy =   169.6917

     25  C    Isotropic =    31.4947   Anisotropy =   212.2487

     26  C    Isotropic =    48.2081   Anisotropy =   167.3058

     27  C    Isotropic =    45.5627   Anisotropy =   189.7756

     28  C    Isotropic =    50.9687   Anisotropy =   159.3214

     29  H    Isotropic =    24.1018   Anisotropy =    10.4680

     30  H    Isotropic =    24.2504   Anisotropy =     8.5378

     31  H    Isotropic =    24.5275   Anisotropy =     8.1169

     32  H    Isotropic =    25.1021   Anisotropy =    12.7497

     33  C    Isotropic =    41.2310   Anisotropy =   178.8329

     34  C    Isotropic =    49.1456   Anisotropy =   165.4768

     35  C    Isotropic =    30.3191   Anisotropy =   215.8067

     36  C    Isotropic =    48.0064   Anisotropy =   172.1377

     37  C    Isotropic =    46.2258   Anisotropy =   188.1569

     38  C    Isotropic =    52.5648   Anisotropy =   163.8768

     39  H    Isotropic =    23.9739   Anisotropy =     9.6943

     40  H    Isotropic =    24.5215   Anisotropy =     7.9637

     41  H    Isotropic =    24.2470   Anisotropy =     7.1967

     42  H    Isotropic =    24.3101   Anisotropy =    10.9756

     43  C    Isotropic =    14.3665   Anisotropy =   115.3739

     44  Rh   Isotropic =  -311.4045   Anisotropy =   329.2676

     45  C    Isotropic =    83.9457   Anisotropy =   113.4185

     46  C    Isotropic =    74.3663   Anisotropy =   119.6984

     47  C    Isotropic =    76.4551   Anisotropy =   124.7322

     48  C    Isotropic =    76.0098   Anisotropy =   116.1246

     49  C    Isotropic =   154.2253   Anisotropy =    24.2279

     50  H    Isotropic =    27.1344   Anisotropy =     6.4407

     51  H    Isotropic =    26.8642   Anisotropy =     4.9977

     52  C    Isotropic =   147.1900   Anisotropy =    30.0369

     53  C    Isotropic =   153.7418   Anisotropy =    25.1352

     54  H    Isotropic =    26.5500   Anisotropy =     5.5926

     55  C    Isotropic =   147.7649   Anisotropy =    29.1708

     56  H    Isotropic =    26.1668   Anisotropy =     5.4047

     57  H    Isotropic =    29.8434   Anisotropy =    11.6243

     58  H    Isotropic =    29.7706   Anisotropy =     9.5801

     59  H    Isotropic =    29.1752   Anisotropy =    12.3072

     60  H    Isotropic =    29.0027   Anisotropy =     7.4941

     61  H    Isotropic =    29.6899   Anisotropy =     9.4679

     62  H    Isotropic =    29.7391   Anisotropy =    11.2886

     63  H    Isotropic =    29.1473   Anisotropy =     7.8423

     64  H    Isotropic =    29.0752   Anisotropy =    12.7150

     65  C    Isotropic =    43.4606   Anisotropy =   183.8412

     66  H    Isotropic =    26.0754   Anisotropy =     7.2381

     67  H    Isotropic =    25.4103   Anisotropy =     6.4879

     68  C    Isotropic =   161.8674   Anisotropy =    42.6495

     69  H    Isotropic =    29.2418   Anisotropy =     9.1076

     70  H    Isotropic =    29.4759   Anisotropy =     8.1080

     71  H    Isotropic =    29.5728   Anisotropy =     8.3810

     72  C    Isotropic =   162.0463   Anisotropy =    42.5582

     73  H    Isotropic =    29.3687   Anisotropy =     8.3981

     74  H    Isotropic =    29.4460   Anisotropy =     9.0948

     75  H    Isotropic =    29.7917   Anisotropy =     7.7666

     76  C    Isotropic =   161.6916   Anisotropy =    42.6486

     77  H    Isotropic =    29.4185   Anisotropy =     8.0551

     78  H    Isotropic =    29.1815   Anisotropy =     9.7371

     79  H    Isotropic =    29.6485   Anisotropy =     7.4562

     80  C    Isotropic =   161.8978   Anisotropy =    42.6405

     81  H    Isotropic =    29.6157   Anisotropy =     8.1746

     82  H    Isotropic =    29.2400   Anisotropy =     9.3039

     83  H    Isotropic =    29.4630   Anisotropy =     8.0797

 The electronic state is 1-A.
 Alpha  occ. eigenvalues --  -77.23205 -77.23064 -10.30132 -10.29186 -10.28764
 Alpha  occ. eigenvalues --  -10.28738 -10.28652 -10.28622 -10.28617 -10.28594
 Alpha  occ. eigenvalues --  -10.28507 -10.28234 -10.28147 -10.27877 -10.27873
 Alpha  occ. eigenvalues --  -10.27808 -10.27772 -10.27767 -10.27711 -10.27633
 Alpha  occ. eigenvalues --  -10.27622 -10.27526 -10.27435 -10.27385 -10.27136
 Alpha  occ. eigenvalues --  -10.27108 -10.26940 -10.26863 -10.26826 -10.26714
 Alpha  occ. eigenvalues --  -10.26709 -10.26640 -10.26569 -10.26540 -10.26488
 Alpha  occ. eigenvalues --  -10.26449 -10.25054 -10.24821 -10.24809 -10.24795
 Alpha  occ. eigenvalues --   -6.69185  -6.69037  -4.85468  -4.85397  -4.85330
 Alpha  occ. eigenvalues --   -4.85248  -4.85097  -4.84943  -3.31177  -2.08057
 Alpha  occ. eigenvalues --   -2.07385  -2.04661  -0.96446  -0.96176  -0.95785
 Alpha  occ. eigenvalues --   -0.95620  -0.94014  -0.90892  -0.88715  -0.88244
 Alpha  occ. eigenvalues --   -0.87607  -0.87050  -0.86756  -0.86629  -0.84713
 Alpha  occ. eigenvalues --   -0.84495  -0.84462  -0.84400  -0.80437  -0.79919
 Alpha  occ. eigenvalues --   -0.79784  -0.77585  -0.77441  -0.77374  -0.75328
 Alpha  occ. eigenvalues --   -0.72276  -0.70919  -0.70697  -0.70591  -0.70540
 Alpha  occ. eigenvalues --   -0.70145  -0.68156  -0.68035  -0.67874  -0.66295
 Alpha  occ. eigenvalues --   -0.65431  -0.63658  -0.62006  -0.60388  -0.60060
 Alpha  occ. eigenvalues --   -0.59573  -0.58549  -0.58002  -0.56873  -0.56530
 Alpha  occ. eigenvalues --   -0.56476  -0.56345  -0.56189  -0.55881  -0.55468
 Alpha  occ. eigenvalues --   -0.55053  -0.54843  -0.54682  -0.53650  -0.53234
 Alpha  occ. eigenvalues --   -0.52378  -0.52308  -0.52124  -0.52043  -0.51867
 Alpha  occ. eigenvalues --   -0.51841  -0.51814  -0.50820  -0.50640  -0.50607
 Alpha  occ. eigenvalues --   -0.50574  -0.49897  -0.49077  -0.48004  -0.47723
 Alpha  occ. eigenvalues --   -0.47505  -0.47436  -0.47284  -0.47189  -0.46841
 Alpha  occ. eigenvalues --   -0.46247  -0.46122  -0.45811  -0.45568  -0.45440
 Alpha  occ. eigenvalues --   -0.45330  -0.44927  -0.43955  -0.43915  -0.43765
 Alpha  occ. eigenvalues --   -0.43638  -0.43559  -0.42980  -0.42869  -0.42728
 Alpha  occ. eigenvalues --   -0.42454  -0.41721  -0.40863  -0.39528  -0.37384
 Alpha  occ. eigenvalues --   -0.36799  -0.35687  -0.35474  -0.35309  -0.35083
 Alpha  occ. eigenvalues --   -0.35073  -0.35024  -0.34330  -0.34146  -0.33774
 Alpha  occ. eigenvalues --   -0.33431  -0.32936  -0.30256
 Alpha virt. eigenvalues --   -0.17061  -0.14390  -0.13528  -0.12941  -0.11803
 Alpha virt. eigenvalues --   -0.11569  -0.11322  -0.10850  -0.10287  -0.10128
 Alpha virt. eigenvalues --   -0.09895  -0.08824  -0.07194  -0.05949  -0.05802

 Mulliken charges:
               1
     1  P    0.421673
     2  P    0.357857
     3  C    0.001060
     4  C   -0.115760
     5  C    0.098494
     6  C   -0.134606
     7  C   -0.060414
     8  C   -0.211971
     9  H    0.142487
    10  H    0.122772
    11  H    0.127107
    12  H    0.143824
    13  C    0.000777
    14  C   -0.122103
    15  C    0.102888
    16  C   -0.140635
    17  C   -0.014605
    18  C   -0.290561
    19  H    0.155469
    20  H    0.128580
    21  H    0.124278
    22  H    0.162198
    23  C   -0.053781
    24  C   -0.122516
    25  C    0.091382
    26  C   -0.124936
    27  C   -0.043794
    28  C   -0.221897
    29  H    0.138410
    30  H    0.126693
    31  H    0.128817
    32  H    0.157900
    33  C    0.002358
    34  C   -0.140140
    35  C    0.094840
    36  C   -0.114086
    37  C   -0.045317
    38  C   -0.255801
    39  H    0.137571
    40  H    0.124717
    41  H    0.129710
    42  H    0.127404
    43  C   -0.504813
    44  Rh  -0.551455
    45  C   -0.013907
    46  C   -0.109952
    47  C   -0.043542
    48  C   -0.082590
    49  C   -0.358517
    50  H    0.180558
    51  H    0.219381
    52  C   -0.233164
    53  C   -0.346603
    54  H    0.207194
    55  C   -0.215732
    56  H    0.160676
    57  H    0.166681
    58  H    0.165605
    59  H    0.169719
    60  H    0.127295
    61  H    0.166099
    62  H    0.166664
    63  H    0.131815
    64  H    0.169414
    65  C   -0.050384
    66  H    0.158168
    67  H    0.153703
    68  C   -0.430135
    69  H    0.157924
    70  H    0.141014
    71  H    0.142889
    72  C   -0.435527
    73  H    0.153129
    74  H    0.143951
    75  H    0.141563
    76  C   -0.433948
    77  H    0.141905
    78  H    0.157866
    79  H    0.140852
    80  C   -0.431566
    81  H    0.142975
    82  H    0.157285
    83  H    0.141168
 Sum of Mulliken charges =   1.00000

 Dipole moment (field-independent basis, Debye):
    X=             -0.1687    Y=              0.0336    Z=             -0.4825  Tot=              0.5123
 Quadrupole moment (field-independent basis, Debye-Ang):
   XX=           -206.6332   YY=           -204.4642   ZZ=           -232.9822
   XY=             -1.3323   XZ=              2.1242   YZ=              1.7524

 Summary of Natural Population Analysis:

                                       Natural Population
                Natural  -----------------------------------------------
    Atom  No    Charge         Core      Valence    Rydberg      Total
 -----------------------------------------------------------------------
      P    1    1.12379      9.99621     3.82343    0.05657    13.87621
      P    2    1.10661      9.99631     3.84227    0.05481    13.89339
      C    3   -0.18490      1.99909     4.16812    0.01768     6.18490
      C    4   -0.19509      1.99911     4.18151    0.01447     6.19509
      C    5    0.01342      1.99914     3.97289    0.01455     5.98658
      C    6   -0.19428      1.99910     4.18179    0.01338     6.19428
      C    7   -0.18315      1.99909     4.16887    0.01519     6.18315
      C    8   -0.34871      1.99898     4.32611    0.02362     6.34871
      H    9    0.22022      0.00000     0.77734    0.00244     0.77978
      H   10    0.21523      0.00000     0.78315    0.00162     0.78477
      H   11    0.21644      0.00000     0.78216    0.00140     0.78356
      H   12    0.20953      0.00000     0.78864    0.00184     0.79047
      C   13   -0.18192      1.99911     4.16656    0.01626     6.18192
      C   14   -0.19557      1.99911     4.18274    0.01373     6.19557
      C   15    0.01729      1.99914     3.96900    0.01456     5.98271
      C   16   -0.19849      1.99910     4.18571    0.01368     6.19849
      C   17   -0.18378      1.99910     4.16875    0.01592     6.18378
      C   18   -0.35550      1.99898     4.33202    0.02450     6.35550
      H   19    0.22419      0.00000     0.77392    0.00188     0.77581
      H   20    0.21739      0.00000     0.78122    0.00140     0.78261
      H   21    0.21505      0.00000     0.78355    0.00141     0.78495
      H   22    0.21620      0.00000     0.78187    0.00192     0.78380
      C   23   -0.18884      1.99911     4.17377    0.01597     6.18884
      C   24   -0.19626      1.99911     4.18343    0.01373     6.19626
      C   25    0.01494      1.99914     3.97131    0.01461     5.98506
      C   26   -0.19502      1.99911     4.18211    0.01381     6.19502
      C   27   -0.18317      1.99911     4.16841    0.01566     6.18317
      C   28   -0.36008      1.99898     4.33709    0.02402     6.36008
      H   29    0.21544      0.00000     0.78263    0.00193     0.78456
      H   30    0.21594      0.00000     0.78267    0.00139     0.78406
      H   31    0.21735      0.00000     0.78126    0.00140     0.78265
      H   32    0.22346      0.00000     0.77472    0.00182     0.77654
      C   33   -0.16937      1.99910     4.15450    0.01577     6.16937
      C   34   -0.20015      1.99910     4.18733    0.01371     6.20015
      C   35    0.01967      1.99914     3.96670    0.01449     5.98033
      C   36   -0.19698      1.99910     4.18429    0.01359     6.19698
      C   37   -0.18146      1.99910     4.16580    0.01656     6.18146
      C   38   -0.35382      1.99898     4.33062    0.02422     6.35382
      H   39    0.21907      0.00000     0.77892    0.00201     0.78093
      H   40    0.21589      0.00000     0.78271    0.00140     0.78411
      H   41    0.21704      0.00000     0.78156    0.00139     0.78296
      H   42    0.21518      0.00000     0.78280    0.00202     0.78482
      C   43   -0.60346      1.99909     4.57550    0.02887     6.60346
     Rh   44   -0.37690     35.98572     9.36245    0.02873    45.37690
      C   45   -0.18871      1.99906     4.17018    0.01948     6.18871
      C   46   -0.14753      1.99907     4.12881    0.01966     6.14753
      C   47   -0.16722      1.99906     4.14855    0.01961     6.16722
      C   48   -0.16344      1.99907     4.14450    0.01988     6.16344
      C   49   -0.42203      1.99936     4.41096    0.01171     6.42203
      H   50    0.22488      0.00000     0.77323    0.00189     0.77512
      H   51    0.23201      0.00000     0.76606    0.00193     0.76799
      C   52   -0.41737      1.99935     4.40544    0.01258     6.41737
      C   53   -0.42483      1.99936     4.41361    0.01186     6.42483
      H   54    0.22896      0.00000     0.76890    0.00213     0.77104
      C   55   -0.41879      1.99935     4.40686    0.01257     6.41879
      H   56    0.22368      0.00000     0.77433    0.00199     0.77632
      H   57    0.22722      0.00000     0.77131    0.00148     0.77278
      H   58    0.21383      0.00000     0.78416    0.00201     0.78617
      H   59    0.23253      0.00000     0.76553    0.00194     0.76747
      H   60    0.21421      0.00000     0.78420    0.00158     0.78579
      H   61    0.21457      0.00000     0.78343    0.00200     0.78543
      H   62    0.22716      0.00000     0.77137    0.00147     0.77284
      H   63    0.21634      0.00000     0.78216    0.00151     0.78366
      H   64    0.23283      0.00000     0.76525    0.00192     0.76717
      C   65   -0.30440      1.99901     4.28934    0.01605     6.30440
      H   66    0.21514      0.00000     0.78219    0.00267     0.78486
      H   67    0.21201      0.00000     0.78531    0.00267     0.78799
      C   68   -0.61904      1.99941     4.61231    0.00732     6.61904
      H   69    0.22758      0.00000     0.77104    0.00138     0.77242
      H   70    0.22009      0.00000     0.77865    0.00126     0.77991
      H   71    0.22077      0.00000     0.77797    0.00125     0.77923
      C   72   -0.61834      1.99941     4.61168    0.00725     6.61834
      H   73    0.22546      0.00000     0.77318    0.00136     0.77454
      H   74    0.22260      0.00000     0.77611    0.00128     0.77740
      H   75    0.21834      0.00000     0.78040    0.00126     0.78166
      C   76   -0.61919      1.99941     4.61247    0.00731     6.61919
      H   77    0.22133      0.00000     0.77740    0.00127     0.77867
      H   78    0.22827      0.00000     0.77036    0.00137     0.77173
      H   79    0.21901      0.00000     0.77974    0.00125     0.78099
      C   80   -0.61878      1.99941     4.61206    0.00732     6.61878
      H   81    0.22021      0.00000     0.77855    0.00124     0.77979
      H   82    0.22740      0.00000     0.77122    0.00138     0.77260
      H   83    0.22076      0.00000     0.77798    0.00126     0.77924
 =======================================================================
   * Total *    1.00000    131.94578   211.24893    0.80529   344.00000

 Normal termination of Gaussian 16 at Sun Jan 19 21:19:37 2025.
