 Gaussian 16, Revision B.01,
 Gaussian 16:  ES64L-G16RevB.01 20-Dec-2017

 ------------------------------------------
 # nmr=giao b3lyp/genecp pop=nbo scfcyc=200
 ------------------------------------------

 ---------
 DS-13_SPE
 ---------
 Symbolic Z-matrix:
 Charge =  1 Multiplicity = 1

                         Standard orientation:
 ---------------------------------------------------------------------
 Center     Atomic      Atomic             Coordinates (Angstroms)
 Number     Number       Type             X           Y           Z
 ---------------------------------------------------------------------
      1         15           0       -1.389610   -0.154913   -0.101029
      2         15           0        1.455881   -0.314687    0.069821
      3          6           0       -0.022367   -1.421430   -0.719979
      4          6           0       -2.808530   -0.115016   -1.275389
      5          6           0       -3.899568   -0.982179   -1.141379
      6          6           0       -4.966718   -0.901291   -2.026579
      7          6           0       -4.959240    0.041379   -3.050309
      8          6           0       -3.879422    0.906661   -3.188689
      9          6           0       -2.808492    0.831094   -2.306699
     10          6           0       -2.110018   -0.774775    1.482681
     11          6           0       -1.526656   -1.741163    2.303611
     12          6           0       -2.105345   -2.068135    3.526111
     13          6           0       -3.261677   -1.426907    3.951741
     14          6           0       -3.842149   -0.450958    3.147391
     15          6           0       -3.272510   -0.124997    1.923711
     16          6           0        2.964261   -0.436424   -0.987449
     17          6           0        2.968030    0.256166   -2.208049
     18          6           0        4.095070    0.249529   -3.018869
     19          6           0        5.242481   -0.425979   -2.616479
     20          6           0        5.257702   -1.091189   -1.396299
     21          6           0        4.129332   -1.098571   -0.584149
     22          6           0        1.874312   -0.969706    1.742661
     23          6           0        2.476215   -2.209805    2.000001
     24          6           0        2.807596   -2.568134    3.300441
     25          6           0        2.547534   -1.703215    4.359791
     26          6           0        1.943151   -0.475946    4.116321
     27          6           0        1.607120   -0.112217    2.817781
     28          1           0       -3.923466   -1.715539   -0.348779
     29          1           0       -5.804877   -1.577513   -1.915709
     30          1           0       -5.793590    0.100787   -3.737819
     31          1           0       -3.867133    1.639242   -3.985649
     32          1           0       -1.963363    1.491836   -2.433269
     33          1           0       -0.620115   -2.252021    2.018431
     34          1           0       -1.646814   -2.831084    4.142071
     35          1           0       -3.710606   -1.686808    4.901901
     36          1           0       -4.745140    0.053610    3.467231
     37          1           0       -3.753041    0.622262    1.305041
     38          1           0        2.091248    0.798154   -2.533199
     39          1           0        4.076968    0.779709   -3.962569
     40          1           0        6.122871   -0.425727   -3.246519
     41          1           0        6.151394   -1.606827   -1.068489
     42          1           0        4.177574   -1.606781    0.365681
     43          1           0        2.661576   -2.909804    1.201721
     44          1           0        3.269258   -3.529973    3.484591
     45          1           0        2.811304   -1.988904    5.370381
     46          1           0        1.730060    0.199514    4.935101
     47          1           0        1.122298    0.837042    2.631561
     48         45           0        0.126537    1.625350    0.148721
     49          6           0       -1.243737    3.440687   -0.177089
     50          6           0       -1.238267    3.115387    1.162141
     51          6           0        1.671903    3.143854    0.923901
     52          6           0        1.652623    3.175223   -0.454029
     53          6           0       -0.468960    4.578639   -0.813909
     54          1           0       -2.057347    3.040305   -0.769749
     55          1           0       -2.056835    2.504025    1.527311
     56          6           0       -0.427858    3.772799    2.250971
     57          6           0        1.010851    4.153772    1.842981
     58          1           0        2.436845    2.527085    1.382661
     59          6           0        0.923131    4.161382   -1.331559
     60          1           0        2.417044    2.600655   -0.965639
     61          1           0       -1.048331    4.963978   -1.654399
     62          1           0       -0.382052    5.404279   -0.107999
     63          1           0       -0.959200    4.662348    2.611901
     64          1           0       -0.393337    3.086489    3.099811
     65          1           0        1.024859    5.137402    1.374211
     66          1           0        1.614161    4.245643    2.747531
     67          1           0        0.815922    3.709412   -2.320089
     68          1           0        1.548499    5.051033   -1.477539
     69          6           0       -0.119954   -2.894580   -0.370899
     70          6           0        0.129023   -1.238970   -2.224199
     71          8           0        0.716598   -3.560099    0.133001
     72          8           0       -0.110149   -0.236050   -2.812069
     73         17           0       -1.710962   -3.631264   -0.819609
     74         17           0        0.833336   -2.640578   -3.097619
 ---------------------------------------------------------------------

 SCF Done:  E(RB3LYP) =  -3217.55091091     A.U. after   16 cycles

      1  P    Isotropic =   244.7509   Anisotropy =    88.9162

      2  P    Isotropic =   225.9900   Anisotropy =   180.4065

      3  C    Isotropic =    65.9146   Anisotropy =    43.3185

      4  C    Isotropic =    51.6524   Anisotropy =   157.1120

      5  C    Isotropic =    41.9956   Anisotropy =   196.3012

      6  C    Isotropic =    49.4591   Anisotropy =   187.7495

      7  C    Isotropic =    42.8633   Anisotropy =   200.0132

      8  C    Isotropic =    50.7134   Anisotropy =   185.2763

      9  C    Isotropic =    37.3489   Anisotropy =   191.4697

     10  C    Isotropic =    47.2325   Anisotropy =   158.3982

     11  C    Isotropic =    48.5664   Anisotropy =   188.4212

     12  C    Isotropic =    49.7417   Anisotropy =   190.0861

     13  C    Isotropic =    46.5982   Anisotropy =   197.6074

     14  C    Isotropic =    49.2316   Anisotropy =   190.1811

     15  C    Isotropic =    47.0585   Anisotropy =   189.3761

     16  C    Isotropic =    50.1310   Anisotropy =   155.7522

     17  C    Isotropic =    43.2466   Anisotropy =   188.7600

     18  C    Isotropic =    48.6567   Anisotropy =   189.0892

     19  C    Isotropic =    44.0890   Anisotropy =   200.3329

     20  C    Isotropic =    48.7272   Anisotropy =   189.3274

     21  C    Isotropic =    45.0320   Anisotropy =   193.1392

     22  C    Isotropic =    52.3766   Anisotropy =   154.2556

     23  C    Isotropic =    39.4800   Anisotropy =   196.7525

     24  C    Isotropic =    49.1091   Anisotropy =   188.7733

     25  C    Isotropic =    42.7746   Anisotropy =   202.2074

     26  C    Isotropic =    49.4742   Anisotropy =   188.1251

     27  C    Isotropic =    37.1336   Anisotropy =   180.8984

     28  H    Isotropic =    24.3274   Anisotropy =    11.5447

     29  H    Isotropic =    24.2984   Anisotropy =     6.7908

     30  H    Isotropic =    23.9447   Anisotropy =     3.8537

     31  H    Isotropic =    24.0039   Anisotropy =     7.0053

     32  H    Isotropic =    23.1892   Anisotropy =     9.7458

     33  H    Isotropic =    25.5149   Anisotropy =     5.7660

     34  H    Isotropic =    24.8186   Anisotropy =     7.7301

     35  H    Isotropic =    24.2375   Anisotropy =     3.8205

     36  H    Isotropic =    24.2957   Anisotropy =     6.2168

     37  H    Isotropic =    24.8753   Anisotropy =    11.1346

     38  H    Isotropic =    23.9082   Anisotropy =     9.0611

     39  H    Isotropic =    23.9880   Anisotropy =     7.4610

     40  H    Isotropic =    23.9751   Anisotropy =     4.2474

     41  H    Isotropic =    24.1356   Anisotropy =     6.5643

     42  H    Isotropic =    23.7957   Anisotropy =    12.7506

     43  H    Isotropic =    22.6790   Anisotropy =    10.2268

     44  H    Isotropic =    23.7307   Anisotropy =     5.5223

     45  H    Isotropic =    23.8172   Anisotropy =     3.7441

     46  H    Isotropic =    24.2567   Anisotropy =     7.2183

     47  H    Isotropic =    22.8595   Anisotropy =     9.4132

     48  Rh   Isotropic =  -309.6883   Anisotropy =   350.1312

     49  C    Isotropic =    77.0689   Anisotropy =   123.8369

     50  C    Isotropic =    71.8419   Anisotropy =   124.0325

     51  C    Isotropic =    78.2808   Anisotropy =   123.7302

     52  C    Isotropic =    70.8125   Anisotropy =   125.6083

     53  C    Isotropic =   154.3740   Anisotropy =    24.3326

     54  H    Isotropic =    26.5770   Anisotropy =     5.9005

     55  H    Isotropic =    26.4846   Anisotropy =     3.9435

     56  C    Isotropic =   147.2218   Anisotropy =    29.0155

     57  C    Isotropic =   154.1704   Anisotropy =    25.1978

     58  H    Isotropic =    27.3609   Anisotropy =     5.5539

     59  C    Isotropic =   148.3187   Anisotropy =    28.1206

     60  H    Isotropic =    26.5833   Anisotropy =     4.4478

     61  H    Isotropic =    29.5582   Anisotropy =    11.4518

     62  H    Isotropic =    29.6107   Anisotropy =     9.6483

     63  H    Isotropic =    29.2045   Anisotropy =    12.6650

     64  H    Isotropic =    29.3597   Anisotropy =     7.1435

     65  H    Isotropic =    29.7095   Anisotropy =     9.9446

     66  H    Isotropic =    29.9206   Anisotropy =    11.4898

     67  H    Isotropic =    28.6352   Anisotropy =     7.3554

     68  H    Isotropic =    29.0516   Anisotropy =    12.7243

     69  C    Isotropic =     3.7675   Anisotropy =    89.6150

     70  C    Isotropic =     0.6573   Anisotropy =    85.5381

     71  O    Isotropic =  -273.7800   Anisotropy =   719.6443

     72  O    Isotropic =  -264.3844   Anisotropy =   740.4054

     73  Cl   Isotropic =   366.2393   Anisotropy =   765.9656

     74  Cl   Isotropic =   335.2879   Anisotropy =   777.5364

 The electronic state is 1-A.
 Alpha  occ. eigenvalues -- -101.66625-101.66004 -77.26591 -77.26295 -19.27037
 Alpha  occ. eigenvalues --  -19.26942 -10.44689 -10.44187 -10.36844 -10.30960
 Alpha  occ. eigenvalues --  -10.30808 -10.30781 -10.30203 -10.30068 -10.29838
 Alpha  occ. eigenvalues --  -10.29712 -10.29588 -10.29303 -10.29038 -10.29006
 Alpha  occ. eigenvalues --  -10.28941 -10.28939 -10.28859 -10.28624 -10.28618
 Alpha  occ. eigenvalues --  -10.28531 -10.28372 -10.28347 -10.28283 -10.28179
 Alpha  occ. eigenvalues --  -10.28136 -10.28134 -10.28068 -10.28049 -10.28013
 Alpha  occ. eigenvalues --  -10.27990 -10.27966 -10.27940 -10.27910 -10.27648
 Alpha  occ. eigenvalues --  -10.27608  -9.57551  -9.56948  -7.33898  -7.33280
 Alpha  occ. eigenvalues --   -7.33024  -7.32889  -7.32421  -7.32299  -6.72334
 Alpha  occ. eigenvalues --   -6.72081  -4.88698  -4.88509  -4.88447  -4.88260
 Alpha  occ. eigenvalues --   -4.88219  -4.87958  -3.32661  -2.09584  -2.08981
 Alpha  occ. eigenvalues --   -2.06010  -1.21707  -1.21337  -0.98070  -0.97464
 Alpha  occ. eigenvalues --   -0.97158  -0.96819  -0.96523  -0.95261  -0.94968
 Alpha  occ. eigenvalues --   -0.91244  -0.90012  -0.88802  -0.88138  -0.87054
 Alpha  occ. eigenvalues --   -0.86232  -0.86064  -0.85896  -0.85625  -0.85596
 Alpha  occ. eigenvalues --   -0.85288  -0.81160  -0.78616  -0.77308  -0.76789
 Alpha  occ. eigenvalues --   -0.72521  -0.72278  -0.71852  -0.71519  -0.71369
 Alpha  occ. eigenvalues --   -0.71227  -0.70981  -0.70742  -0.69573  -0.67983
 Alpha  occ. eigenvalues --   -0.66637  -0.64478  -0.63509  -0.63409  -0.62803
 Alpha  occ. eigenvalues --   -0.62460  -0.61751  -0.61236  -0.60763  -0.59313
 Alpha  occ. eigenvalues --   -0.59207  -0.57958  -0.57856  -0.57085  -0.57036
 Alpha  occ. eigenvalues --   -0.56987  -0.56600  -0.56573  -0.56102  -0.55950
 Alpha  occ. eigenvalues --   -0.55883  -0.55402  -0.54676  -0.54439  -0.54064
 Alpha  occ. eigenvalues --   -0.53509  -0.53485  -0.53409  -0.53135  -0.52839
 Alpha  occ. eigenvalues --   -0.52830  -0.52130  -0.51852  -0.49914  -0.49334
 Alpha  occ. eigenvalues --   -0.49110  -0.48752  -0.48277  -0.48005  -0.47888
 Alpha  occ. eigenvalues --   -0.47124  -0.47016  -0.46752  -0.46306  -0.45984
 Alpha  occ. eigenvalues --   -0.45612  -0.45527  -0.45286  -0.45037  -0.44579
 Alpha  occ. eigenvalues --   -0.44271  -0.44128  -0.43760  -0.43707  -0.43071
 Alpha  occ. eigenvalues --   -0.42713  -0.42430  -0.42062  -0.41472  -0.40228
 Alpha  occ. eigenvalues --   -0.38884  -0.38458  -0.37676  -0.37101  -0.36971
 Alpha  occ. eigenvalues --   -0.36825  -0.36433  -0.36292  -0.36191  -0.35891
 Alpha  occ. eigenvalues --   -0.35654  -0.35104  -0.34710  -0.31653
 Alpha virt. eigenvalues --   -0.18198  -0.17587  -0.16568  -0.15879  -0.15056
 Alpha virt. eigenvalues --   -0.13606  -0.13378  -0.12648  -0.12379  -0.11856
 Alpha virt. eigenvalues --   -0.11782  -0.10918  -0.10152  -0.10064  -0.08719

 Mulliken charges:
               1
     1  P    0.346449
     2  P    0.253395
     3  C   -0.408956
     4  C   -0.235463
     5  C   -0.078883
     6  C   -0.096205
     7  C   -0.084565
     8  C   -0.105537
     9  C   -0.012490
    10  C   -0.062763
    11  C   -0.027306
    12  C   -0.132453
    13  C   -0.100272
    14  C   -0.080721
    15  C   -0.183826
    16  C   -0.163389
    17  C   -0.073337
    18  C   -0.117575
    19  C   -0.072360
    20  C   -0.132420
    21  C    0.000415
    22  C   -0.291882
    23  C   -0.064399
    24  C   -0.098530
    25  C   -0.077315
    26  C   -0.144183
    27  C    0.018301
    28  H    0.169980
    29  H    0.138256
    30  H    0.140431
    31  H    0.132811
    32  H    0.199755
    33  H    0.175928
    34  H    0.133891
    35  H    0.138508
    36  H    0.136956
    37  H    0.177484
    38  H    0.225001
    39  H    0.136655
    40  H    0.141554
    41  H    0.136472
    42  H    0.171864
    43  H    0.202475
    44  H    0.142570
    45  H    0.141323
    46  H    0.130866
    47  H    0.187243
    48  Rh  -0.619040
    49  C   -0.041930
    50  C   -0.107045
    51  C   -0.054895
    52  C   -0.083329
    53  C   -0.344367
    54  H    0.212511
    55  H    0.196168
    56  C   -0.219597
    57  C   -0.365678
    58  H    0.207354
    59  C   -0.235495
    60  H    0.224606
    61  H    0.171183
    62  H    0.168498
    63  H    0.177768
    64  H    0.138673
    65  H    0.170260
    66  H    0.171164
    67  H    0.133542
    68  H    0.176988
    69  C    0.197310
    70  C    0.164268
    71  O   -0.161806
    72  O   -0.185127
    73  Cl  -0.027251
    74  Cl   0.001511
 Sum of Mulliken charges =   1.00000

 Dipole moment (field-independent basis, Debye):
    X=              0.3325    Y=              4.1674    Z=              3.0227  Tot=              5.1590
 Quadrupole moment (field-independent basis, Debye-Ang):
   XX=           -220.1508   YY=           -251.9758   ZZ=           -238.2340
   XY=             -4.8805   XZ=             -0.3465   YZ=            -10.7573

 Summary of Natural Population Analysis:

                                       Natural Population
                Natural  -----------------------------------------------
    Atom  No    Charge         Core      Valence    Rydberg      Total
 -----------------------------------------------------------------------
      P    1    1.15563      9.99631     3.79299    0.05507    13.84437
      P    2    1.14145      9.99633     3.80674    0.05548    13.85855
      C    3   -0.72651      1.99896     4.69142    0.03613     6.72651
      C    4   -0.37525      1.99896     4.34979    0.02651     6.37525
      C    5   -0.17372      1.99910     4.15740    0.01722     6.17372
      C    6   -0.19781      1.99919     4.18361    0.01501     6.19781
      C    7   -0.16101      1.99921     4.14750    0.01431     6.16101
      C    8   -0.20095      1.99919     4.18684    0.01492     6.20095
      C    9   -0.16968      1.99910     4.15305    0.01754     6.16968
      C   10   -0.35055      1.99896     4.32740    0.02420     6.35055
      C   11   -0.19217      1.99908     4.17628    0.01682     6.19217
      C   12   -0.18645      1.99920     4.17190    0.01535     6.18645
      C   13   -0.17756      1.99920     4.16374    0.01462     6.17756
      C   14   -0.19078      1.99919     4.17701    0.01458     6.19078
      C   15   -0.20093      1.99909     4.18661    0.01522     6.20093
      C   16   -0.37191      1.99896     4.34732    0.02563     6.37191
      C   17   -0.19242      1.99911     4.17615    0.01717     6.19242
      C   18   -0.19241      1.99919     4.17818    0.01503     6.19241
      C   19   -0.16395      1.99920     4.15036    0.01438     6.16395
      C   20   -0.18940      1.99920     4.17569    0.01452     6.18940
      C   21   -0.17869      1.99910     4.16369    0.01589     6.17869
      C   22   -0.37165      1.99895     4.34768    0.02502     6.37165
      C   23   -0.18496      1.99910     4.16859    0.01727     6.18496
      C   24   -0.19706      1.99919     4.18337    0.01450     6.19706
      C   25   -0.16237      1.99920     4.14881    0.01435     6.16237
      C   26   -0.20154      1.99918     4.18753    0.01483     6.20154
      C   27   -0.16823      1.99910     4.15215    0.01698     6.16823
      H   28    0.22787      0.00000     0.77000    0.00213     0.77213
      H   29    0.22504      0.00000     0.77370    0.00126     0.77496
      H   30    0.22418      0.00000     0.77471    0.00111     0.77582
      H   31    0.22322      0.00000     0.77552    0.00126     0.77678
      H   32    0.22684      0.00000     0.77096    0.00219     0.77316
      H   33    0.21706      0.00000     0.78012    0.00283     0.78294
      H   34    0.22417      0.00000     0.77445    0.00137     0.77583
      H   35    0.22441      0.00000     0.77446    0.00112     0.77559
      H   36    0.22427      0.00000     0.77451    0.00122     0.77573
      H   37    0.22068      0.00000     0.77753    0.00179     0.77932
      H   38    0.22817      0.00000     0.76932    0.00250     0.77183
      H   39    0.22477      0.00000     0.77397    0.00125     0.77523
      H   40    0.22513      0.00000     0.77375    0.00112     0.77487
      H   41    0.22499      0.00000     0.77381    0.00120     0.77501
      H   42    0.22383      0.00000     0.77414    0.00203     0.77617
      H   43    0.23840      0.00000     0.75935    0.00225     0.76160
      H   44    0.22692      0.00000     0.77189    0.00120     0.77308
      H   45    0.22467      0.00000     0.77420    0.00113     0.77533
      H   46    0.22268      0.00000     0.77603    0.00129     0.77732
      H   47    0.22533      0.00000     0.77182    0.00285     0.77467
     Rh   48   -0.38615     35.98519     9.37315    0.02782    45.38615
      C   49   -0.18107      1.99907     4.16246    0.01954     6.18107
      C   50   -0.15094      1.99908     4.13201    0.01985     6.15094
      C   51   -0.17488      1.99907     4.15630    0.01951     6.17488
      C   52   -0.15709      1.99908     4.13839    0.01962     6.15709
      C   53   -0.42312      1.99936     4.41203    0.01174     6.42312
      H   54    0.22963      0.00000     0.76821    0.00217     0.77037
      H   55    0.22797      0.00000     0.76989    0.00214     0.77203
      C   56   -0.41879      1.99935     4.40692    0.01252     6.41879
      C   57   -0.42523      1.99936     4.41398    0.01190     6.42523
      H   58    0.22763      0.00000     0.77038    0.00200     0.77237
      C   59   -0.41826      1.99935     4.40637    0.01254     6.41826
      H   60    0.23275      0.00000     0.76511    0.00214     0.76725
      H   61    0.22995      0.00000     0.76856    0.00149     0.77005
      H   62    0.21620      0.00000     0.78183    0.00197     0.78380
      H   63    0.23691      0.00000     0.76122    0.00187     0.76309
      H   64    0.21609      0.00000     0.78239    0.00152     0.78391
      H   65    0.21769      0.00000     0.78036    0.00195     0.78231
      H   66    0.22968      0.00000     0.76886    0.00147     0.77032
      H   67    0.21882      0.00000     0.77959    0.00158     0.78118
      H   68    0.23646      0.00000     0.76166    0.00187     0.76354
      C   69    0.53248      1.99909     3.41553    0.05291     5.46752
      C   70    0.53088      1.99906     3.41723    0.05283     5.46912
      O   71   -0.45670      1.99973     6.44068    0.01629     8.45670
      O   72   -0.46609      1.99973     6.45051    0.01585     8.46609
     Cl   73   -0.04409      9.99962     7.03189    0.01258    17.04409
     Cl   74   -0.00250      9.99960     6.99011    0.01279    17.00250
 =======================================================================
   * Total *    1.00000    149.94627   215.12165    0.93208   366.00000

 Normal termination of Gaussian 16 at Sun Jan 19 21:19:27 2025.
