 Gaussian 16, Revision B.01,
 Gaussian 16:  ES64L-G16RevB.01 20-Dec-2017

 ------------------------------------------
 # nmr=giao b3lyp/genecp pop=nbo scfcyc=200
 ------------------------------------------

 ---------
 DS-17_SPE
 ---------
 Symbolic Z-matrix:
 Charge =  1 Multiplicity = 1

                         Standard orientation:
 ---------------------------------------------------------------------
 Center     Atomic      Atomic             Coordinates (Angstroms)
 Number     Number       Type             X           Y           Z
 ---------------------------------------------------------------------
      1         15           0        0.424898   -0.916340    0.616160
      2         15           0       -0.920138    1.406192   -0.328220
      3          6           0        1.245314    2.695449   -1.149870
      4          6           0       -0.157756    2.753171   -1.297590
      5          6           0        0.029537    4.753571   -2.605060
      6          6           0        2.026316    3.696398   -1.733220
      7          6           0        1.414947    4.712429   -2.459840
      8          1           0       -0.431242    5.550231   -3.175070
      9          1           0        3.100836    3.689886   -1.610800
     10          1           0        2.023918    5.485418   -2.911330
     11         45           0       -1.487731   -0.852097   -0.839930
     12          6           0       -3.489511   -0.614154   -1.882570
     13          6           0       -2.474221   -0.539835   -2.817460
     14          6           0       -1.478875   -2.985797   -1.592630
     15          6           0       -2.324305   -2.885796   -0.502270
     16          1           0       -3.871350    0.325937   -1.499230
     17          6           0       -4.368613   -1.825612   -1.635880
     18          1           0       -2.151469    0.450814   -3.121750
     19          6           0       -1.996923   -1.652216   -3.719040
     20          6           0       -1.922995   -3.039036   -3.043140
     21          1           0       -0.470455   -3.332839   -1.399680
     22          1           0       -1.923485   -3.184826    0.460820
     23          6           0       -3.827884   -2.757583   -0.530360
     24          1           0       -4.504114   -2.377112   -2.566130
     25          1           0       -5.362442   -1.482051   -1.344480
     26          1           0       -2.636283   -1.705715   -4.609190
     27          1           0       -1.004222   -1.378718   -4.082810
     28          1           0       -1.216996   -3.657567   -3.599610
     29          1           0       -2.884836   -3.547245   -3.112330
     30          1           0       -4.280356   -3.752573   -0.626440
     31          1           0       -4.145924   -2.380363    0.444060
     32          6           0       -0.765884    3.776192   -2.011510
     33          1           0       -1.843794    3.822844   -2.107640
     34          6           0        1.736732    1.552648   -0.342620
     35          6           0        0.729021    0.845760    0.242390
     36          6           0        0.166148   -1.079469    2.429090
     37          6           0       -0.271654   -2.303349    2.949280
     38          6           0        0.354620    0.001400    3.292190
     39          6           0       -0.501004   -2.444088    4.311610
     40          1           0       -0.418105   -3.156469    2.297420
     41          6           0        0.116330   -0.141809    4.655970
     42          1           0        0.682121    0.956170    2.901850
     43          6           0       -0.309732   -1.361939    5.167410
     44          1           0       -0.831205   -3.397058    4.705630
     45          1           0        0.266171    0.702360    5.317290
     46          1           0       -0.492222   -1.471988    6.228910
     47          6           0        1.868627   -1.975442    0.196880
     48          6           0        2.138146   -2.219183   -1.154380
     49          6           0        2.677146   -2.560843    1.173830
     50          6           0        3.203625   -3.030654   -1.521200
     51          1           0        1.514577   -1.771122   -1.918980
     52          6           0        3.737585   -3.380275    0.801340
     53          1           0        2.484706   -2.381803    2.222920
     54          6           0        4.002074   -3.616875   -0.542960
     55          1           0        3.407555   -3.211104   -2.569230
     56          1           0        4.357794   -3.832596    1.564980
     57          1           0        4.827293   -4.256927   -0.828800
     58          6           0        3.174542    1.228656   -0.252770
     59          6           0        3.765831    1.010675    0.997500
     60          6           0        3.977612    1.152325   -1.399190
     61          6           0        5.123141    0.733123    1.100170
     62          1           0        3.161782    1.086266    1.892650
     63          6           0        5.330701    0.859423   -1.294760
     64          1           0        3.536812    1.302945   -2.376530
     65          6           0        5.908741    0.655532   -0.044850
     66          1           0        5.568611    0.583122    2.075630
     67          1           0        5.936521    0.793332   -2.189860
     68          1           0        6.966881    0.440530    0.035430
     69          6           0       -1.872687    2.223364    1.019320
     70          6           0       -2.993468    1.572925    1.540610
     71          6           0       -1.485645    3.461303    1.544320
     72          6           0       -3.718987    2.150927    2.577440
     73          1           0       -3.292469    0.612816    1.138020
     74          6           0       -2.214404    4.034234    2.578730
     75          1           0       -0.623814    3.980722    1.145670
     76          6           0       -3.331305    3.381276    3.095460
     77          1           0       -4.587468    1.641918    2.976120
     78          1           0       -1.913132    4.993974    2.979580
     79          1           0       -3.898994    3.834447    3.898450
 ---------------------------------------------------------------------

 SCF Done:  E(RB3LYP) =  -2339.62846375     A.U. after   16 cycles

      1  P    Isotropic =   263.3640   Anisotropy =    89.3244

      2  P    Isotropic =   283.3324   Anisotropy =    99.7136

      3  C    Isotropic =    28.5743   Anisotropy =   170.1479

      4  C    Isotropic =    34.7952   Anisotropy =   171.4877

      5  C    Isotropic =    48.1678   Anisotropy =   189.6074

      6  C    Isotropic =    50.6653   Anisotropy =   185.1091

      7  C    Isotropic =    46.6556   Anisotropy =   194.6156

      8  H    Isotropic =    24.0173   Anisotropy =     5.1340

      9  H    Isotropic =    23.9379   Anisotropy =    11.6897

     10  H    Isotropic =    23.9495   Anisotropy =     5.0364

     11  Rh   Isotropic =  -317.6265   Anisotropy =   354.9788

     12  C    Isotropic =    82.6446   Anisotropy =   116.7042

     13  C    Isotropic =    76.6205   Anisotropy =   117.0365

     14  C    Isotropic =    77.3277   Anisotropy =   123.3917

     15  C    Isotropic =    78.7787   Anisotropy =   111.6151

     16  H    Isotropic =    26.6509   Anisotropy =     6.8902

     17  C    Isotropic =   154.0254   Anisotropy =    25.1764

     18  H    Isotropic =    26.1890   Anisotropy =     5.3042

     19  C    Isotropic =   146.6139   Anisotropy =    30.3048

     20  C    Isotropic =   154.0475   Anisotropy =    25.3736

     21  H    Isotropic =    27.1559   Anisotropy =     4.7641

     22  H    Isotropic =    26.1970   Anisotropy =     5.3991

     23  C    Isotropic =   146.9935   Anisotropy =    30.8187

     24  H    Isotropic =    29.7464   Anisotropy =     9.7475

     25  H    Isotropic =    29.7299   Anisotropy =    11.7644

     26  H    Isotropic =    29.0790   Anisotropy =    12.8922

     27  H    Isotropic =    29.1267   Anisotropy =     7.3019

     28  H    Isotropic =    29.8919   Anisotropy =    11.1705

     29  H    Isotropic =    29.8104   Anisotropy =     9.9095

     30  H    Isotropic =    29.0515   Anisotropy =    12.8016

     31  H    Isotropic =    29.0178   Anisotropy =     7.7918

     32  C    Isotropic =    47.5689   Anisotropy =   187.5369

     33  H    Isotropic =    24.0347   Anisotropy =    10.5892

     34  C    Isotropic =    17.8040   Anisotropy =   145.5588

     35  C    Isotropic =    44.3825   Anisotropy =   103.0435

     36  C    Isotropic =    47.2464   Anisotropy =   170.3444

     37  C    Isotropic =    47.1165   Anisotropy =   189.0442

     38  C    Isotropic =    46.5941   Anisotropy =   187.0183

     39  C    Isotropic =    49.3512   Anisotropy =   190.2241

     40  H    Isotropic =    24.4953   Anisotropy =    10.6909

     41  C    Isotropic =    48.9107   Anisotropy =   190.6850

     42  H    Isotropic =    24.4007   Anisotropy =     9.5401

     43  C    Isotropic =    46.2006   Anisotropy =   197.2684

     44  H    Isotropic =    24.1534   Anisotropy =     5.8570

     45  H    Isotropic =    24.5710   Anisotropy =     7.0218

     46  H    Isotropic =    24.1672   Anisotropy =     3.3826

     47  C    Isotropic =    49.5527   Anisotropy =   168.1568

     48  C    Isotropic =    44.1392   Anisotropy =   190.6721

     49  C    Isotropic =    45.5225   Anisotropy =   197.4982

     50  C    Isotropic =    50.1800   Anisotropy =   189.8206

     51  H    Isotropic =    24.1547   Anisotropy =     9.1866

     52  C    Isotropic =    49.4050   Anisotropy =   191.3221

     53  H    Isotropic =    25.1185   Anisotropy =    12.1899

     54  C    Isotropic =    46.0165   Anisotropy =   198.5106

     55  H    Isotropic =    24.5422   Anisotropy =     6.4521

     56  H    Isotropic =    24.6967   Anisotropy =     5.9724

     57  H    Isotropic =    24.4839   Anisotropy =     2.9083

     58  C    Isotropic =    45.0392   Anisotropy =   180.0682

     59  C    Isotropic =    48.7775   Anisotropy =   174.2264

     60  C    Isotropic =    49.3247   Anisotropy =   186.0191

     61  C    Isotropic =    49.5473   Anisotropy =   192.3605

     62  H    Isotropic =    24.6197   Anisotropy =     9.4208

     63  C    Isotropic =    50.1283   Anisotropy =   191.8466

     64  H    Isotropic =    24.5207   Anisotropy =     9.4041

     65  C    Isotropic =    46.6674   Anisotropy =   197.8722

     66  H    Isotropic =    24.6812   Anisotropy =     6.6564

     67  H    Isotropic =    24.4624   Anisotropy =     4.9736

     68  H    Isotropic =    24.4475   Anisotropy =     3.1887

     69  C    Isotropic =    45.8888   Anisotropy =   163.4048

     70  C    Isotropic =    40.5620   Anisotropy =   182.4010

     71  C    Isotropic =    47.1632   Anisotropy =   186.0477

     72  C    Isotropic =    49.6350   Anisotropy =   187.8793

     73  H    Isotropic =    23.5306   Anisotropy =     9.3988

     74  C    Isotropic =    48.7078   Anisotropy =   188.9469

     75  H    Isotropic =    25.1806   Anisotropy =    13.9306

     76  C    Isotropic =    45.1878   Anisotropy =   198.5263

     77  H    Isotropic =    24.3708   Anisotropy =     6.6886

     78  H    Isotropic =    24.4081   Anisotropy =     6.6990

     79  H    Isotropic =    24.1669   Anisotropy =     3.2718

 The electronic state is 1-A.
 Alpha  occ. eigenvalues --  -77.23837 -77.22933 -10.31230 -10.29648 -10.29413
 Alpha  occ. eigenvalues --  -10.29375 -10.29366 -10.29303 -10.29175 -10.29093
 Alpha  occ. eigenvalues --  -10.29046 -10.28830 -10.28679 -10.28498 -10.28327
 Alpha  occ. eigenvalues --  -10.28137 -10.28020 -10.27946 -10.27936 -10.27919
 Alpha  occ. eigenvalues --  -10.27914 -10.27798 -10.27727 -10.27720 -10.27426
 Alpha  occ. eigenvalues --  -10.27413 -10.27368 -10.27356 -10.27286 -10.27242
 Alpha  occ. eigenvalues --  -10.27228 -10.27227 -10.27212 -10.27212 -10.27156
 Alpha  occ. eigenvalues --  -10.27153 -10.27021 -10.26927 -10.26915 -10.26457
 Alpha  occ. eigenvalues --  -10.26403 -10.26362  -6.69752  -6.69030  -4.86045
 Alpha  occ. eigenvalues --   -4.85963  -4.85671  -4.85295  -4.85232  -4.84946
 Alpha  occ. eigenvalues --   -3.31673  -2.08547  -2.07909  -2.05164  -0.98743
 Alpha  occ. eigenvalues --   -0.96433  -0.96069  -0.95761  -0.95449  -0.94360
 Alpha  occ. eigenvalues --   -0.92368  -0.89058  -0.87913  -0.87678  -0.87205
 Alpha  occ. eigenvalues --   -0.85136  -0.85051  -0.84942  -0.84877  -0.84815
 Alpha  occ. eigenvalues --   -0.84547  -0.84056  -0.82832  -0.80246  -0.77894
 Alpha  occ. eigenvalues --   -0.77702  -0.75800  -0.71613  -0.71342  -0.70886
 Alpha  occ. eigenvalues --   -0.70761  -0.70621  -0.70455  -0.70150  -0.69891
 Alpha  occ. eigenvalues --   -0.69541  -0.67555  -0.66833  -0.65803  -0.64305
 Alpha  occ. eigenvalues --   -0.62419  -0.62344  -0.62028  -0.61411  -0.60242
 Alpha  occ. eigenvalues --   -0.59950  -0.58098  -0.56971  -0.56925  -0.56603
 Alpha  occ. eigenvalues --   -0.56230  -0.55828  -0.55638  -0.55548  -0.55260
 Alpha  occ. eigenvalues --   -0.55069  -0.54765  -0.54574  -0.53901  -0.53521
 Alpha  occ. eigenvalues --   -0.53355  -0.52719  -0.52641  -0.52474  -0.52428
 Alpha  occ. eigenvalues --   -0.52283  -0.51897  -0.51664  -0.51384  -0.51127
 Alpha  occ. eigenvalues --   -0.48986  -0.48567  -0.48344  -0.47986  -0.47717
 Alpha  occ. eigenvalues --   -0.47426  -0.47055  -0.46426  -0.46290  -0.46129
 Alpha  occ. eigenvalues --   -0.45846  -0.45729  -0.45131  -0.44871  -0.44750
 Alpha  occ. eigenvalues --   -0.44541  -0.44175  -0.44052  -0.43494  -0.43330
 Alpha  occ. eigenvalues --   -0.43219  -0.42936  -0.42297  -0.41343  -0.40571
 Alpha  occ. eigenvalues --   -0.38189  -0.37549  -0.36794  -0.36488  -0.36091
 Alpha  occ. eigenvalues --   -0.35942  -0.35661  -0.35525  -0.35186  -0.34738
 Alpha  occ. eigenvalues --   -0.34698  -0.34432  -0.34180  -0.33692  -0.32889
 Alpha  occ. eigenvalues --   -0.30670
 Alpha virt. eigenvalues --   -0.18074  -0.15299  -0.14534  -0.13588  -0.13032
 Alpha virt. eigenvalues --   -0.12484  -0.11946  -0.11372  -0.10789  -0.10691
 Alpha virt. eigenvalues --   -0.10260  -0.09717  -0.09089  -0.07841  -0.06464

 Mulliken charges:
               1
     1  P    0.422566
     2  P    0.406205
     3  C   -0.001023
     4  C   -0.200161
     5  C   -0.087201
     6  C   -0.115565
     7  C   -0.080690
     8  H    0.133991
     9  H    0.174489
    10  H    0.135863
    11  Rh  -0.652249
    12  C   -0.020835
    13  C   -0.089960
    14  C   -0.046054
    15  C   -0.073103
    16  H    0.188720
    17  C   -0.354638
    18  H    0.184144
    19  C   -0.224946
    20  C   -0.356797
    21  H    0.224145
    22  H    0.165822
    23  C   -0.227680
    24  H    0.167342
    25  H    0.169503
    26  H    0.170436
    27  H    0.130277
    28  H    0.168861
    29  H    0.166867
    30  H    0.170292
    31  H    0.133993
    32  C   -0.001088
    33  H    0.134053
    34  C   -0.004410
    35  C   -0.298460
    36  C   -0.236791
    37  C   -0.087889
    38  C   -0.017163
    39  C   -0.092533
    40  H    0.151288
    41  C   -0.099970
    42  H    0.161872
    43  C   -0.094645
    44  H    0.132625
    45  H    0.131900
    46  H    0.136421
    47  C   -0.214146
    48  C   -0.073563
    49  C   -0.033129
    50  C   -0.092916
    51  H    0.174341
    52  C   -0.092239
    53  H    0.159618
    54  C   -0.092896
    55  H    0.127733
    56  H    0.131740
    57  H    0.134937
    58  C   -0.059753
    59  C   -0.093549
    60  C   -0.163265
    61  C   -0.101159
    62  H    0.120256
    63  C   -0.084799
    64  H    0.152227
    65  C   -0.095553
    66  H    0.123855
    67  H    0.126078
    68  H    0.133166
    69  C   -0.298707
    70  C    0.014765
    71  C   -0.023134
    72  C   -0.126557
    73  H    0.171267
    74  C   -0.099753
    75  H    0.160805
    76  C   -0.086199
    77  H    0.129784
    78  H    0.134648
    79  H    0.138278
 Sum of Mulliken charges =   1.00000

 Dipole moment (field-independent basis, Debye):
    X=             -0.6018    Y=             -0.3092    Z=             -0.2468  Tot=              0.7201
 Quadrupole moment (field-independent basis, Debye-Ang):
   XX=           -218.0838   YY=           -227.4930   ZZ=           -228.5684
   XY=             -1.6757   XZ=             -3.7493   YZ=             -0.8475

 Summary of Natural Population Analysis:

                                       Natural Population
                Natural  -----------------------------------------------
    Atom  No    Charge         Core      Valence    Rydberg      Total
 -----------------------------------------------------------------------
      P    1    1.14055      9.99626     3.80883    0.05436    13.85945
      P    2    1.10159      9.99637     3.85174    0.05030    13.89841
      C    3   -0.06414      1.99898     4.04521    0.01996     6.06414
      C    4   -0.30254      1.99898     4.28146    0.02209     6.30254
      C    5   -0.18289      1.99921     4.16896    0.01472     6.18289
      C    6   -0.17710      1.99910     4.16437    0.01363     6.17710
      C    7   -0.17955      1.99922     4.16574    0.01460     6.17955
      H    8    0.22433      0.00000     0.77453    0.00114     0.77567
      H    9    0.22997      0.00000     0.76826    0.00177     0.77003
      H   10    0.22424      0.00000     0.77462    0.00114     0.77576
     Rh   11   -0.36683     35.98496     9.35034    0.03153    45.36683
      C   12   -0.18039      1.99905     4.16175    0.01959     6.18039
      C   13   -0.14992      1.99905     4.13089    0.01998     6.14992
      C   14   -0.16696      1.99904     4.14847    0.01945     6.16696
      C   15   -0.15627      1.99905     4.13736    0.01985     6.15627
      H   16    0.22976      0.00000     0.76867    0.00156     0.77024
      C   17   -0.42348      1.99937     4.41241    0.01171     6.42348
      H   18    0.22758      0.00000     0.77045    0.00197     0.77242
      C   19   -0.41950      1.99936     4.40785    0.01229     6.41950
      C   20   -0.42448      1.99936     4.41338    0.01174     6.42448
      H   21    0.23104      0.00000     0.76671    0.00225     0.76896
      H   22    0.22393      0.00000     0.77404    0.00203     0.77607
      C   23   -0.41978      1.99936     4.40814    0.01229     6.41978
      H   24    0.21440      0.00000     0.78362    0.00198     0.78560
      H   25    0.22844      0.00000     0.77008    0.00148     0.77156
      H   26    0.23320      0.00000     0.76487    0.00193     0.76680
      H   27    0.21813      0.00000     0.78039    0.00147     0.78187
      H   28    0.22799      0.00000     0.77052    0.00149     0.77201
      H   29    0.21492      0.00000     0.78309    0.00200     0.78508
      H   30    0.23323      0.00000     0.76486    0.00192     0.76677
      H   31    0.21820      0.00000     0.78033    0.00148     0.78180
      C   32   -0.18369      1.99909     4.16890    0.01570     6.18369
      H   33    0.22028      0.00000     0.77800    0.00172     0.77972
      C   34    0.02559      1.99888     3.95048    0.02505     5.97441
      C   35   -0.61228      1.99894     4.59095    0.02239     6.61228
      C   36   -0.34162      1.99899     4.31812    0.02451     6.34162
      C   37   -0.19446      1.99909     4.18016    0.01521     6.19446
      C   38   -0.19052      1.99909     4.17580    0.01564     6.19052
      C   39   -0.19304      1.99920     4.17927    0.01457     6.19304
      H   40    0.21131      0.00000     0.78678    0.00191     0.78869
      C   41   -0.19107      1.99919     4.17729    0.01458     6.19107
      H   42    0.22151      0.00000     0.77625    0.00224     0.77849
      C   43   -0.18043      1.99920     4.16662    0.01460     6.18043
      H   44    0.22191      0.00000     0.77685    0.00124     0.77809
      H   45    0.22133      0.00000     0.77743    0.00124     0.77867
      H   46    0.22219      0.00000     0.77664    0.00118     0.77781
      C   47   -0.34325      1.99897     4.31913    0.02515     6.34325
      C   48   -0.18864      1.99909     4.17295    0.01660     6.18864
      C   49   -0.18250      1.99910     4.16763    0.01578     6.18250
      C   50   -0.19573      1.99919     4.18157    0.01497     6.19573
      H   51    0.21785      0.00000     0.78005    0.00210     0.78215
      C   52   -0.19184      1.99919     4.17791    0.01474     6.19184
      H   53    0.22364      0.00000     0.77442    0.00194     0.77636
      C   54   -0.17458      1.99920     4.16077    0.01460     6.17458
      H   55    0.21940      0.00000     0.77931    0.00128     0.78060
      H   56    0.22144      0.00000     0.77734    0.00123     0.77856
      H   57    0.22123      0.00000     0.77762    0.00115     0.77877
      C   58   -0.08596      1.99902     4.06608    0.02087     6.08596
      C   59   -0.17647      1.99911     4.16212    0.01524     6.17647
      C   60   -0.18493      1.99911     4.17209    0.01374     6.18493
      C   61   -0.19488      1.99921     4.18064    0.01504     6.19488
      H   62    0.21132      0.00000     0.78616    0.00252     0.78868
      C   63   -0.19551      1.99920     4.18155    0.01476     6.19551
      H   64    0.21440      0.00000     0.78386    0.00174     0.78560
      C   65   -0.18195      1.99920     4.16806    0.01469     6.18195
      H   66    0.21868      0.00000     0.77999    0.00133     0.78132
      H   67    0.21885      0.00000     0.77993    0.00122     0.78115
      H   68    0.21940      0.00000     0.77948    0.00113     0.78060
      C   69   -0.33246      1.99898     4.30943    0.02406     6.33246
      C   70   -0.17949      1.99909     4.16510    0.01530     6.17949
      C   71   -0.18497      1.99909     4.17010    0.01577     6.18497
      C   72   -0.19656      1.99920     4.18270    0.01467     6.19656
      H   73    0.22055      0.00000     0.77749    0.00196     0.77945
      C   74   -0.19351      1.99920     4.17978    0.01453     6.19351
      H   75    0.22091      0.00000     0.77717    0.00192     0.77909
      C   76   -0.17420      1.99921     4.16041    0.01458     6.17420
      H   77    0.22070      0.00000     0.77807    0.00123     0.77930
      H   78    0.22241      0.00000     0.77636    0.00122     0.77759
      H   79    0.22200      0.00000     0.77681    0.00118     0.77800
 =======================================================================
   * Total *    1.00000    135.94275   213.19357    0.86367   350.00000

 Normal termination of Gaussian 16 at Sun Jan 19 21:50:44 2025.
