 Gaussian 16, Revision B.01,
 Gaussian 16:  ES64L-G16RevB.01 20-Dec-2017

 ------------------------------------------
 # nmr=giao b3lyp/genecp pop=nbo scfcyc=200
 ------------------------------------------

 ---------
 DS-25_SPE
 ---------
 Symbolic Z-matrix:
 Charge =  1 Multiplicity = 1

                         Standard orientation:
 ---------------------------------------------------------------------
 Center     Atomic      Atomic             Coordinates (Angstroms)
 Number     Number       Type             X           Y           Z
 ---------------------------------------------------------------------
      1         15           0       -0.887680    1.394040   -0.002421
      2         15           0       -0.009401   -1.239140    0.038169
      3          6           0        1.143079   -1.369070    2.621209
      4          6           0        1.482499   -2.007310    3.810329
      5          6           0        1.251019   -3.369500    3.965089
      6          6           0        0.675669   -4.094790    2.925309
      7          6           0        0.335569   -3.460760    1.736319
      8          6           0        0.574879   -2.090880    1.569699
      9          1           0        1.316420   -0.306210    2.514019
     10          1           0        1.928309   -1.437560    4.616189
     11          1           0        1.515859   -3.864700    4.890719
     12          1           0        0.490619   -5.155620    3.039719
     13          1           0       -0.107031   -4.042010    0.936119
     14          6           0        1.769349   -3.102870   -1.235011
     15          6           0        2.272599   -3.776220   -2.345141
     16          6           0        1.701219   -3.584400   -3.598191
     17          6           0        0.620529   -2.718280   -3.739911
     18          6           0        0.113229   -2.047930   -2.633201
     19          6           0        0.685829   -2.228270   -1.369271
     20          1           0        2.213869   -3.281980   -0.263491
     21          1           0        3.107649   -4.455430   -2.226011
     22          1           0        2.090519   -4.112790   -4.459321
     23          1           0        0.165929   -2.572430   -4.711961
     24          1           0       -0.736521   -1.384790   -2.746291
     25          6           0       -0.242070    2.248470   -2.619311
     26          6           0       -0.418340    3.014540   -3.766971
     27          6           0       -1.361940    4.036170   -3.789191
     28          6           0       -2.131970    4.288361   -2.657831
     29          6           0       -1.958100    3.525431   -1.508411
     30          6           0       -1.002350    2.502770   -1.474771
     31          1           0        0.490350    1.451160   -2.615701
     32          1           0        0.183610    2.812210   -4.644241
     33          1           0       -1.497290    4.632610   -4.682551
     34          1           0       -2.869280    5.081451   -2.667731
     35          1           0       -2.563420    3.739201   -0.636121
     36          6           0       -1.415050    1.941090    2.679609
     37          6           0       -1.444260    2.697720    3.845769
     38          6           0       -1.022480    4.023350    3.827299
     39          6           0       -0.569290    4.588020    2.639129
     40          6           0       -0.532260    3.831100    1.472649
     41          6           0       -0.952790    2.497870    1.482319
     42          1           0       -1.755560    0.912281    2.694749
     43          1           0       -1.805350    2.254761    4.765639
     44          1           0       -1.052310    4.616000    4.733009
     45          1           0       -0.245780    5.621340    2.617629
     46          1           0       -0.184260    4.290600    0.557009
     47          6           0        0.670150    0.452110   -0.021681
     48         45           0       -2.250640   -0.530299   -0.025131
     49          6           0       -4.300790    0.325251    0.485189
     50          6           0       -4.116190    0.380971   -0.881191
     51          6           0       -3.346951   -2.428049   -0.659081
     52          6           0       -3.262211   -2.394909    0.717469
     53          6           0       -5.137130   -0.707559    1.217939
     54          1           0       -4.066050    1.221131    1.049769
     55          1           0       -3.778540    1.322881   -1.300251
     56          6           0       -4.636900   -0.597769   -1.905581
     57          6           0       -4.579871   -2.078509   -1.471961
     58          1           0       -2.585801   -2.993669   -1.185411
     59          6           0       -4.333321   -1.942459    1.680029
     60          1           0       -2.460041   -2.959239    1.181329
     61          1           0       -5.579510   -0.235609    2.096949
     62          1           0       -5.974290   -1.012739    0.590139
     63          1           0       -5.665460   -0.331519   -2.180471
     64          1           0       -4.044450   -0.468359   -2.813981
     65          1           0       -5.475601   -2.344629   -0.910871
     66          1           0       -4.592911   -2.701319   -2.368141
     67          1           0       -3.846071   -1.715989    2.630969
     68          1           0       -5.018771   -2.774009    1.887379
     69          6           0        1.983070    0.881080   -0.064831
     70          6           0        2.336700    2.342110   -0.036871
     71          1           0        3.263190    2.532470   -0.575921
     72          1           0        1.543120    2.932540   -0.484901
     73          1           0        2.468860    2.688370    0.990079
     74          7           0        3.004290   -0.002530   -0.146461
     75          1           0        2.757030   -0.966120   -0.323211
     76          6           0        4.408570    0.264470   -0.114741
     77          6           0        5.003230    0.891690    0.977889
     78          6           0        5.205250   -0.173850   -1.170881
     79          6           0        6.375920    1.103059    0.993159
     80          1           0        4.399390    1.196340    1.822939
     81          6           0        6.579170    0.027029   -1.134931
     82          1           0        4.747990   -0.667190   -2.020201
     83          6           0        7.189880    0.677089   -0.059611
     84          1           0        6.824390    1.591619    1.850249
     85          1           0        7.185680   -0.322661   -1.962071
     86          6           0        8.674650    0.927969   -0.043991
     87          1           0        8.909880    1.895549   -0.496951
     88          1           0        9.065930    0.940909    0.973989
     89          1           0        9.213930    0.164789   -0.606091
 ---------------------------------------------------------------------

 SCF Done:  E(RB3LYP) =  -2474.87721175     A.U. after   17 cycles

      1  P    Isotropic =   301.9187   Anisotropy =    77.5122

      2  P    Isotropic =   311.3624   Anisotropy =    86.7824

      3  C    Isotropic =    48.4700   Anisotropy =   190.2687

      4  C    Isotropic =    49.1112   Anisotropy =   188.9937

      5  C    Isotropic =    47.0172   Anisotropy =   194.5156

      6  C    Isotropic =    48.7696   Anisotropy =   190.0061

      7  C    Isotropic =    47.5625   Anisotropy =   188.9049

      8  C    Isotropic =    48.5768   Anisotropy =   168.6795

      9  H    Isotropic =    24.1964   Anisotropy =     9.1762

     10  H    Isotropic =    24.2146   Anisotropy =     6.8980

     11  H    Isotropic =    24.0879   Anisotropy =     3.5436

     12  H    Isotropic =    24.1206   Anisotropy =     5.9551

     13  H    Isotropic =    24.4852   Anisotropy =    10.6003

     14  C    Isotropic =    48.5366   Anisotropy =   188.5913

     15  C    Isotropic =    49.2451   Anisotropy =   188.3495

     16  C    Isotropic =    46.1729   Anisotropy =   195.5335

     17  C    Isotropic =    47.7099   Anisotropy =   189.4300

     18  C    Isotropic =    42.2488   Anisotropy =   184.6321

     19  C    Isotropic =    42.5729   Anisotropy =   176.1441

     20  H    Isotropic =    24.3281   Anisotropy =    11.7377

     21  H    Isotropic =    24.2000   Anisotropy =     6.3241

     22  H    Isotropic =    23.9657   Anisotropy =     3.4973

     23  H    Isotropic =    23.8931   Anisotropy =     7.0648

     24  H    Isotropic =    23.2628   Anisotropy =    10.0784

     25  C    Isotropic =    49.0596   Anisotropy =   190.5278

     26  C    Isotropic =    48.9432   Anisotropy =   188.7425

     27  C    Isotropic =    47.0325   Anisotropy =   194.1379

     28  C    Isotropic =    48.7296   Anisotropy =   189.8908

     29  C    Isotropic =    47.5375   Anisotropy =   189.4573

     30  C    Isotropic =    45.1189   Anisotropy =   171.2404

     31  H    Isotropic =    24.0366   Anisotropy =     9.5767

     32  H    Isotropic =    24.1248   Anisotropy =     7.0781

     33  H    Isotropic =    24.0715   Anisotropy =     3.6011

     34  H    Isotropic =    24.1441   Anisotropy =     6.0800

     35  H    Isotropic =    24.4929   Anisotropy =    11.0309

     36  C    Isotropic =    41.6185   Anisotropy =   182.4697

     37  C    Isotropic =    48.9501   Anisotropy =   187.7117

     38  C    Isotropic =    46.2251   Anisotropy =   195.1753

     39  C    Isotropic =    50.0399   Anisotropy =   186.7653

     40  C    Isotropic =    46.6122   Anisotropy =   190.4996

     41  C    Isotropic =    42.9623   Anisotropy =   174.9930

     42  H    Isotropic =    23.3608   Anisotropy =     9.8777

     43  H    Isotropic =    24.0617   Anisotropy =     7.1705

     44  H    Isotropic =    24.0209   Anisotropy =     3.6188

     45  H    Isotropic =    24.2420   Anisotropy =     6.2276

     46  H    Isotropic =    24.3024   Anisotropy =    11.6482

     47  C    Isotropic =    85.1887   Anisotropy =    54.5684

     48  Rh   Isotropic =  -299.6968   Anisotropy =   327.5035

     49  C    Isotropic =    81.0105   Anisotropy =   118.4968

     50  C    Isotropic =    73.5917   Anisotropy =   121.0196

     51  C    Isotropic =    80.4395   Anisotropy =   119.0780

     52  C    Isotropic =    75.0255   Anisotropy =   118.4015

     53  C    Isotropic =   153.9795   Anisotropy =    25.0361

     54  H    Isotropic =    27.1082   Anisotropy =     5.6017

     55  H    Isotropic =    26.9441   Anisotropy =     5.4324

     56  C    Isotropic =   148.1221   Anisotropy =    29.1908

     57  C    Isotropic =   153.9358   Anisotropy =    25.0951

     58  H    Isotropic =    27.0668   Anisotropy =     5.5046

     59  C    Isotropic =   148.0922   Anisotropy =    29.1898

     60  H    Isotropic =    26.7221   Anisotropy =     5.0947

     61  H    Isotropic =    29.9469   Anisotropy =    11.3999

     62  H    Isotropic =    29.8881   Anisotropy =     9.9640

     63  H    Isotropic =    29.3461   Anisotropy =    12.6041

     64  H    Isotropic =    29.4031   Anisotropy =     6.8397

     65  H    Isotropic =    29.9138   Anisotropy =     9.9279

     66  H    Isotropic =    29.9575   Anisotropy =    11.3214

     67  H    Isotropic =    29.3528   Anisotropy =     6.9956

     68  H    Isotropic =    29.2895   Anisotropy =    12.7320

     69  C    Isotropic =    12.6694   Anisotropy =   170.7183

     70  C    Isotropic =   164.1845   Anisotropy =    13.4565

     71  H    Isotropic =    30.4871   Anisotropy =     7.6422

     72  H    Isotropic =    30.0503   Anisotropy =     8.1988

     73  H    Isotropic =    30.3432   Anisotropy =     7.3145

     74  N    Isotropic =   111.1696   Anisotropy =    71.9507

     75  H    Isotropic =    25.3268   Anisotropy =    11.4115

     76  C    Isotropic =    44.4066   Anisotropy =   134.2141

     77  C    Isotropic =    53.4700   Anisotropy =   163.0039

     78  C    Isotropic =    55.5407   Anisotropy =   157.6349

     79  C    Isotropic =    48.9482   Anisotropy =   167.5510

     80  H    Isotropic =    25.1787   Anisotropy =    10.5241

     81  C    Isotropic =    48.1486   Anisotropy =   168.1128

     82  H    Isotropic =    25.4881   Anisotropy =     9.9909

     83  C    Isotropic =    35.5041   Anisotropy =   206.9824

     84  H    Isotropic =    24.6356   Anisotropy =     8.2610

     85  H    Isotropic =    24.6356   Anisotropy =     7.9197

     86  C    Isotropic =   162.3876   Anisotropy =    42.6438

     87  H    Isotropic =    29.3906   Anisotropy =     9.1610

     88  H    Isotropic =    29.6847   Anisotropy =     8.1463

     89  H    Isotropic =    29.6836   Anisotropy =     8.3184

 The electronic state is 1-A.
 Alpha  occ. eigenvalues --  -77.22704 -77.22622 -14.45734 -10.34926 -10.30868
 Alpha  occ. eigenvalues --  -10.29149 -10.28706 -10.28663 -10.28516 -10.28050
 Alpha  occ. eigenvalues --  -10.27849 -10.27841 -10.27808 -10.27659 -10.27606
 Alpha  occ. eigenvalues --  -10.27574 -10.27454 -10.27449 -10.27447 -10.27404
 Alpha  occ. eigenvalues --  -10.27398 -10.27389 -10.27374 -10.27332 -10.27320
 Alpha  occ. eigenvalues --  -10.27293 -10.26958 -10.26928 -10.26877 -10.26868
 Alpha  occ. eigenvalues --  -10.26854 -10.26845 -10.26796 -10.26782 -10.26776
 Alpha  occ. eigenvalues --  -10.26752 -10.26742 -10.26688 -10.26446 -10.26438
 Alpha  occ. eigenvalues --  -10.26248 -10.26225 -10.26050 -10.26029 -10.24158
 Alpha  occ. eigenvalues --   -6.68608  -6.68504  -4.84878  -4.84847  -4.84779
 Alpha  occ. eigenvalues --   -4.84739  -4.84527  -4.84430  -3.30212  -2.07102
 Alpha  occ. eigenvalues --   -2.06442  -2.03696  -1.06835  -0.96322  -0.95916
 Alpha  occ. eigenvalues --   -0.95529  -0.95277  -0.95125  -0.93277  -0.90137
 Alpha  occ. eigenvalues --   -0.87967  -0.87047  -0.86901  -0.86533  -0.85072
 Alpha  occ. eigenvalues --   -0.84903  -0.84617  -0.84517  -0.84429  -0.84353
 Alpha  occ. eigenvalues --   -0.84064  -0.83981  -0.81880  -0.79197  -0.77832
 Alpha  occ. eigenvalues --   -0.76685  -0.74851  -0.73836  -0.71150  -0.71020
 Alpha  occ. eigenvalues --   -0.70564  -0.70409  -0.70179  -0.69735  -0.69476
 Alpha  occ. eigenvalues --   -0.69441  -0.69332  -0.67514  -0.66496  -0.66176
 Alpha  occ. eigenvalues --   -0.64725  -0.63145  -0.61915  -0.61719  -0.61494
 Alpha  occ. eigenvalues --   -0.61215  -0.59923  -0.58886  -0.57278  -0.56670
 Alpha  occ. eigenvalues --   -0.56037  -0.55849  -0.55676  -0.55364  -0.55243
 Alpha  occ. eigenvalues --   -0.55208  -0.55071  -0.55005  -0.54691  -0.54243
 Alpha  occ. eigenvalues --   -0.53878  -0.53531  -0.52848  -0.52565  -0.52418
 Alpha  occ. eigenvalues --   -0.51999  -0.51915  -0.51819  -0.51620  -0.51560
 Alpha  occ. eigenvalues --   -0.51428  -0.51193  -0.50965  -0.50558  -0.50115
 Alpha  occ. eigenvalues --   -0.49785  -0.48353  -0.47750  -0.47559  -0.47442
 Alpha  occ. eigenvalues --   -0.47051  -0.46851  -0.46649  -0.46437  -0.45764
 Alpha  occ. eigenvalues --   -0.45680  -0.45163  -0.44882  -0.44781  -0.44540
 Alpha  occ. eigenvalues --   -0.44383  -0.44260  -0.44250  -0.44033  -0.43423
 Alpha  occ. eigenvalues --   -0.42952  -0.42781  -0.42328  -0.42280  -0.42135
 Alpha  occ. eigenvalues --   -0.41875  -0.40294  -0.37189  -0.36834  -0.36178
 Alpha  occ. eigenvalues --   -0.36007  -0.35907  -0.35445  -0.35263  -0.35012
 Alpha  occ. eigenvalues --   -0.34877  -0.34741  -0.34696  -0.33940  -0.33187
 Alpha  occ. eigenvalues --   -0.33061  -0.32495  -0.31105  -0.29357
 Alpha virt. eigenvalues --   -0.15841  -0.13948  -0.13124  -0.12650  -0.12270
 Alpha virt. eigenvalues --   -0.11567  -0.11191  -0.10992  -0.10597  -0.10203
 Alpha virt. eigenvalues --   -0.10106  -0.09153  -0.08798  -0.08103  -0.06733

 Mulliken charges:
               1
     1  P    0.421291
     2  P    0.409441
     3  C   -0.071950
     4  C   -0.093711
     5  C   -0.105477
     6  C   -0.081445
     7  C   -0.172386
     8  C   -0.104174
     9  H    0.158082
    10  H    0.128303
    11  H    0.134584
    12  H    0.133201
    13  H    0.167508
    14  C   -0.116224
    15  C   -0.080104
    16  C   -0.102958
    17  C   -0.089649
    18  C   -0.083743
    19  C   -0.250803
    20  H    0.182420
    21  H    0.135511
    22  H    0.137379
    23  H    0.131020
    24  H    0.180348
    25  C   -0.099591
    26  C   -0.095512
    27  C   -0.103986
    28  C   -0.080418
    29  C   -0.156290
    30  C   -0.137540
    31  H    0.172864
    32  H    0.128191
    33  H    0.135182
    34  H    0.133320
    35  H    0.165363
    36  C   -0.075422
    37  C   -0.099678
    38  C   -0.093949
    39  C   -0.101445
    40  C   -0.083457
    41  C   -0.208431
    42  H    0.180069
    43  H    0.128106
    44  H    0.135346
    45  H    0.132074
    46  H    0.161848
    47  C   -0.726929
    48  Rh  -0.702479
    49  C   -0.022565
    50  C   -0.108666
    51  C   -0.025878
    52  C   -0.096024
    53  C   -0.346079
    54  H    0.192642
    55  H    0.212441
    56  C   -0.229231
    57  C   -0.348004
    58  H    0.190965
    59  C   -0.230452
    60  H    0.195752
    61  H    0.165679
    62  H    0.165146
    63  H    0.167263
    64  H    0.131072
    65  H    0.165349
    66  H    0.164984
    67  H    0.132630
    68  H    0.167117
    69  C    0.401506
    70  C   -0.482525
    71  H    0.190333
    72  H    0.177901
    73  H    0.172422
    74  N   -0.172022
    75  H    0.255999
    76  C    0.013810
    77  C   -0.105882
    78  C   -0.139878
    79  C   -0.122840
    80  H    0.139094
    81  C   -0.132360
    82  H    0.141189
    83  C    0.087353
    84  H    0.125983
    85  H    0.127186
    86  C   -0.428897
    87  H    0.154021
    88  H    0.140256
    89  H    0.139510
 Sum of Mulliken charges =   1.00000

 Dipole moment (field-independent basis, Debye):
    X=              1.5286    Y=              0.1980    Z=             -0.3161  Tot=              1.5735
 Quadrupole moment (field-independent basis, Debye-Ang):
   XX=           -219.4311   YY=           -248.6496   ZZ=           -250.1015
   XY=             -0.1291   XZ=             -0.8855   YZ=              3.2793

 Summary of Natural Population Analysis:

                                       Natural Population
                Natural  -----------------------------------------------
    Atom  No    Charge         Core      Valence    Rydberg      Total
 -----------------------------------------------------------------------
      P    1    1.14423      9.99621     3.80351    0.05605    13.85577
      P    2    1.12190      9.99625     3.82608    0.05577    13.87810
      C    3   -0.19613      1.99909     4.18122    0.01582     6.19613
      C    4   -0.19280      1.99920     4.17895    0.01465     6.19280
      C    5   -0.18553      1.99920     4.17156    0.01476     6.18553
      C    6   -0.19339      1.99920     4.17946    0.01473     6.19339
      C    7   -0.20729      1.99909     4.19272    0.01548     6.20729
      C    8   -0.34176      1.99899     4.31823    0.02454     6.34176
      H    9    0.21868      0.00000     0.77891    0.00242     0.78132
      H   10    0.21893      0.00000     0.77983    0.00125     0.78107
      H   11    0.22132      0.00000     0.77749    0.00118     0.77868
      H   12    0.22127      0.00000     0.77749    0.00124     0.77873
      H   13    0.21633      0.00000     0.78174    0.00194     0.78367
      C   14   -0.22536      1.99909     4.21016    0.01610     6.22536
      C   15   -0.19250      1.99919     4.17838    0.01493     6.19250
      C   16   -0.18275      1.99920     4.16888    0.01467     6.18275
      C   17   -0.19185      1.99920     4.17817    0.01448     6.19185
      C   18   -0.18989      1.99910     4.17506    0.01574     6.18989
      C   19   -0.33928      1.99898     4.31552    0.02478     6.33928
      H   20    0.22296      0.00000     0.77505    0.00199     0.77704
      H   21    0.22213      0.00000     0.77663    0.00124     0.77787
      H   22    0.22231      0.00000     0.77651    0.00118     0.77769
      H   23    0.22076      0.00000     0.77800    0.00123     0.77924
      H   24    0.22416      0.00000     0.77398    0.00186     0.77584
      C   25   -0.20201      1.99909     4.18757    0.01535     6.20201
      C   26   -0.19296      1.99920     4.17905    0.01472     6.19296
      C   27   -0.18654      1.99920     4.17256    0.01477     6.18654
      C   28   -0.19199      1.99920     4.17804    0.01476     6.19199
      C   29   -0.20769      1.99909     4.19328    0.01532     6.20769
      C   30   -0.34252      1.99898     4.31954    0.02400     6.34252
      H   31    0.21829      0.00000     0.77945    0.00226     0.78171
      H   32    0.21910      0.00000     0.77966    0.00124     0.78090
      H   33    0.22143      0.00000     0.77739    0.00118     0.77857
      H   34    0.22150      0.00000     0.77727    0.00123     0.77850
      H   35    0.21941      0.00000     0.77868    0.00191     0.78059
      C   36   -0.18750      1.99910     4.17289    0.01551     6.18750
      C   37   -0.19795      1.99919     4.18419    0.01456     6.19795
      C   38   -0.18135      1.99920     4.16749    0.01466     6.18135
      C   39   -0.19695      1.99920     4.18297    0.01479     6.19695
      C   40   -0.19708      1.99909     4.18234    0.01565     6.19708
      C   41   -0.34239      1.99897     4.31887    0.02455     6.34239
      H   42    0.22353      0.00000     0.77454    0.00192     0.77647
      H   43    0.21955      0.00000     0.77921    0.00124     0.78045
      H   44    0.22102      0.00000     0.77779    0.00119     0.77898
      H   45    0.22066      0.00000     0.77809    0.00125     0.77934
      H   46    0.21788      0.00000     0.78016    0.00195     0.78212
      C   47   -0.80547      1.99902     4.78105    0.02540     6.80547
     Rh   48   -0.37548     35.98586     9.36112    0.02850    45.37548
      C   49   -0.18045      1.99906     4.16186    0.01952     6.18045
      C   50   -0.15997      1.99907     4.14112    0.01978     6.15997
      C   51   -0.17875      1.99906     4.16011    0.01958     6.17875
      C   52   -0.16288      1.99907     4.14401    0.01979     6.16288
      C   53   -0.42229      1.99936     4.41117    0.01176     6.42229
      H   54    0.22689      0.00000     0.77112    0.00199     0.77311
      H   55    0.22946      0.00000     0.76835    0.00219     0.77054
      C   56   -0.41722      1.99935     4.40531    0.01256     6.41722
      C   57   -0.42242      1.99936     4.41128    0.01178     6.42242
      H   58    0.22588      0.00000     0.77213    0.00199     0.77412
      C   59   -0.41727      1.99935     4.40534    0.01258     6.41727
      H   60    0.22686      0.00000     0.77095    0.00218     0.77314
      H   61    0.22645      0.00000     0.77205    0.00150     0.77355
      H   62    0.21296      0.00000     0.78504    0.00200     0.78704
      H   63    0.23076      0.00000     0.76730    0.00194     0.76924
      H   64    0.21521      0.00000     0.78326    0.00153     0.78479
      H   65    0.21308      0.00000     0.78491    0.00200     0.78692
      H   66    0.22602      0.00000     0.77248    0.00150     0.77398
      H   67    0.21542      0.00000     0.78304    0.00154     0.78458
      H   68    0.23067      0.00000     0.76739    0.00194     0.76933
      C   69    0.30486      1.99892     3.67345    0.02276     5.69514
      C   70   -0.65446      1.99936     4.64599    0.00910     6.65446
      H   71    0.24176      0.00000     0.75682    0.00143     0.75824
      H   72    0.23301      0.00000     0.76463    0.00236     0.76699
      H   73    0.24108      0.00000     0.75754    0.00138     0.75892
      N   74   -0.53464      1.99941     5.51724    0.01799     7.53464
      H   75    0.40891      0.00000     0.58793    0.00316     0.59109
      C   76    0.09436      1.99887     3.88981    0.01696     5.90564
      C   77   -0.20553      1.99908     4.19276    0.01369     6.20553
      C   78   -0.20611      1.99909     4.19263    0.01440     6.20611
      C   79   -0.19058      1.99912     4.17763    0.01383     6.19058
      H   80    0.21317      0.00000     0.78514    0.00170     0.78683
      C   81   -0.18825      1.99912     4.17545    0.01368     6.18825
      H   82    0.21621      0.00000     0.78195    0.00184     0.78379
      C   83   -0.00074      1.99914     3.98741    0.01419     6.00074
      H   84    0.21547      0.00000     0.78316    0.00137     0.78453
      H   85    0.21574      0.00000     0.78290    0.00136     0.78426
      C   86   -0.61632      1.99941     4.60969    0.00722     6.61632
      H   87    0.22456      0.00000     0.77406    0.00138     0.77544
      H   88    0.21910      0.00000     0.77965    0.00125     0.78090
      H   89    0.21902      0.00000     0.77974    0.00124     0.78098
 =======================================================================
   * Total *    1.00000    141.94163   233.15051    0.90785   376.00000

 Normal termination of Gaussian 16 at Sun Jan 19 23:46:59 2025.
