 Gaussian 16, Revision B.01,
 Gaussian 16:  ES64L-G16RevB.01 20-Dec-2017

 ------------------------------------------
 # nmr=giao b3lyp/genecp pop=nbo scfcyc=200
 ------------------------------------------

 ---------
 DS-20_SPE
 ---------
 Symbolic Z-matrix:
 Charge =  1 Multiplicity = 1

                         Standard orientation:
 ---------------------------------------------------------------------
 Center     Atomic      Atomic             Coordinates (Angstroms)
 Number     Number       Type             X           Y           Z
 ---------------------------------------------------------------------
      1         15           0       -1.038332    1.305830    0.081010
      2         15           0        0.532990   -0.993279    0.221590
      3          6           0        1.370490   -0.602688    2.898280
      4          6           0        1.638980   -1.023228    4.197570
      5          6           0        1.538091   -2.368018    4.533790
      6          6           0        1.161562   -3.296828    3.566890
      7          6           0        0.885771   -2.880969    2.270680
      8          6           0        0.999030   -1.529099    1.921450
      9          1           0        1.447909    0.447822    2.650830
     10          1           0        1.928429   -0.295858    4.945590
     11          1           0        1.749161   -2.693078    5.544710
     12          1           0        1.079253   -4.345688    3.823180
     13          1           0        0.593842   -3.617249    1.531390
     14          6           0        2.709751   -2.684517   -0.555830
     15          6           0        3.504492   -3.319997   -1.505340
     16          6           0        3.272012   -3.121367   -2.861040
     17          6           0        2.233211   -2.289208   -3.270110
     18          6           0        1.428630   -1.665268   -2.325930
     19          6           0        1.666271   -1.849238   -0.958890
     20          1           0        2.911021   -2.843627    0.494760
     21          1           0        4.308882   -3.968396   -1.181160
     22          1           0        3.893552   -3.615476   -3.597090
     23          1           0        2.044591   -2.134198   -4.325120
     24          1           0        0.607720   -1.037229   -2.651320
     25          6           0       -0.733133    2.565790   -2.415140
     26          6           0       -1.008044    3.524300   -3.382410
     27          6           0       -1.876805    4.575199   -3.099420
     28          6           0       -2.468505    4.663049   -1.844770
     29          6           0       -2.191684    3.708709   -0.869940
     30          6           0       -1.314223    2.655820   -1.144560
     31          1           0       -0.058962    1.751421   -2.649710
     32          1           0       -0.545314    3.450110   -4.358680
     33          1           0       -2.091195    5.320599   -3.854760
     34          1           0       -3.146355    5.476618   -1.618840
     35          1           0       -2.655574    3.794318    0.103760
     36          6           0       -2.330532    1.433819    2.569640
     37          6           0       -2.596263    1.961439    3.830410
     38          6           0       -1.928063    3.100539    4.262550
     39          6           0       -0.989694    3.713270    3.434190
     40          6           0       -0.722514    3.189220    2.176230
     41          6           0       -1.396533    2.045930    1.732010
     42          1           0       -2.842131    0.538948    2.238690
     43          1           0       -3.322982    1.480388    4.472960
     44          1           0       -2.134694    3.512049    5.242550
     45          1           0       -0.466675    4.600240    3.769390
     46          1           0        0.007406    3.677931    1.542810
     47          6           0        0.749768    0.840221    0.083990
     48         45           0       -1.769230   -0.883841   -0.312190
     49          6           0       -4.033510   -0.652213   -0.436980
     50          6           0       -3.482841   -0.395552   -1.676950
     51          6           0       -2.065219   -2.924901   -1.314580
     52          6           0       -2.391398   -3.026001    0.020230
     53          6           0       -4.721849   -1.940843   -0.026200
     54          1           0       -4.243571    0.208787    0.188440
     55          1           0       -3.325791    0.644488   -1.942670
     56          6           0       -3.391530   -1.351892   -2.840860
     57          6           0       -3.058669   -2.809042   -2.455210
     58          1           0       -1.057658   -3.206320   -1.598960
     59          6           0       -3.773329   -2.971752    0.624210
     60          1           0       -1.628798   -3.408861    0.690370
     61          1           0       -5.510610   -1.700544    0.688670
     62          1           0       -5.224979   -2.378754   -0.888220
     63          1           0       -4.328220   -1.324343   -3.412030
     64          1           0       -2.621080   -0.975721   -3.517430
     65          1           0       -3.969218   -3.352493   -2.203690
     66          1           0       -2.641778   -3.311571   -3.329670
     67          1           0       -3.660169   -2.734062    1.684300
     68          1           0       -4.230458   -3.968673    0.590100
     69          6           0        1.774268    1.675522   -0.190190
     70          1           0        1.475567    2.693912   -0.435920
     71          6           0        3.215618    1.487983   -0.260190
     72          6           0        3.966487    2.449514   -0.959560
     73          6           0        3.912799    0.440314    0.360120
     74          6           0        5.342907    2.346755   -1.065590
     75          1           0        3.455796    3.280373   -1.433010
     76          6           0        5.291409    0.352975    0.264060
     77          1           0        3.380699   -0.291247    0.949410
     78          6           0        6.034478    1.296726   -0.453650
     79          1           0        5.892727    3.096035   -1.622790
     80          1           0        5.806819   -0.460565    0.761180
     81          6           0        7.533978    1.208917   -0.527330
     82          1           0        7.914078    1.643597   -1.452450
     83          1           0        7.992978    1.755017    0.302430
     84          1           0        7.877279    0.175547   -0.466350
 ---------------------------------------------------------------------

 SCF Done:  E(RB3LYP) =  -2380.16431052     A.U. after   17 cycles

      1  P    Isotropic =   288.8181   Anisotropy =    62.1094

      2  P    Isotropic =   291.4269   Anisotropy =    78.9888

      3  C    Isotropic =    47.0439   Anisotropy =   189.3415

      4  C    Isotropic =    48.4442   Anisotropy =   191.2665

      5  C    Isotropic =    46.5610   Anisotropy =   196.1134

      6  C    Isotropic =    49.2242   Anisotropy =   190.0431

      7  C    Isotropic =    47.1733   Anisotropy =   188.7228

      8  C    Isotropic =    48.9942   Anisotropy =   167.0744

      9  H    Isotropic =    24.6500   Anisotropy =     8.1553

     10  H    Isotropic =    24.5524   Anisotropy =     7.1942

     11  H    Isotropic =    24.1321   Anisotropy =     3.5042

     12  H    Isotropic =    24.0490   Anisotropy =     5.8344

     13  H    Isotropic =    24.3281   Anisotropy =    10.4389

     14  C    Isotropic =    45.5170   Anisotropy =   196.4373

     15  C    Isotropic =    50.0625   Anisotropy =   188.2782

     16  C    Isotropic =    46.2370   Anisotropy =   195.9004

     17  C    Isotropic =    49.3998   Anisotropy =   188.1295

     18  C    Isotropic =    44.7161   Anisotropy =   185.1899

     19  C    Isotropic =    47.7976   Anisotropy =   165.1376

     20  H    Isotropic =    24.3431   Anisotropy =    11.7374

     21  H    Isotropic =    24.4016   Anisotropy =     6.0655

     22  H    Isotropic =    24.2859   Anisotropy =     3.2589

     23  H    Isotropic =    24.2183   Anisotropy =     6.5045

     24  H    Isotropic =    23.4780   Anisotropy =     9.3280

     25  C    Isotropic =    48.2195   Anisotropy =   188.3970

     26  C    Isotropic =    49.3685   Anisotropy =   188.2612

     27  C    Isotropic =    46.5035   Anisotropy =   195.4435

     28  C    Isotropic =    48.4465   Anisotropy =   189.9754

     29  C    Isotropic =    45.1468   Anisotropy =   193.7198

     30  C    Isotropic =    44.5025   Anisotropy =   166.2449

     31  H    Isotropic =    23.7164   Anisotropy =    10.1937

     32  H    Isotropic =    23.9714   Anisotropy =     6.7318

     33  H    Isotropic =    24.0300   Anisotropy =     3.6475

     34  H    Isotropic =    24.2464   Anisotropy =     6.4144

     35  H    Isotropic =    24.8371   Anisotropy =    12.5882

     36  C    Isotropic =    41.0489   Anisotropy =   181.3396

     37  C    Isotropic =    49.7097   Anisotropy =   187.8082

     38  C    Isotropic =    45.3135   Anisotropy =   198.2340

     39  C    Isotropic =    48.4291   Anisotropy =   190.1592

     40  C    Isotropic =    46.6227   Anisotropy =   190.4230

     41  C    Isotropic =    44.2122   Anisotropy =   172.1766

     42  H    Isotropic =    23.6775   Anisotropy =     9.7996

     43  H    Isotropic =    24.2505   Anisotropy =     6.5147

     44  H    Isotropic =    23.9965   Anisotropy =     3.2814

     45  H    Isotropic =    24.0927   Anisotropy =     6.2169

     46  H    Isotropic =    24.1455   Anisotropy =    10.8192

     47  C    Isotropic =    37.9723   Anisotropy =    69.4957

     48  Rh   Isotropic =  -306.6181   Anisotropy =   319.9179

     49  C    Isotropic =    82.9867   Anisotropy =   115.1128

     50  C    Isotropic =    73.6517   Anisotropy =   121.4987

     51  C    Isotropic =    74.3576   Anisotropy =   127.2498

     52  C    Isotropic =    75.8260   Anisotropy =   116.2075

     53  C    Isotropic =   154.2155   Anisotropy =    24.6141

     54  H    Isotropic =    27.0478   Anisotropy =     6.6906

     55  H    Isotropic =    26.9280   Anisotropy =     4.8069

     56  C    Isotropic =   147.3263   Anisotropy =    29.6477

     57  C    Isotropic =   153.8790   Anisotropy =    24.8777

     58  H    Isotropic =    27.0537   Anisotropy =     4.2806

     59  C    Isotropic =   148.2556   Anisotropy =    29.0866

     60  H    Isotropic =    26.3351   Anisotropy =     5.2699

     61  H    Isotropic =    29.8671   Anisotropy =    11.7773

     62  H    Isotropic =    29.8302   Anisotropy =     9.7381

     63  H    Isotropic =    29.2785   Anisotropy =    12.4744

     64  H    Isotropic =    29.1510   Anisotropy =     7.0116

     65  H    Isotropic =    29.8146   Anisotropy =     9.7557

     66  H    Isotropic =    29.9334   Anisotropy =    10.8858

     67  H    Isotropic =    29.2433   Anisotropy =     7.5890

     68  H    Isotropic =    29.1712   Anisotropy =    12.8144

     69  C    Isotropic =    22.6353   Anisotropy =   159.6782

     70  H    Isotropic =    24.0721   Anisotropy =    10.6945

     71  C    Isotropic =    48.8499   Anisotropy =   181.8821

     72  C    Isotropic =    44.7171   Anisotropy =   171.3864

     73  C    Isotropic =    49.6204   Anisotropy =   183.0474

     74  C    Isotropic =    49.3408   Anisotropy =   167.3575

     75  H    Isotropic =    24.8185   Anisotropy =     9.4611

     76  C    Isotropic =    50.3123   Anisotropy =   167.3864

     77  H    Isotropic =    24.8817   Anisotropy =     9.1731

     78  C    Isotropic =    29.3886   Anisotropy =   216.0837

     79  H    Isotropic =    24.6308   Anisotropy =     6.6606

     80  H    Isotropic =    25.0957   Anisotropy =    10.6660

     81  C    Isotropic =   161.8137   Anisotropy =    42.3423

     82  H    Isotropic =    29.7472   Anisotropy =     8.5285

     83  H    Isotropic =    29.4336   Anisotropy =     9.6308

     84  H    Isotropic =    29.8400   Anisotropy =     6.9733

 The electronic state is 1-A.
 Alpha  occ. eigenvalues --  -77.23482 -77.23066 -10.30287 -10.29630 -10.29259
 Alpha  occ. eigenvalues --  -10.29163 -10.29153 -10.28926 -10.28455 -10.28448
 Alpha  occ. eigenvalues --  -10.28318 -10.28093 -10.28080 -10.28036 -10.27927
 Alpha  occ. eigenvalues --  -10.27881 -10.27848 -10.27806 -10.27756 -10.27751
 Alpha  occ. eigenvalues --  -10.27718 -10.27688 -10.27267 -10.27250 -10.27246
 Alpha  occ. eigenvalues --  -10.27173 -10.27168 -10.27163 -10.27138 -10.27108
 Alpha  occ. eigenvalues --  -10.27103 -10.27094 -10.27075 -10.27052 -10.27035
 Alpha  occ. eigenvalues --  -10.26989 -10.26981 -10.26968 -10.26768 -10.26733
 Alpha  occ. eigenvalues --  -10.26169 -10.26068 -10.24620  -6.69392  -6.69024
 Alpha  occ. eigenvalues --   -4.85689  -4.85613  -4.85300  -4.85297  -4.85245
 Alpha  occ. eigenvalues --   -4.84941  -3.30940  -2.07839  -2.07147  -2.04423
 Alpha  occ. eigenvalues --   -0.96572  -0.96251  -0.95927  -0.95692  -0.95673
 Alpha  occ. eigenvalues --   -0.93846  -0.91225  -0.88553  -0.87677  -0.87443
 Alpha  occ. eigenvalues --   -0.86866  -0.85074  -0.84926  -0.84864  -0.84837
 Alpha  occ. eigenvalues --   -0.84533  -0.84486  -0.84427  -0.84103  -0.79860
 Alpha  occ. eigenvalues --   -0.79426  -0.77241  -0.75762  -0.75093  -0.71249
 Alpha  occ. eigenvalues --   -0.70859  -0.70794  -0.70616  -0.70439  -0.70011
 Alpha  occ. eigenvalues --   -0.69931  -0.69803  -0.69591  -0.67551  -0.66694
 Alpha  occ. eigenvalues --   -0.65272  -0.64019  -0.62082  -0.61980  -0.61741
 Alpha  occ. eigenvalues --   -0.61140  -0.60247  -0.59444  -0.58762  -0.57158
 Alpha  occ. eigenvalues --   -0.56468  -0.55849  -0.55802  -0.55690  -0.55612
 Alpha  occ. eigenvalues --   -0.55444  -0.55160  -0.55036  -0.54906  -0.54478
 Alpha  occ. eigenvalues --   -0.54101  -0.53089  -0.52977  -0.52431  -0.52365
 Alpha  occ. eigenvalues --   -0.52319  -0.52196  -0.52102  -0.51981  -0.51648
 Alpha  occ. eigenvalues --   -0.51311  -0.51300  -0.50833  -0.50375  -0.48491
 Alpha  occ. eigenvalues --   -0.48174  -0.47722  -0.47389  -0.47307  -0.47004
 Alpha  occ. eigenvalues --   -0.46838  -0.46744  -0.46219  -0.45814  -0.45655
 Alpha  occ. eigenvalues --   -0.45429  -0.44870  -0.44736  -0.44666  -0.44575
 Alpha  occ. eigenvalues --   -0.44435  -0.43952  -0.43436  -0.43054  -0.42835
 Alpha  occ. eigenvalues --   -0.42729  -0.42417  -0.41937  -0.40889  -0.39914
 Alpha  occ. eigenvalues --   -0.37723  -0.37234  -0.36390  -0.35912  -0.35842
 Alpha  occ. eigenvalues --   -0.35587  -0.35477  -0.35457  -0.35269  -0.34661
 Alpha  occ. eigenvalues --   -0.34490  -0.34056  -0.33676  -0.33001  -0.32576
 Alpha  occ. eigenvalues --   -0.29968
 Alpha virt. eigenvalues --   -0.17741  -0.14510  -0.14042  -0.13380  -0.12290
 Alpha virt. eigenvalues --   -0.12132  -0.11457  -0.11272  -0.10916  -0.10387
 Alpha virt. eigenvalues --   -0.09984  -0.09771  -0.08709  -0.07139  -0.06932

 Mulliken charges:
               1
     1  P    0.471783
     2  P    0.347308
     3  C   -0.063103
     4  C   -0.096153
     5  C   -0.101066
     6  C   -0.090219
     7  C   -0.141796
     8  C   -0.131688
     9  H    0.172728
    10  H    0.132122
    11  H    0.136430
    12  H    0.133193
    13  H    0.162164
    14  C   -0.065305
    15  C   -0.107773
    16  C   -0.088616
    17  C   -0.106748
    18  C   -0.035856
    19  C   -0.215157
    20  H    0.169325
    21  H    0.130053
    22  H    0.136073
    23  H    0.127690
    24  H    0.143938
    25  C   -0.100261
    26  C   -0.099170
    27  C   -0.094493
    28  C   -0.100304
    29  C   -0.054550
    30  C   -0.214742
    31  H    0.148995
    32  H    0.129863
    33  H    0.138114
    34  H    0.134354
    35  H    0.160080
    36  C   -0.003624
    37  C   -0.122937
    38  C   -0.088192
    39  C   -0.095110
    40  C   -0.050233
    41  C   -0.280801
    42  H    0.153693
    43  H    0.129398
    44  H    0.137678
    45  H    0.132859
    46  H    0.133027
    47  C   -0.633838
    48  Rh  -0.579584
    49  C   -0.016555
    50  C   -0.108330
    51  C   -0.025599
    52  C   -0.080872
    53  C   -0.355416
    54  H    0.183694
    55  H    0.216647
    56  C   -0.231366
    57  C   -0.358488
    58  H    0.208703
    59  C   -0.218976
    60  H    0.166703
    61  H    0.166709
    62  H    0.165891
    63  H    0.169517
    64  H    0.129172
    65  H    0.166328
    66  H    0.167174
    67  H    0.131709
    68  H    0.169111
    69  C    0.050156
    70  H    0.172011
    71  C    0.038265
    72  C   -0.122287
    73  C    0.010838
    74  C   -0.121354
    75  H    0.118776
    76  C   -0.195058
    77  H    0.142173
    78  C    0.104538
    79  H    0.128424
    80  H    0.119676
    81  C   -0.431508
    82  H    0.142141
    83  H    0.158752
    84  H    0.139147
 Sum of Mulliken charges =   1.00000

 Dipole moment (field-independent basis, Debye):
    X=              0.4986    Y=              0.0685    Z=             -0.0957  Tot=              0.5123
 Quadrupole moment (field-independent basis, Debye-Ang):
   XX=           -217.3596   YY=           -233.5935   ZZ=           -236.3338
   XY=             -1.3070   XZ=             -2.5144   YZ=             -2.5069

 Summary of Natural Population Analysis:

                                       Natural Population
                Natural  -----------------------------------------------
    Atom  No    Charge         Core      Valence    Rydberg      Total
 -----------------------------------------------------------------------
      P    1    1.13541      9.99618     3.81360    0.05481    13.86459
      P    2    1.11313      9.99624     3.83573    0.05490    13.88687
      C    3   -0.19530      1.99909     4.18015    0.01606     6.19530
      C    4   -0.19008      1.99919     4.17590    0.01499     6.19008
      C    5   -0.18170      1.99920     4.16788    0.01461     6.18170
      C    6   -0.19319      1.99919     4.17940    0.01459     6.19319
      C    7   -0.20119      1.99909     4.18684    0.01526     6.20119
      C    8   -0.34109      1.99898     4.31867    0.02344     6.34109
      H    9    0.22382      0.00000     0.77346    0.00272     0.77618
      H   10    0.22156      0.00000     0.77717    0.00127     0.77844
      H   11    0.22209      0.00000     0.77674    0.00117     0.77791
      H   12    0.22177      0.00000     0.77699    0.00124     0.77823
      H   13    0.21323      0.00000     0.78476    0.00201     0.78677
      C   14   -0.19295      1.99909     4.17806    0.01580     6.19295
      C   15   -0.19265      1.99919     4.17858    0.01488     6.19265
      C   16   -0.17815      1.99920     4.16427    0.01468     6.17815
      C   17   -0.19518      1.99919     4.18130    0.01469     6.19518
      C   18   -0.19017      1.99910     4.17516    0.01591     6.19017
      C   19   -0.33364      1.99897     4.30964    0.02503     6.33364
      H   20    0.22166      0.00000     0.77630    0.00204     0.77834
      H   21    0.22070      0.00000     0.77807    0.00122     0.77930
      H   22    0.22156      0.00000     0.77729    0.00116     0.77844
      H   23    0.21968      0.00000     0.77910    0.00122     0.78032
      H   24    0.21648      0.00000     0.78157    0.00196     0.78352
      C   25   -0.19855      1.99910     4.18414    0.01532     6.19855
      C   26   -0.19488      1.99920     4.18092    0.01476     6.19488
      C   27   -0.18183      1.99920     4.16789    0.01473     6.18183
      C   28   -0.19090      1.99920     4.17700    0.01470     6.19090
      C   29   -0.19448      1.99910     4.18008    0.01530     6.19448
      C   30   -0.34635      1.99899     4.32321    0.02416     6.34635
      H   31    0.21527      0.00000     0.78269    0.00204     0.78473
      H   32    0.22036      0.00000     0.77841    0.00123     0.77964
      H   33    0.22235      0.00000     0.77647    0.00117     0.77765
      H   34    0.22264      0.00000     0.77614    0.00122     0.77736
      H   35    0.22400      0.00000     0.77429    0.00172     0.77600
      C   36   -0.17996      1.99909     4.16548    0.01539     6.17996
      C   37   -0.19663      1.99920     4.18287    0.01457     6.19663
      C   38   -0.17669      1.99921     4.16291    0.01457     6.17669
      C   39   -0.19479      1.99920     4.18103    0.01456     6.19479
      C   40   -0.19039      1.99909     4.17532    0.01598     6.19039
      C   41   -0.34280      1.99898     4.31900    0.02481     6.34280
      H   42    0.22120      0.00000     0.77679    0.00201     0.77880
      H   43    0.22081      0.00000     0.77796    0.00123     0.77919
      H   44    0.22191      0.00000     0.77691    0.00118     0.77809
      H   45    0.22193      0.00000     0.77682    0.00124     0.77807
      H   46    0.21477      0.00000     0.78333    0.00190     0.78523
      C   47   -0.63783      1.99903     4.61222    0.02658     6.63783
     Rh   48   -0.38088     35.98580     9.36640    0.02868    45.38088
      C   49   -0.18872      1.99906     4.17006    0.01960     6.18872
      C   50   -0.14997      1.99907     4.13109    0.01981     6.14997
      C   51   -0.16758      1.99907     4.14898    0.01953     6.16758
      C   52   -0.16776      1.99907     4.14889    0.01979     6.16776
      C   53   -0.42216      1.99936     4.41108    0.01172     6.42216
      H   54    0.22488      0.00000     0.77321    0.00192     0.77512
      H   55    0.23124      0.00000     0.76682    0.00194     0.76876
      C   56   -0.41715      1.99935     4.40523    0.01257     6.41715
      C   57   -0.42424      1.99936     4.41305    0.01183     6.42424
      H   58    0.22997      0.00000     0.76808    0.00195     0.77003
      C   59   -0.41839      1.99935     4.40642    0.01262     6.41839
      H   60    0.22411      0.00000     0.77384    0.00205     0.77589
      H   61    0.22715      0.00000     0.77135    0.00150     0.77285
      H   62    0.21390      0.00000     0.78409    0.00201     0.78610
      H   63    0.23229      0.00000     0.76578    0.00193     0.76771
      H   64    0.21462      0.00000     0.78381    0.00156     0.78538
      H   65    0.21410      0.00000     0.78391    0.00199     0.78590
      H   66    0.22752      0.00000     0.77100    0.00147     0.77248
      H   67    0.21628      0.00000     0.78219    0.00153     0.78372
      H   68    0.23242      0.00000     0.76565    0.00193     0.76758
      C   69   -0.10291      1.99900     4.08349    0.02042     6.10291
      H   70    0.21196      0.00000     0.78443    0.00362     0.78804
      C   71   -0.12653      1.99905     4.10768    0.01979     6.12653
      C   72   -0.14670      1.99916     4.13357    0.01397     6.14670
      C   73   -0.15545      1.99911     4.14112    0.01521     6.15545
      C   74   -0.20465      1.99911     4.19171    0.01383     6.20465
      H   75    0.21052      0.00000     0.78796    0.00152     0.78948
      C   76   -0.20017      1.99911     4.18712    0.01394     6.20017
      H   77    0.21074      0.00000     0.78623    0.00303     0.78926
      C   78    0.02911      1.99915     3.95760    0.01414     5.97089
      H   79    0.21683      0.00000     0.78179    0.00138     0.78317
      H   80    0.21162      0.00000     0.78653    0.00185     0.78838
      C   81   -0.62027      1.99941     4.61365    0.00722     6.62027
      H   82    0.22113      0.00000     0.77761    0.00126     0.77887
      H   83    0.22878      0.00000     0.76985    0.00137     0.77122
      H   84    0.21941      0.00000     0.77942    0.00116     0.78059
 =======================================================================
   * Total *    1.00000    137.94310   221.17923    0.87767   360.00000

 Normal termination of Gaussian 16 at Sun Jan 19 23:42:46 2025.
