 Gaussian 16, Revision B.01,
 Gaussian 16:  ES64L-G16RevB.01 20-Dec-2017

 ------------------------------------------
 # nmr=giao b3lyp/genecp pop=nbo scfcyc=200
 ------------------------------------------

 ---------
 DS-22_SPE
 ---------
 Symbolic Z-matrix:
 Charge =  1 Multiplicity = 1

                         Standard orientation:
 ---------------------------------------------------------------------
 Center     Atomic      Atomic             Coordinates (Angstroms)
 Number     Number       Type             X           Y           Z
 ---------------------------------------------------------------------
      1         15           0       -0.971320    1.402250    0.108120
      2         15           0        0.207970   -1.126510    0.026020
      3          6           0        1.248260   -1.278800    2.649460
      4          6           0        1.577690   -1.941050    3.827730
      5          6           0        1.449410   -3.322790    3.914900
      6          6           0        0.986370   -4.044580    2.818290
      7          6           0        0.652630   -3.387610    1.639980
      8          6           0        0.791330   -1.997120    1.541570
      9          1           0        1.350970   -0.202820    2.595180
     10          1           0        1.937040   -1.373750    4.677150
     11          1           0        1.708260   -3.836180    4.832260
     12          1           0        0.883260   -5.120790    2.879720
     13          1           0        0.293830   -3.965580    0.796920
     14          6           0        2.051180   -2.857500   -1.342280
     15          6           0        2.586720   -3.426600   -2.493750
     16          6           0        2.082000   -3.087590   -3.743810
     17          6           0        1.029310   -2.182000   -3.841990
     18          6           0        0.484170   -1.621270   -2.694050
     19          6           0        0.997090   -1.945650   -1.432240
     20          1           0        2.456240   -3.137540   -0.379620
     21          1           0        3.401660   -4.134740   -2.410480
     22          1           0        2.501690   -3.531790   -4.637570
     23          1           0        0.625560   -1.920740   -4.812250
     24          1           0       -0.350970   -0.935230   -2.774780
     25          6           0       -0.284590    2.560290   -2.386130
     26          6           0       -0.470920    3.439040   -3.448770
     27          6           0       -1.475621    4.399190   -3.396890
     28          6           0       -2.296651    4.479510   -2.276030
     29          6           0       -2.113781    3.604860   -1.211120
     30          6           0       -1.098540    2.641520   -1.252920
     31          1           0        0.499570    1.816700   -2.442390
     32          1           0        0.171860    3.371800   -4.317740
     33          1           0       -1.618081    5.082550   -4.224470
     34          1           0       -3.080191    5.225410   -2.228100
     35          1           0       -2.755661    3.686880   -0.342560
     36          6           0       -1.731920    1.755510    2.776010
     37          6           0       -1.809270    2.423180    3.994090
     38          6           0       -1.292071    3.708080    4.118070
     39          6           0       -0.695421    4.325030    3.021730
     40          6           0       -0.614111    3.660490    1.803650
     41          6           0       -1.132360    2.367680    1.671920
     42          1           0       -2.135060    0.754440    2.679730
     43          1           0       -2.277950    1.941530    4.843190
     44          1           0       -1.356751    4.230320    5.064360
     45          1           0       -0.296041    5.327370    3.113950
     46          1           0       -0.160461    4.158630    0.956310
     47          6           0        0.714770    0.649540    0.087430
     48         45           0       -2.094430   -0.640370   -0.112000
     49          6           0       -4.267780   -0.057731    0.285600
     50          6           0       -3.990570    0.122569   -1.053540
     51          6           0       -2.922480   -2.600830   -0.960220
     52          6           0       -2.941710   -2.663740    0.416150
     53          6           0       -5.027570   -1.230371    0.877820
     54          1           0       -4.183270    0.814319    0.924930
     55          1           0       -3.737450    1.126379   -1.378060
     56          6           0       -4.314530   -0.827001   -2.181080
     57          6           0       -4.122940   -2.321991   -1.845120
     58          1           0       -2.063110   -3.032080   -1.461780
     59          6           0       -4.121360   -2.400301    1.319860
     60          1           0       -2.113710   -3.167130    0.903950
     61          1           0       -5.584240   -0.878771    1.748170
     62          1           0       -5.776000   -1.578301    0.165960
     63          1           0       -5.342860   -0.653901   -2.523020
     64          1           0       -3.673710   -0.565451   -3.025890
     65          1           0       -5.022060   -2.724381   -1.378780
     66          1           0       -3.998990   -2.871831   -2.779640
     67          1           0       -3.730630   -2.192191    2.318370
     68          1           0       -4.720340   -3.314331    1.419690
     69          6           0        1.866060    1.362160    0.049310
     70          1           0        1.714710    2.440370    0.007940
     71          6           0        3.270530    1.015870    0.032660
     72          6           0        4.190280    2.047870   -0.225120
     73          6           0        3.793670   -0.270930    0.273260
     74          6           0        5.555870    1.823850   -0.271360
     75          1           0        3.821570    3.051980   -0.400310
     76          6           0        5.148140   -0.507770    0.241380
     77          1           0        3.131130   -1.085960    0.515740
     78          6           0        6.047850    0.534290   -0.039010
     79          1           0        6.224030    2.646730   -0.479160
     80          1           0        5.549990   -1.493010    0.437860
     81          8           0        7.350140    0.195020   -0.051050
     82          6           0        8.335170    1.196700   -0.316440
     83          1           0        9.291830    0.683941   -0.272200
     84          1           0        8.198610    1.629010   -1.310580
     85          1           0        8.308420    1.984550    0.440120
 ---------------------------------------------------------------------

 SCF Done:  E(RB3LYP) =  -2455.40025846     A.U. after   17 cycles

      1  P    Isotropic =   295.0101   Anisotropy =    61.4355

      2  P    Isotropic =   296.1715   Anisotropy =    67.5376

      3  C    Isotropic =    47.2076   Anisotropy =   190.9241

      4  C    Isotropic =    48.3221   Anisotropy =   191.2797

      5  C    Isotropic =    46.6456   Anisotropy =   195.8227

      6  C    Isotropic =    48.8304   Anisotropy =   190.3934

      7  C    Isotropic =    48.1761   Anisotropy =   188.4473

      8  C    Isotropic =    48.3425   Anisotropy =   167.9922

      9  H    Isotropic =    24.3935   Anisotropy =     8.4502

     10  H    Isotropic =    24.3448   Anisotropy =     6.9404

     11  H    Isotropic =    24.0334   Anisotropy =     3.3415

     12  H    Isotropic =    24.0109   Anisotropy =     5.8981

     13  H    Isotropic =    24.3068   Anisotropy =    10.5148

     14  C    Isotropic =    46.3052   Anisotropy =   192.8432

     15  C    Isotropic =    50.2166   Anisotropy =   186.8509

     16  C    Isotropic =    46.0215   Anisotropy =   195.5775

     17  C    Isotropic =    49.0242   Anisotropy =   187.6159

     18  C    Isotropic =    42.5582   Anisotropy =   183.9633

     19  C    Isotropic =    46.8053   Anisotropy =   165.8047

     20  H    Isotropic =    24.0791   Anisotropy =    11.1649

     21  H    Isotropic =    24.2868   Anisotropy =     6.1833

     22  H    Isotropic =    24.1399   Anisotropy =     3.6644

     23  H    Isotropic =    24.0984   Anisotropy =     6.9703

     24  H    Isotropic =    23.3164   Anisotropy =     9.5014

     25  C    Isotropic =    48.2042   Anisotropy =   191.3146

     26  C    Isotropic =    49.2677   Anisotropy =   188.7053

     27  C    Isotropic =    46.8094   Anisotropy =   194.6029

     28  C    Isotropic =    48.3045   Anisotropy =   190.6113

     29  C    Isotropic =    46.9598   Anisotropy =   190.5737

     30  C    Isotropic =    44.0086   Anisotropy =   170.6886

     31  H    Isotropic =    23.9370   Anisotropy =     9.7881

     32  H    Isotropic =    24.0966   Anisotropy =     6.8576

     33  H    Isotropic =    24.0185   Anisotropy =     3.4992

     34  H    Isotropic =    24.1483   Anisotropy =     6.1315

     35  H    Isotropic =    24.5895   Anisotropy =    11.1918

     36  C    Isotropic =    42.3397   Anisotropy =   180.3774

     37  C    Isotropic =    49.3817   Anisotropy =   187.4076

     38  C    Isotropic =    45.5501   Anisotropy =   196.1735

     39  C    Isotropic =    48.5809   Anisotropy =   188.9394

     40  C    Isotropic =    47.4267   Anisotropy =   186.3389

     41  C    Isotropic =    41.6520   Anisotropy =   175.6443

     42  H    Isotropic =    23.4417   Anisotropy =     9.8299

     43  H    Isotropic =    24.1522   Anisotropy =     6.9370

     44  H    Isotropic =    24.0206   Anisotropy =     3.7936

     45  H    Isotropic =    24.2103   Anisotropy =     6.2570

     46  H    Isotropic =    24.3178   Anisotropy =    11.4517

     47  C    Isotropic =    44.0942   Anisotropy =    49.4036

     48  Rh   Isotropic =  -303.2600   Anisotropy =   329.4348

     49  C    Isotropic =    81.0481   Anisotropy =   118.4606

     50  C    Isotropic =    73.2955   Anisotropy =   121.9497

     51  C    Isotropic =    76.9934   Anisotropy =   123.9249

     52  C    Isotropic =    73.8663   Anisotropy =   120.1260

     53  C    Isotropic =   154.0737   Anisotropy =    24.8845

     54  H    Isotropic =    26.9365   Anisotropy =     6.0163

     55  H    Isotropic =    26.8009   Anisotropy =     5.1885

     56  C    Isotropic =   148.0323   Anisotropy =    29.0909

     57  C    Isotropic =   153.9739   Anisotropy =    24.7574

     58  H    Isotropic =    27.0668   Anisotropy =     4.6176

     59  C    Isotropic =   148.5464   Anisotropy =    28.8707

     60  H    Isotropic =    26.5579   Anisotropy =     5.1494

     61  H    Isotropic =    29.8926   Anisotropy =    11.5205

     62  H    Isotropic =    29.8747   Anisotropy =     9.7582

     63  H    Isotropic =    29.3290   Anisotropy =    12.5123

     64  H    Isotropic =    29.3770   Anisotropy =     6.7624

     65  H    Isotropic =    29.8885   Anisotropy =     9.8139

     66  H    Isotropic =    29.9921   Anisotropy =    11.0288

     67  H    Isotropic =    29.3221   Anisotropy =     7.0197

     68  H    Isotropic =    29.2681   Anisotropy =    12.6442

     69  C    Isotropic =    18.7042   Anisotropy =   160.9511

     70  H    Isotropic =    24.4193   Anisotropy =    12.0323

     71  C    Isotropic =    53.7667   Anisotropy =   173.9440

     72  C    Isotropic =    40.1098   Anisotropy =   171.4717

     73  C    Isotropic =    46.4092   Anisotropy =   186.4907

     74  C    Isotropic =    71.0162   Anisotropy =   156.4275

     75  H    Isotropic =    24.7327   Anisotropy =     9.8926

     76  C    Isotropic =    61.0324   Anisotropy =   150.1963

     77  H    Isotropic =    24.5887   Anisotropy =     9.9683

     78  C    Isotropic =    10.5614   Anisotropy =   151.4165

     79  H    Isotropic =    25.2677   Anisotropy =     7.5696

     80  H    Isotropic =    25.2033   Anisotropy =     9.8099

     81  O    Isotropic =   194.9697   Anisotropy =   126.2837

     82  C    Isotropic =   127.8408   Anisotropy =    78.0507

     83  H    Isotropic =    27.8036   Anisotropy =     9.2294

     84  H    Isotropic =    28.3893   Anisotropy =     8.4765

     85  H    Isotropic =    28.3811   Anisotropy =     8.6573

 The electronic state is 1-A.
 Alpha  occ. eigenvalues --  -77.23197 -77.22704 -19.25172 -10.33575 -10.30669
 Alpha  occ. eigenvalues --  -10.30345 -10.29120 -10.29079 -10.28976 -10.28888
 Alpha  occ. eigenvalues --  -10.28659 -10.28122 -10.28117 -10.28074 -10.27976
 Alpha  occ. eigenvalues --  -10.27916 -10.27872 -10.27835 -10.27619 -10.27613
 Alpha  occ. eigenvalues --  -10.27585 -10.27571 -10.27550 -10.27534 -10.27487
 Alpha  occ. eigenvalues --  -10.27479 -10.27111 -10.27003 -10.27001 -10.26971
 Alpha  occ. eigenvalues --  -10.26953 -10.26949 -10.26947 -10.26947 -10.26897
 Alpha  occ. eigenvalues --  -10.26877 -10.26862 -10.26847 -10.26819 -10.26705
 Alpha  occ. eigenvalues --  -10.26691 -10.26508 -10.26491 -10.26484  -6.69098
 Alpha  occ. eigenvalues --   -6.68657  -4.85389  -4.85324  -4.85005  -4.84932
 Alpha  occ. eigenvalues --   -4.84883  -4.84573  -3.30525  -2.07425  -2.06747
 Alpha  occ. eigenvalues --   -2.04003  -1.16419  -0.96440  -0.96023  -0.95947
 Alpha  occ. eigenvalues --   -0.95524  -0.95394  -0.93549  -0.90818  -0.88265
 Alpha  occ. eigenvalues --   -0.87177  -0.87159  -0.86640  -0.85220  -0.84810
 Alpha  occ. eigenvalues --   -0.84706  -0.84633  -0.84557  -0.84323  -0.84193
 Alpha  occ. eigenvalues --   -0.83795  -0.80141  -0.79448  -0.76962  -0.76327
 Alpha  occ. eigenvalues --   -0.74993  -0.71415  -0.71087  -0.70680  -0.70425
 Alpha  occ. eigenvalues --   -0.70378  -0.70068  -0.69718  -0.69640  -0.69506
 Alpha  occ. eigenvalues --   -0.68082  -0.66483  -0.64980  -0.64285  -0.62670
 Alpha  occ. eigenvalues --   -0.61844  -0.61671  -0.61465  -0.60746  -0.60130
 Alpha  occ. eigenvalues --   -0.59134  -0.58698  -0.57183  -0.56195  -0.55851
 Alpha  occ. eigenvalues --   -0.55660  -0.55529  -0.55422  -0.55374  -0.55270
 Alpha  occ. eigenvalues --   -0.54976  -0.54831  -0.54753  -0.54495  -0.53800
 Alpha  occ. eigenvalues --   -0.52937  -0.52802  -0.52398  -0.52224  -0.52123
 Alpha  occ. eigenvalues --   -0.52021  -0.51881  -0.51787  -0.51725  -0.51256
 Alpha  occ. eigenvalues --   -0.50635  -0.50274  -0.49366  -0.48304  -0.48034
 Alpha  occ. eigenvalues --   -0.47957  -0.47265  -0.47120  -0.47061  -0.46686
 Alpha  occ. eigenvalues --   -0.46573  -0.45857  -0.45336  -0.45324  -0.45143
 Alpha  occ. eigenvalues --   -0.44688  -0.44511  -0.44400  -0.44369  -0.44201
 Alpha  occ. eigenvalues --   -0.43236  -0.42979  -0.42604  -0.42550  -0.42174
 Alpha  occ. eigenvalues --   -0.41968  -0.41770  -0.40563  -0.38654  -0.37427
 Alpha  occ. eigenvalues --   -0.36920  -0.36225  -0.35763  -0.35657  -0.35602
 Alpha  occ. eigenvalues --   -0.35322  -0.35221  -0.35043  -0.34947  -0.34213
 Alpha  occ. eigenvalues --   -0.33508  -0.33311  -0.32748  -0.31262  -0.29640
 Alpha virt. eigenvalues --   -0.17630  -0.14305  -0.13822  -0.12929  -0.12223
 Alpha virt. eigenvalues --   -0.11732  -0.11499  -0.10976  -0.10945  -0.10454
 Alpha virt. eigenvalues --   -0.09917  -0.09335  -0.08397  -0.06761  -0.06262

 Mulliken charges:
               1
     1  P    0.453066
     2  P    0.373100
     3  C   -0.099438
     4  C   -0.085053
     5  C   -0.108436
     6  C   -0.080873
     7  C   -0.182227
     8  C   -0.097332
     9  H    0.168400
    10  H    0.132601
    11  H    0.135007
    12  H    0.134378
    13  H    0.174446
    14  C   -0.070338
    15  C   -0.111634
    16  C   -0.087283
    17  C   -0.109644
    18  C   -0.070139
    19  C   -0.191046
    20  H    0.167406
    21  H    0.131191
    22  H    0.135542
    23  H    0.128182
    24  H    0.184893
    25  C   -0.120637
    26  C   -0.106666
    27  C   -0.100532
    28  C   -0.082805
    29  C   -0.125580
    30  C   -0.127693
    31  H    0.176625
    32  H    0.129987
    33  H    0.135882
    34  H    0.134119
    35  H    0.159215
    36  C   -0.071630
    37  C   -0.100495
    38  C   -0.093808
    39  C   -0.093774
    40  C   -0.068991
    41  C   -0.239595
    42  H    0.176326
    43  H    0.128667
    44  H    0.136197
    45  H    0.132268
    46  H    0.152628
    47  C   -0.621177
    48  Rh  -0.685433
    49  C   -0.030132
    50  C   -0.103817
    51  C   -0.018057
    52  C   -0.099061
    53  C   -0.346207
    54  H    0.192244
    55  H    0.212815
    56  C   -0.231961
    57  C   -0.352685
    58  H    0.196400
    59  C   -0.227123
    60  H    0.191293
    61  H    0.166617
    62  H    0.165901
    63  H    0.168736
    64  H    0.133504
    65  H    0.165738
    66  H    0.166819
    67  H    0.132046
    68  H    0.168963
    69  C    0.090849
    70  H    0.153359
    71  C    0.008445
    72  C   -0.128397
    73  C    0.069814
    74  C   -0.162868
    75  H    0.115230
    76  C   -0.257526
    77  H    0.110958
    78  C    0.174464
    79  H    0.154002
    80  H    0.134163
    81  O   -0.179814
    82  C   -0.220207
    83  H    0.162804
    84  H    0.136973
    85  H    0.137857
 Sum of Mulliken charges =   1.00000

 Dipole moment (field-independent basis, Debye):
    X=              1.5555    Y=              1.1755    Z=             -0.3300  Tot=              1.9775
 Quadrupole moment (field-independent basis, Debye-Ang):
   XX=           -204.1087   YY=           -235.3436   ZZ=           -246.3068
   XY=              8.8835   XZ=             -3.6643   YZ=             -2.3964

 Summary of Natural Population Analysis:

                                       Natural Population
                Natural  -----------------------------------------------
    Atom  No    Charge         Core      Valence    Rydberg      Total
 -----------------------------------------------------------------------
      P    1    1.13451      9.99619     3.81435    0.05495    13.86549
      P    2    1.11757      9.99621     3.83146    0.05476    13.88243
      C    3   -0.19414      1.99909     4.17984    0.01522     6.19414
      C    4   -0.19050      1.99920     4.17671    0.01459     6.19050
      C    5   -0.18354      1.99920     4.16967    0.01467     6.18354
      C    6   -0.19333      1.99919     4.17947    0.01467     6.19333
      C    7   -0.20756      1.99909     4.19311    0.01536     6.20756
      C    8   -0.34382      1.99898     4.32142    0.02341     6.34382
      H    9    0.22382      0.00000     0.77393    0.00224     0.77618
      H   10    0.22131      0.00000     0.77746    0.00123     0.77869
      H   11    0.22196      0.00000     0.77687    0.00118     0.77804
      H   12    0.22179      0.00000     0.77699    0.00123     0.77821
      H   13    0.21684      0.00000     0.78109    0.00208     0.78316
      C   14   -0.19328      1.99909     4.17883    0.01536     6.19328
      C   15   -0.19295      1.99919     4.17908    0.01468     6.19295
      C   16   -0.17817      1.99920     4.16439    0.01458     6.17817
      C   17   -0.19651      1.99919     4.18282    0.01449     6.19651
      C   18   -0.18874      1.99910     4.17423    0.01541     6.18874
      C   19   -0.33691      1.99896     4.31369    0.02425     6.33691
      H   20    0.21894      0.00000     0.77897    0.00208     0.78106
      H   21    0.22102      0.00000     0.77773    0.00125     0.77898
      H   22    0.22146      0.00000     0.77736    0.00118     0.77854
      H   23    0.21969      0.00000     0.77906    0.00125     0.78031
      H   24    0.22132      0.00000     0.77678    0.00190     0.77868
      C   25   -0.20076      1.99910     4.18627    0.01540     6.20076
      C   26   -0.19299      1.99920     4.17906    0.01472     6.19299
      C   27   -0.18501      1.99920     4.17106    0.01475     6.18501
      C   28   -0.19151      1.99920     4.17757    0.01474     6.19151
      C   29   -0.20302      1.99909     4.18866    0.01526     6.20302
      C   30   -0.33951      1.99899     4.31650    0.02402     6.33951
      H   31    0.21977      0.00000     0.77802    0.00221     0.78023
      H   32    0.21977      0.00000     0.77900    0.00124     0.78023
      H   33    0.22165      0.00000     0.77717    0.00118     0.77835
      H   34    0.22192      0.00000     0.77685    0.00123     0.77808
      H   35    0.21974      0.00000     0.77846    0.00180     0.78026
      C   36   -0.18589      1.99910     4.17137    0.01543     6.18589
      C   37   -0.19659      1.99920     4.18283    0.01456     6.19659
      C   38   -0.17882      1.99921     4.16501    0.01460     6.17882
      C   39   -0.19354      1.99920     4.17969    0.01465     6.19354
      C   40   -0.19391      1.99909     4.17905    0.01576     6.19391
      C   41   -0.34182      1.99899     4.31831    0.02453     6.34182
      H   42    0.22293      0.00000     0.77514    0.00193     0.77707
      H   43    0.22000      0.00000     0.77876    0.00123     0.78000
      H   44    0.22141      0.00000     0.77741    0.00118     0.77859
      H   45    0.22107      0.00000     0.77769    0.00124     0.77893
      H   46    0.21731      0.00000     0.78080    0.00189     0.78269
      C   47   -0.66170      1.99905     4.63601    0.02664     6.66170
     Rh   48   -0.38923     35.98597     9.37460    0.02866    45.38923
      C   49   -0.18233      1.99907     4.16361    0.01965     6.18233
      C   50   -0.15708      1.99908     4.13813    0.01987     6.15708
      C   51   -0.17384      1.99907     4.15521    0.01956     6.17384
      C   52   -0.16499      1.99908     4.14606    0.01986     6.16499
      C   53   -0.42250      1.99936     4.41137    0.01177     6.42250
      H   54    0.22611      0.00000     0.77187    0.00202     0.77389
      H   55    0.22979      0.00000     0.76805    0.00216     0.77021
      C   56   -0.41760      1.99935     4.40566    0.01259     6.41760
      C   57   -0.42328      1.99936     4.41210    0.01181     6.42328
      H   58    0.22823      0.00000     0.76982    0.00195     0.77177
      C   59   -0.41799      1.99935     4.40601    0.01263     6.41799
      H   60    0.22727      0.00000     0.77052    0.00221     0.77273
      H   61    0.22692      0.00000     0.77158    0.00150     0.77308
      H   62    0.21356      0.00000     0.78444    0.00201     0.78644
      H   63    0.23173      0.00000     0.76634    0.00193     0.76827
      H   64    0.21589      0.00000     0.78257    0.00154     0.78411
      H   65    0.21352      0.00000     0.78448    0.00200     0.78648
      H   66    0.22725      0.00000     0.77126    0.00149     0.77275
      H   67    0.21605      0.00000     0.78241    0.00154     0.78395
      H   68    0.23177      0.00000     0.76630    0.00193     0.76823
      C   69   -0.08562      1.99901     4.06546    0.02115     6.08562
      H   70    0.20894      0.00000     0.78722    0.00384     0.79106
      C   71   -0.15064      1.99905     4.13211    0.01948     6.15064
      C   72   -0.12238      1.99918     4.10865    0.01454     6.12238
      C   73   -0.14412      1.99911     4.12954    0.01546     6.14412
      C   74   -0.29851      1.99907     4.28545    0.01399     6.29851
      H   75    0.21143      0.00000     0.78705    0.00151     0.78857
      C   76   -0.23456      1.99911     4.22051    0.01495     6.23456
      H   77    0.21335      0.00000     0.78375    0.00289     0.78665
      C   78    0.32460      1.99881     3.65653    0.02006     5.67540
      H   79    0.22595      0.00000     0.77228    0.00177     0.77405
      H   80    0.23039      0.00000     0.76809    0.00152     0.76961
      O   81   -0.42617      1.99975     6.41172    0.01470     8.42617
      C   82   -0.26100      1.99927     4.24896    0.01277     6.26100
      H   83    0.20877      0.00000     0.79006    0.00117     0.79123
      H   84    0.17930      0.00000     0.81864    0.00205     0.82070
      H   85    0.17972      0.00000     0.81823    0.00205     0.82028
 =======================================================================
   * Total *    1.00000    139.94256   227.15262    0.90483   368.00000

 Normal termination of Gaussian 16 at Sun Jan 19 23:42:10 2025.
