 Gaussian 16, Revision B.01,
 Gaussian 16:  ES64L-G16RevB.01 20-Dec-2017

 ------------------------------------------
 # nmr=giao b3lyp/genecp pop=nbo scfcyc=200
 ------------------------------------------

 ---------
 DS-37_SPE
 ---------
 Symbolic Z-matrix:
 Charge =  1 Multiplicity = 1

                         Standard orientation:
 ---------------------------------------------------------------------
 Center     Atomic      Atomic             Coordinates (Angstroms)
 Number     Number       Type             X           Y           Z
 ---------------------------------------------------------------------
      1         15           0        0.552181   -1.256950   -0.085500
      2         15           0        0.138070    1.492590   -0.101240
      3          6           0        1.531420    0.313551   -0.687260
      4          6           0        0.652871   -2.863220    2.283810
      5          6           0        1.393431   -3.237699    3.569600
      6          6           0        2.147341   -3.388169   -1.327860
      7          6           0        2.125012   -4.588329   -2.278390
      8          6           0       -0.268271    3.131510    2.196780
      9          6           0        0.240369    3.622920    3.553990
     10          6           0        1.305329    3.912971   -1.211200
     11          6           0        1.156749    5.052170   -2.222580
     12          1           0        0.555541   -3.751950    1.653350
     13          1           0       -0.362619   -2.542180    2.529110
     14          1           0        0.866861   -4.028910    4.105510
     15          1           0        1.478501   -2.380329    4.241140
     16          1           0        2.403021   -3.596219    3.356480
     17          1           0        2.471271   -3.719629   -0.338340
     18          1           0        2.894361   -2.669519   -1.673500
     19          1           0        3.109022   -5.056149   -2.335800
     20          1           0        1.415612   -5.347449   -1.941280
     21          1           0        1.839062   -4.289229   -3.289320
     22          1           0       -1.243341    2.654010    2.325640
     23          1           0       -0.427091    3.991980    1.540820
     24          1           0       -0.464071    4.325380    4.002270
     25          1           0        0.371999    2.792560    4.251510
     26          1           0        1.201619    4.132241    3.456320
     27          1           0        2.214439    3.346191   -1.425560
     28          1           0        1.438689    4.333191   -0.211910
     29          1           0        2.025068    5.712231   -2.193250
     30          1           0        1.063419    4.670400   -3.241970
     31          1           0        0.272448    5.657790   -2.011210
     32         45           0       -1.527770   -0.152700   -0.075250
     33          6           0       -2.920489   -1.839961   -0.764320
     34          6           0       -2.884049   -1.826721    0.612800
     35          6           0       -3.433450    1.031749    0.350150
     36          6           0       -3.189320    1.056139   -1.006960
     37          6           0       -4.041809   -1.286281   -1.623170
     38          1           0       -2.249389   -2.527001   -1.267360
     39          1           0       -2.211909   -2.528211    1.095980
     40          6           0       -3.890559   -1.192331    1.540120
     41          6           0       -4.457620    0.157509    1.048830
     42          1           0       -3.074000    1.876919    0.926990
     43          6           0       -3.825350    0.178709   -2.056600
     44          1           0       -2.694860    1.935499   -1.405760
     45          1           0       -4.127819   -1.902571   -2.519670
     46          1           0       -4.990269   -1.390771   -1.097010
     47          1           0       -4.713949   -1.892671    1.728060
     48          1           0       -3.402330   -1.043211    2.505880
     49          1           0       -5.310930   -0.005682    0.391000
     50          1           0       -4.845720    0.701319    1.911600
     51          1           0       -3.182480    0.198779   -2.939370
     52          1           0       -4.780430    0.616259   -2.373390
     53          6           0        0.774761   -2.714140   -1.230870
     54          1           0        0.437901   -2.380200   -2.215080
     55          1           0        0.030061   -3.442810   -0.895280
     56          6           0        1.367531   -1.745199    1.515010
     57          1           0        1.425010   -0.844459    2.127320
     58          1           0        2.398051   -2.032089    1.294450
     59          6           0        0.707500    2.143110    1.545510
     60          1           0        1.692079    2.591261    1.405720
     61          1           0        0.846890    1.279060    2.196500
     62          6           0        0.087769    2.979140   -1.222210
     63          1           0       -0.812611    3.531820   -0.937120
     64          1           0       -0.101011    2.601850   -2.230000
     65          6           0        1.639060    0.317411   -2.213660
     66          1           0        2.066060    1.258271   -2.563610
     67          1           0        2.273520   -0.492449   -2.573650
     68          1           0        0.657390    0.195720   -2.673270
     69          6           0        5.055780    0.472292    0.506350
     70          1           0        5.098690    1.564292    0.492760
     71          1           0        4.789410    0.179232    1.525050
     72          6           0        3.957610    0.019171   -0.439410
     73          1           0        4.192930    0.319691   -1.464820
     74          1           0        3.861231   -1.072249   -0.420020
     75          8           0        2.723750    0.628111   -0.016160
     76          6           0        6.417380   -0.112158    0.127020
     77          1           0        6.718360    0.191222   -0.878460
     78          1           0        7.188530    0.230352    0.817630
     79          1           0        6.409701   -1.204428    0.158720
 ---------------------------------------------------------------------

 SCF Done:  E(RB3LYP) =  -1851.58946170     A.U. after   15 cycles

      1  P    Isotropic =   274.5732   Anisotropy =    39.8540

      2  P    Isotropic =   272.2871   Anisotropy =    49.1750

      3  C    Isotropic =    77.1160   Anisotropy =    57.4907

      4  C    Isotropic =   161.7371   Anisotropy =    16.7027

      5  C    Isotropic =   167.5093   Anisotropy =    32.1389

      6  C    Isotropic =   161.2892   Anisotropy =    16.7838

      7  C    Isotropic =   168.1059   Anisotropy =    31.8291

      8  C    Isotropic =   162.7520   Anisotropy =    15.8169

      9  C    Isotropic =   167.5731   Anisotropy =    32.1008

     10  C    Isotropic =   162.5582   Anisotropy =    18.9143

     11  C    Isotropic =   168.1964   Anisotropy =    32.0945

     12  H    Isotropic =    30.6433   Anisotropy =     5.0567

     13  H    Isotropic =    30.3987   Anisotropy =     7.7338

     14  H    Isotropic =    30.4304   Anisotropy =    12.2547

     15  H    Isotropic =    30.8729   Anisotropy =     8.3610

     16  H    Isotropic =    30.9202   Anisotropy =     9.1968

     17  H    Isotropic =    30.4298   Anisotropy =     5.0806

     18  H    Isotropic =    30.5917   Anisotropy =     6.6645

     19  H    Isotropic =    30.4665   Anisotropy =    12.2412

     20  H    Isotropic =    30.9811   Anisotropy =     9.2971

     21  H    Isotropic =    30.9310   Anisotropy =     8.9042

     22  H    Isotropic =    30.4875   Anisotropy =     7.3601

     23  H    Isotropic =    30.6740   Anisotropy =     5.6551

     24  H    Isotropic =    30.4454   Anisotropy =    12.2950

     25  H    Isotropic =    30.9011   Anisotropy =     8.2935

     26  H    Isotropic =    30.8491   Anisotropy =     9.2972

     27  H    Isotropic =    30.4661   Anisotropy =     6.6241

     28  H    Isotropic =    30.3356   Anisotropy =     5.1533

     29  H    Isotropic =    30.5008   Anisotropy =    12.3232

     30  H    Isotropic =    30.9767   Anisotropy =     8.7028

     31  H    Isotropic =    31.0322   Anisotropy =     9.5008

     32  Rh   Isotropic =  -276.1797   Anisotropy =   303.7526

     33  C    Isotropic =    76.7586   Anisotropy =   124.4500

     34  C    Isotropic =    78.3203   Anisotropy =   115.4561

     35  C    Isotropic =    80.5914   Anisotropy =   119.8010

     36  C    Isotropic =    76.4211   Anisotropy =   117.7720

     37  C    Isotropic =   153.8661   Anisotropy =    25.3924

     38  H    Isotropic =    27.0463   Anisotropy =     6.5638

     39  H    Isotropic =    26.4527   Anisotropy =     4.7508

     40  C    Isotropic =   148.0815   Anisotropy =    30.0465

     41  C    Isotropic =   154.1356   Anisotropy =    24.8321

     42  H    Isotropic =    27.0985   Anisotropy =     7.0842

     43  C    Isotropic =   147.1865   Anisotropy =    30.9133

     44  H    Isotropic =    26.5795   Anisotropy =     4.5805

     45  H    Isotropic =    29.9036   Anisotropy =    11.5355

     46  H    Isotropic =    29.7304   Anisotropy =     9.5548

     47  H    Isotropic =    29.1073   Anisotropy =    12.6409

     48  H    Isotropic =    29.2679   Anisotropy =     7.7049

     49  H    Isotropic =    29.7577   Anisotropy =     9.7146

     50  H    Isotropic =    29.8725   Anisotropy =    11.6065

     51  H    Isotropic =    29.3066   Anisotropy =     7.6157

     52  H    Isotropic =    29.1387   Anisotropy =    12.6977

     53  C    Isotropic =   154.2973   Anisotropy =    44.9935

     54  H    Isotropic =    30.4338   Anisotropy =     3.6693

     55  H    Isotropic =    30.4130   Anisotropy =     4.1428

     56  C    Isotropic =   153.7635   Anisotropy =    30.4720

     57  H    Isotropic =    30.2475   Anisotropy =     5.3919

     58  H    Isotropic =    30.0833   Anisotropy =     5.3095

     59  C    Isotropic =   154.1008   Anisotropy =    25.9501

     60  H    Isotropic =    29.4683   Anisotropy =     4.9464

     61  H    Isotropic =    30.4296   Anisotropy =     5.8653

     62  C    Isotropic =   154.9229   Anisotropy =    45.7591

     63  H    Isotropic =    30.3709   Anisotropy =     4.7045

     64  H    Isotropic =    30.3509   Anisotropy =     3.7794

     65  C    Isotropic =   166.0829   Anisotropy =    19.6690

     66  H    Isotropic =    30.4659   Anisotropy =     8.5909

     67  H    Isotropic =    30.0971   Anisotropy =     7.0094

     68  H    Isotropic =    29.9657   Anisotropy =     3.9976

     69  C    Isotropic =   157.8360   Anisotropy =    22.0257

     70  H    Isotropic =    30.2268   Anisotropy =     5.8456

     71  H    Isotropic =    30.2404   Anisotropy =     4.4013

     72  C    Isotropic =   110.8570   Anisotropy =    71.3286

     73  H    Isotropic =    28.3838   Anisotropy =     8.0210

     74  H    Isotropic =    28.9641   Anisotropy =     6.1081

     75  O    Isotropic =   232.8017   Anisotropy =    41.3048

     76  C    Isotropic =   174.4814   Anisotropy =    23.0625

     77  H    Isotropic =    31.0942   Anisotropy =     9.4695

     78  H    Isotropic =    30.5760   Anisotropy =    11.7724

     79  H    Isotropic =    31.1781   Anisotropy =     8.4080

 The electronic state is 1-A.
 Alpha  occ. eigenvalues --  -77.22960 -77.22902 -19.24994 -10.36687 -10.32183
 Alpha  occ. eigenvalues --  -10.29608 -10.29361 -10.29359 -10.29263 -10.29204
 Alpha  occ. eigenvalues --  -10.29174 -10.28973 -10.28764 -10.28720 -10.28072
 Alpha  occ. eigenvalues --  -10.27859 -10.27766 -10.27698 -10.27593 -10.27568
 Alpha  occ. eigenvalues --  -10.27536 -10.27449 -10.26112 -10.25575 -10.25371
 Alpha  occ. eigenvalues --  -10.25226 -10.25111 -10.24644  -6.69039  -6.68971
 Alpha  occ. eigenvalues --   -4.85321  -4.85238  -4.85228  -4.85173  -4.84949
 Alpha  occ. eigenvalues --   -4.84882  -3.31595  -2.08485  -2.07815  -2.05065
 Alpha  occ. eigenvalues --   -1.15430  -0.94676  -0.92291  -0.91015  -0.89402
 Alpha  occ. eigenvalues --   -0.89391  -0.89239  -0.88840  -0.88225  -0.86661
 Alpha  occ. eigenvalues --   -0.82360  -0.82016  -0.80545  -0.79320  -0.78734
 Alpha  occ. eigenvalues --   -0.78312  -0.78044  -0.74448  -0.71216  -0.70801
 Alpha  occ. eigenvalues --   -0.70420  -0.70017  -0.69436  -0.68761  -0.66122
 Alpha  occ. eigenvalues --   -0.65821  -0.65023  -0.62705  -0.60386  -0.59889
 Alpha  occ. eigenvalues --   -0.59355  -0.58632  -0.58545  -0.57583  -0.57235
 Alpha  occ. eigenvalues --   -0.56900  -0.56441  -0.56229  -0.54527  -0.53852
 Alpha  occ. eigenvalues --   -0.53817  -0.53313  -0.53103  -0.52844  -0.52102
 Alpha  occ. eigenvalues --   -0.51989  -0.51699  -0.51428  -0.51039  -0.50888
 Alpha  occ. eigenvalues --   -0.50404  -0.50162  -0.49454  -0.49083  -0.48885
 Alpha  occ. eigenvalues --   -0.48412  -0.48275  -0.48133  -0.47343  -0.46807
 Alpha  occ. eigenvalues --   -0.46249  -0.46192  -0.45653  -0.45423  -0.45129
 Alpha  occ. eigenvalues --   -0.44949  -0.44633  -0.44399  -0.44088  -0.43906
 Alpha  occ. eigenvalues --   -0.43865  -0.43730  -0.43421  -0.43234  -0.43123
 Alpha  occ. eigenvalues --   -0.42726  -0.42601  -0.42306  -0.41051  -0.40630
 Alpha  occ. eigenvalues --   -0.37520  -0.36710  -0.35857  -0.35049  -0.34615
 Alpha  occ. eigenvalues --   -0.33843  -0.30907
 Alpha virt. eigenvalues --   -0.16341  -0.13501  -0.09800  -0.09083  -0.07905
 Alpha virt. eigenvalues --   -0.07774  -0.07398  -0.07277  -0.06755  -0.06119
 Alpha virt. eigenvalues --   -0.05537  -0.05420  -0.05223  -0.04756  -0.04268

 Mulliken charges:
               1
     1  P    0.357090
     2  P    0.385244
     3  C   -0.085652
     4  C   -0.228516
     5  C   -0.364340
     6  C   -0.223406
     7  C   -0.363532
     8  C   -0.221381
     9  C   -0.365119
    10  C   -0.218550
    11  C   -0.355208
    12  H    0.130773
    13  H    0.121573
    14  H    0.146508
    15  H    0.121737
    16  H    0.123594
    17  H    0.137062
    18  H    0.117337
    19  H    0.147117
    20  H    0.124828
    21  H    0.120996
    22  H    0.112448
    23  H    0.132449
    24  H    0.145276
    25  H    0.120914
    26  H    0.124361
    27  H    0.134372
    28  H    0.135398
    29  H    0.146997
    30  H    0.119153
    31  H    0.121361
    32  Rh  -0.540507
    33  C   -0.018436
    34  C   -0.105041
    35  C   -0.026160
    36  C   -0.116243
    37  C   -0.353015
    38  H    0.182391
    39  H    0.183519
    40  C   -0.222769
    41  C   -0.345151
    42  H    0.176665
    43  C   -0.213846
    44  H    0.192926
    45  H    0.167821
    46  H    0.169258
    47  H    0.172225
    48  H    0.131112
    49  H    0.167302
    50  H    0.168873
    51  H    0.127623
    52  H    0.171025
    53  C   -0.332628
    54  H    0.160902
    55  H    0.167717
    56  C   -0.291462
    57  H    0.155354
    58  H    0.155728
    59  C   -0.278876
    60  H    0.189748
    61  H    0.127731
    62  C   -0.372737
    63  H    0.176729
    64  H    0.163365
    65  C   -0.505888
    66  H    0.176078
    67  H    0.174273
    68  H    0.168930
    69  C   -0.220480
    70  H    0.126153
    71  H    0.123079
    72  C   -0.068191
    73  H    0.132786
    74  H    0.095208
    75  O   -0.219367
    76  C   -0.354781
    77  H    0.118816
    78  H    0.147487
    79  H    0.113870
 Sum of Mulliken charges =   1.00000

 Dipole moment (field-independent basis, Debye):
    X=              0.1674    Y=             -0.4462    Z=             -1.0254  Tot=              1.1307
 Quadrupole moment (field-independent basis, Debye-Ang):
   XX=           -168.5389   YY=           -177.6675   ZZ=           -192.8160
   XY=             -1.3018   XZ=             -2.3174   YZ=             -0.3292

 Summary of Natural Population Analysis:

                                       Natural Population
                Natural  -----------------------------------------------
    Atom  No    Charge         Core      Valence    Rydberg      Total
 -----------------------------------------------------------------------
      P    1    1.06181      9.99661     3.89261    0.04896    13.93819
      P    2    1.12054      9.99655     3.83210    0.05081    13.87946
      C    3   -0.17311      1.99931     4.13933    0.03447     6.17311
      C    4   -0.38381      1.99944     4.37448    0.00989     6.38381
      C    5   -0.58582      1.99947     4.58001    0.00634     6.58582
      C    6   -0.38989      1.99944     4.37967    0.01079     6.38989
      C    7   -0.58606      1.99946     4.58013    0.00647     6.58606
      C    8   -0.38570      1.99943     4.37597    0.01030     6.38570
      C    9   -0.58496      1.99947     4.57927    0.00622     6.58496
      C   10   -0.38927      1.99944     4.37873    0.01110     6.38927
      C   11   -0.58688      1.99947     4.58112    0.00629     6.58688
      H   12    0.19365      0.00000     0.80435    0.00201     0.80635
      H   13    0.19995      0.00000     0.79826    0.00179     0.80005
      H   14    0.21832      0.00000     0.78062    0.00106     0.78168
      H   15    0.20291      0.00000     0.79580    0.00129     0.79709
      H   16    0.20347      0.00000     0.79527    0.00127     0.79653
      H   17    0.19797      0.00000     0.80023    0.00180     0.80203
      H   18    0.19293      0.00000     0.80505    0.00201     0.80707
      H   19    0.21930      0.00000     0.77964    0.00107     0.78070
      H   20    0.20420      0.00000     0.79439    0.00141     0.79580
      H   21    0.20273      0.00000     0.79584    0.00143     0.79727
      H   22    0.20052      0.00000     0.79766    0.00181     0.79948
      H   23    0.19423      0.00000     0.80378    0.00199     0.80577
      H   24    0.21740      0.00000     0.78153    0.00107     0.78260
      H   25    0.20160      0.00000     0.79698    0.00142     0.79840
      H   26    0.20458      0.00000     0.79410    0.00132     0.79542
      H   27    0.19834      0.00000     0.79936    0.00230     0.80166
      H   28    0.19968      0.00000     0.79858    0.00175     0.80032
      H   29    0.21919      0.00000     0.77974    0.00107     0.78081
      H   30    0.20108      0.00000     0.79749    0.00142     0.79892
      H   31    0.20374      0.00000     0.79484    0.00142     0.79626
     Rh   32   -0.41766     35.98559     9.40595    0.02612    45.41766
      C   33   -0.16500      1.99906     4.14614    0.01980     6.16500
      C   34   -0.17019      1.99907     4.15084    0.02028     6.17019
      C   35   -0.18281      1.99906     4.16381    0.01995     6.18281
      C   36   -0.15392      1.99907     4.13454    0.02032     6.15392
      C   37   -0.42477      1.99936     4.41330    0.01210     6.42477
      H   38    0.22031      0.00000     0.77753    0.00216     0.77969
      H   39    0.22321      0.00000     0.77471    0.00208     0.77679
      C   40   -0.41893      1.99935     4.40678    0.01280     6.41893
      C   41   -0.42315      1.99936     4.41184    0.01194     6.42315
      H   42    0.22317      0.00000     0.77442    0.00241     0.77683
      C   43   -0.41811      1.99935     4.40595    0.01280     6.41811
      H   44    0.22078      0.00000     0.77709    0.00213     0.77922
      H   45    0.22811      0.00000     0.77047    0.00142     0.77189
      H   46    0.21501      0.00000     0.78306    0.00193     0.78499
      H   47    0.23374      0.00000     0.76442    0.00184     0.76626
      H   48    0.21586      0.00000     0.78260    0.00154     0.78414
      H   49    0.21429      0.00000     0.78377    0.00195     0.78571
      H   50    0.22865      0.00000     0.76992    0.00144     0.77135
      H   51    0.21445      0.00000     0.78399    0.00156     0.78555
      H   52    0.23335      0.00000     0.76483    0.00182     0.76665
      C   53   -0.68367      1.99937     4.67011    0.01419     6.68367
      H   54    0.23456      0.00000     0.76363    0.00181     0.76544
      H   55    0.23355      0.00000     0.76453    0.00192     0.76645
      C   56   -0.67652      1.99937     4.66199    0.01516     6.67652
      H   57    0.23010      0.00000     0.76700    0.00291     0.76990
      H   58    0.22512      0.00000     0.77222    0.00266     0.77488
      C   59   -0.67459      1.99936     4.65949    0.01574     6.67459
      H   60    0.23967      0.00000     0.75767    0.00266     0.76033
      H   61    0.22899      0.00000     0.76910    0.00191     0.77101
      C   62   -0.68701      1.99937     4.67380    0.01384     6.68701
      H   63    0.23471      0.00000     0.76353    0.00176     0.76529
      H   64    0.23277      0.00000     0.76536    0.00187     0.76723
      C   65   -0.66116      1.99933     4.65065    0.01118     6.66116
      H   66    0.22597      0.00000     0.77208    0.00194     0.77403
      H   67    0.22239      0.00000     0.77582    0.00180     0.77761
      H   68    0.23071      0.00000     0.76807    0.00122     0.76929
      C   69   -0.39834      1.99944     4.38726    0.01164     6.39834
      H   70    0.20654      0.00000     0.79185    0.00161     0.79346
      H   71    0.20257      0.00000     0.79580    0.00163     0.79743
      C   72   -0.06458      1.99921     4.04883    0.01654     6.06458
      H   73    0.16656      0.00000     0.83026    0.00318     0.83344
      H   74    0.15819      0.00000     0.83849    0.00332     0.84181
      O   75   -0.54709      1.99976     6.52395    0.02338     8.54709
      C   76   -0.59270      1.99946     4.58712    0.00612     6.59270
      H   77    0.20306      0.00000     0.79557    0.00137     0.79694
      H   78    0.22106      0.00000     0.77796    0.00098     0.77894
      H   79    0.20013      0.00000     0.79852    0.00135     0.79987
 =======================================================================
   * Total *    1.00000    107.96203   173.46359    0.57438   282.00000

 Normal termination of Gaussian 16 at Mon Jan 20 01:12:03 2025.
