 Gaussian 16, Revision B.01,
 Gaussian 16:  ES64L-G16RevB.01 20-Dec-2017

 ------------------------------------------
 # nmr=giao b3lyp/genecp pop=nbo scfcyc=200
 ------------------------------------------

 ---------
 DS-30_SPE
 ---------
 Symbolic Z-matrix:
 Charge =  1 Multiplicity = 1

                         Standard orientation:
 ---------------------------------------------------------------------
 Center     Atomic      Atomic             Coordinates (Angstroms)
 Number     Number       Type             X           Y           Z
 ---------------------------------------------------------------------
      1         15           0        0.651571    1.314510    0.262230
      2         15           0        0.317811   -1.406840   -0.165610
      3          6           0       -0.856109   -1.491690   -2.736110
      4          6           0       -1.126669   -2.068450   -3.973310
      5          6           0       -0.719499   -3.370590   -4.242890
      6          6           0       -0.037939   -4.096530   -3.270030
      7          6           0        0.233311   -3.524750   -2.032450
      8          6           0       -0.181979   -2.217200   -1.749600
      9          1           0       -1.166769   -0.473170   -2.539830
     10          1           0       -1.653829   -1.497110   -4.727360
     11          1           0       -0.929839   -3.817970   -5.206100
     12          1           0        0.284521   -5.109870   -3.474500
     13          1           0        0.762841   -4.104880   -1.286600
     14          6           0       -1.000299   -3.654000    1.047940
     15          6           0       -1.257479   -4.509550    2.114470
     16          6           0       -0.564369   -4.363740    3.311480
     17          6           0        0.391851   -3.360880    3.438820
     18          6           0        0.653321   -2.507300    2.373240
     19          6           0       -0.044699   -2.640330    1.167940
     20          1           0       -1.535829   -3.801670    0.118350
     21          1           0       -1.998049   -5.292220    2.006840
     22          1           0       -0.763669   -5.033150    4.138810
     23          1           0        0.941671   -3.248760    4.365040
     24          1           0        1.406511   -1.734380    2.472380
     25          6           0       -0.068469    1.522800    2.991250
     26          6           0        0.013501    2.063100    4.270770
     27          6           0        0.796831    3.187310    4.507900
     28          6           0        1.503231    3.768990    3.459180
     29          6           0        1.424481    3.231400    2.179650
     30          6           0        0.627361    2.107150    1.930350
     31          1           0       -0.672909    0.641430    2.820150
     32          1           0       -0.536159    1.603460    5.082880
     33          1           0        0.858481    3.607760    5.503680
     34          1           0        2.116691    4.643700    3.636010
     35          1           0        1.978411    3.700350    1.375640
     36          6           0        0.858461    2.442590   -2.278180
     37          6           0        0.699601    3.413360   -3.260230
     38          6           0        0.133831    4.643740   -2.939430
     39          6           0       -0.275559    4.896210   -1.634300
     40          6           0       -0.126049    3.922820   -0.651310
     41          6           0        0.440461    2.684550   -0.964810
     42          1           0        1.314871    1.492020   -2.528560
     43          1           0        1.027501    3.213350   -4.272810
     44          1           0        0.018481    5.404230   -3.701490
     45          1           0       -0.711269    5.853820   -1.377520
     46          1           0       -0.446489    4.139410    0.359090
     47          6           0       -0.691779    0.090580    0.115150
     48         45           0        2.364711   -0.259480   -0.118120
     49          6           0        4.142731    1.082420   -0.616050
     50          6           0        4.103961    0.872380    0.746620
     51          6           0        3.873511   -1.961320    0.072890
     52          6           0        3.629991   -1.720810   -1.263550
     53          6           0        5.075511    0.382080   -1.586900
     54          1           0        3.676091    1.987920   -0.988060
     55          1           0        3.636521    1.638620    1.355940
     56          6           0        4.915511   -0.129320    1.531820
     57          6           0        5.097851   -1.498110    0.840550
     58          1           0        3.300391   -2.753340    0.542530
     59          6           0        4.479521   -0.901610   -2.204840
     60          1           0        2.906171   -2.358280   -1.760610
     61          1           0        5.317291    1.073820   -2.395700
     62          1           0        6.020631    0.160890   -1.091120
     63          1           0        5.897521    0.298340    1.770800
     64          1           0        4.415581   -0.277450    2.491520
     65          1           0        5.960531   -1.474970    0.174720
     66          1           0        5.330441   -2.241870    1.604650
     67          1           0        3.855321   -0.630150   -3.059000
     68          1           0        5.285771   -1.525170   -2.611640
     69          6           0       -2.062449    0.221820    0.220940
     70          6           0       -2.725089    1.553490    0.474190
     71          1           0       -3.478659    1.445650    1.255180
     72          1           0       -1.984929    2.253210    0.855130
     73          7           0       -2.871999   -0.849750    0.031340
     74          1           0       -2.432689   -1.694480   -0.303700
     75          6           0       -4.276939   -0.966220    0.282870
     76          6           0       -5.121279   -1.337060   -0.762810
     77          6           0       -4.793529   -0.789890    1.565750
     78          6           0       -6.479949   -1.515310   -0.527330
     79          1           0       -4.712699   -1.479140   -1.755850
     80          6           0       -6.156189   -0.950690    1.790470
     81          1           0       -4.129599   -0.550530    2.386500
     82          6           0       -7.001579   -1.313510    0.746560
     83          1           0       -7.131369   -1.804420   -1.342260
     84          1           0       -6.553779   -0.810660    2.787720
     85          1           0       -8.060509   -1.446610    0.927060
     86          6           0       -3.392539    2.139900   -0.786440
     87          1           0       -4.110199    1.421760   -1.190060
     88          1           0       -2.631749    2.295510   -1.556300
     89          6           0       -4.111059    3.460230   -0.497340
     90          1           0       -3.399209    4.176610   -0.074520
     91          1           0       -4.871919    3.294130    0.272220
     92          6           0       -4.764519    4.063160   -1.740650
     93          1           0       -5.270999    5.000610   -1.504330
     94          1           0       -4.022979    4.272070   -2.515690
     95          1           0       -5.507739    3.384230   -2.165850
 ---------------------------------------------------------------------

 SCF Done:  E(RB3LYP) =  -2553.52459025     A.U. after   17 cycles

      1  P    Isotropic =   301.6070   Anisotropy =    76.0364

      2  P    Isotropic =   309.2305   Anisotropy =    77.4956

      3  C    Isotropic =    48.3233   Anisotropy =   190.3140

      4  C    Isotropic =    48.8166   Anisotropy =   189.3016

      5  C    Isotropic =    46.6623   Anisotropy =   195.3275

      6  C    Isotropic =    48.1830   Anisotropy =   190.7986

      7  C    Isotropic =    47.2397   Anisotropy =   190.1219

      8  C    Isotropic =    48.3598   Anisotropy =   168.2560

      9  H    Isotropic =    23.8741   Anisotropy =     9.1389

     10  H    Isotropic =    23.9985   Anisotropy =     7.1801

     11  H    Isotropic =    23.9587   Anisotropy =     3.5346

     12  H    Isotropic =    24.0656   Anisotropy =     6.0571

     13  H    Isotropic =    24.4613   Anisotropy =    11.0302

     14  C    Isotropic =    47.5451   Anisotropy =   187.1417

     15  C    Isotropic =    50.0426   Anisotropy =   187.3644

     16  C    Isotropic =    46.1933   Anisotropy =   195.7346

     17  C    Isotropic =    48.5160   Anisotropy =   188.5731

     18  C    Isotropic =    41.6447   Anisotropy =   182.9912

     19  C    Isotropic =    44.7971   Anisotropy =   175.0031

     20  H    Isotropic =    24.5028   Anisotropy =    10.5542

     21  H    Isotropic =    24.4565   Anisotropy =     6.4433

     22  H    Isotropic =    24.0804   Anisotropy =     3.4203

     23  H    Isotropic =    24.0288   Anisotropy =     7.0374

     24  H    Isotropic =    23.3104   Anisotropy =     9.8409

     25  C    Isotropic =    48.4277   Anisotropy =   191.2152

     26  C    Isotropic =    49.1402   Anisotropy =   188.4723

     27  C    Isotropic =    47.1745   Anisotropy =   193.9398

     28  C    Isotropic =    48.9653   Anisotropy =   189.4526

     29  C    Isotropic =    47.6773   Anisotropy =   188.8642

     30  C    Isotropic =    45.0050   Anisotropy =   171.8699

     31  H    Isotropic =    24.1571   Anisotropy =     9.5221

     32  H    Isotropic =    24.1295   Anisotropy =     7.1598

     33  H    Isotropic =    24.0446   Anisotropy =     3.4809

     34  H    Isotropic =    24.1015   Anisotropy =     6.1016

     35  H    Isotropic =    24.4232   Anisotropy =    10.9372

     36  C    Isotropic =    42.1741   Anisotropy =   183.4691

     37  C    Isotropic =    48.9429   Anisotropy =   187.8958

     38  C    Isotropic =    46.3397   Anisotropy =   195.1663

     39  C    Isotropic =    49.5789   Anisotropy =   188.7654

     40  C    Isotropic =    47.4722   Anisotropy =   191.4752

     41  C    Isotropic =    41.8977   Anisotropy =   177.2758

     42  H    Isotropic =    23.2795   Anisotropy =     9.6420

     43  H    Isotropic =    24.0191   Anisotropy =     6.7756

     44  H    Isotropic =    24.0477   Anisotropy =     3.2986

     45  H    Isotropic =    24.3027   Anisotropy =     5.8248

     46  H    Isotropic =    24.2787   Anisotropy =    10.8324

     47  C    Isotropic =    83.1825   Anisotropy =    54.3574

     48  Rh   Isotropic =  -297.1077   Anisotropy =   324.9332

     49  C    Isotropic =    79.7791   Anisotropy =   120.0549

     50  C    Isotropic =    73.9328   Anisotropy =   120.1956

     51  C    Isotropic =    80.8418   Anisotropy =   118.6865

     52  C    Isotropic =    74.5427   Anisotropy =   119.6488

     53  C    Isotropic =   153.9808   Anisotropy =    24.9478

     54  H    Isotropic =    27.1029   Anisotropy =     5.1407

     55  H    Isotropic =    26.7883   Anisotropy =     5.1782

     56  C    Isotropic =   148.2686   Anisotropy =    29.0452

     57  C    Isotropic =   153.9305   Anisotropy =    25.0718

     58  H    Isotropic =    27.1302   Anisotropy =     5.6458

     59  C    Isotropic =   148.0492   Anisotropy =    29.1416

     60  H    Isotropic =    26.9214   Anisotropy =     5.1027

     61  H    Isotropic =    29.9597   Anisotropy =    11.2634

     62  H    Isotropic =    29.8732   Anisotropy =    10.1172

     63  H    Isotropic =    29.3172   Anisotropy =    12.7571

     64  H    Isotropic =    29.4021   Anisotropy =     6.9808

     65  H    Isotropic =    29.8736   Anisotropy =    10.1304

     66  H    Isotropic =    29.9660   Anisotropy =    11.4195

     67  H    Isotropic =    29.3800   Anisotropy =     6.8743

     68  H    Isotropic =    29.3193   Anisotropy =    12.7689

     69  C    Isotropic =     8.3084   Anisotropy =   177.9683

     70  C    Isotropic =   149.9463   Anisotropy =    34.7265

     71  H    Isotropic =    29.7085   Anisotropy =     6.9207

     72  H    Isotropic =    30.0198   Anisotropy =     9.2603

     73  N    Isotropic =   112.3835   Anisotropy =    75.1056

     74  H    Isotropic =    25.6827   Anisotropy =    10.2115

     75  C    Isotropic =    40.8186   Anisotropy =   140.4281

     76  C    Isotropic =    53.0775   Anisotropy =   164.0310

     77  C    Isotropic =    52.5889   Anisotropy =   165.4930

     78  C    Isotropic =    48.2963   Anisotropy =   190.1977

     79  H    Isotropic =    24.9490   Anisotropy =     9.7910

     80  C    Isotropic =    49.1482   Anisotropy =   188.1808

     81  H    Isotropic =    25.1641   Anisotropy =     9.9679

     82  C    Isotropic =    49.3789   Anisotropy =   192.8306

     83  H    Isotropic =    24.3472   Anisotropy =     6.3402

     84  H    Isotropic =    24.4462   Anisotropy =     6.4838

     85  H    Isotropic =    24.3642   Anisotropy =     3.3290

     86  C    Isotropic =   152.1436   Anisotropy =    36.8769

     87  H    Isotropic =    31.1818   Anisotropy =     7.9389

     88  H    Isotropic =    31.9802   Anisotropy =     7.0174

     89  C    Isotropic =   157.2393   Anisotropy =    26.4127

     90  H    Isotropic =    31.2877   Anisotropy =     4.2925

     91  H    Isotropic =    31.4511   Anisotropy =     6.4371

     92  C    Isotropic =   169.8807   Anisotropy =    29.6147

     93  H    Isotropic =    31.0984   Anisotropy =    12.4211

     94  H    Isotropic =    31.7255   Anisotropy =     6.8862

     95  H    Isotropic =    31.6480   Anisotropy =     9.0798

 The electronic state is 1-A.
 Alpha  occ. eigenvalues --  -77.22721 -77.22689 -14.45601 -10.34609 -10.31334
 Alpha  occ. eigenvalues --  -10.29015 -10.28849 -10.28655 -10.28612 -10.27843
 Alpha  occ. eigenvalues --  -10.27834 -10.27832 -10.27800 -10.27765 -10.27645
 Alpha  occ. eigenvalues --  -10.27628 -10.27559 -10.27543 -10.27461 -10.27444
 Alpha  occ. eigenvalues --  -10.27425 -10.27339 -10.27338 -10.27240 -10.27219
 Alpha  occ. eigenvalues --  -10.27128 -10.27080 -10.27075 -10.27033 -10.26987
 Alpha  occ. eigenvalues --  -10.26977 -10.26934 -10.26879 -10.26860 -10.26847
 Alpha  occ. eigenvalues --  -10.26841 -10.26734 -10.26640 -10.26605 -10.26472
 Alpha  occ. eigenvalues --  -10.26457 -10.26312 -10.26257 -10.26250 -10.25591
 Alpha  occ. eigenvalues --  -10.24514 -10.22973  -6.68626  -6.68561  -4.84895
 Alpha  occ. eigenvalues --   -4.84864  -4.84838  -4.84797  -4.84548  -4.84487
 Alpha  occ. eigenvalues --   -3.30210  -2.07102  -2.06438  -2.03699  -1.06722
 Alpha  occ. eigenvalues --   -0.96273  -0.95943  -0.95582  -0.95320  -0.95181
 Alpha  occ. eigenvalues --   -0.93289  -0.90541  -0.88350  -0.87984  -0.86913
 Alpha  occ. eigenvalues --   -0.86554  -0.86018  -0.84889  -0.84741  -0.84579
 Alpha  occ. eigenvalues --   -0.84477  -0.84416  -0.84378  -0.84101  -0.82911
 Alpha  occ. eigenvalues --   -0.81736  -0.79209  -0.76700  -0.76401  -0.74968
 Alpha  occ. eigenvalues --   -0.72675  -0.71171  -0.70844  -0.70663  -0.70509
 Alpha  occ. eigenvalues --   -0.70314  -0.70059  -0.69679  -0.69469  -0.69418
 Alpha  occ. eigenvalues --   -0.67884  -0.66741  -0.66353  -0.66199  -0.64739
 Alpha  occ. eigenvalues --   -0.63337  -0.61899  -0.61820  -0.61532  -0.61213
 Alpha  occ. eigenvalues --   -0.60049  -0.58898  -0.58174  -0.57335  -0.56117
 Alpha  occ. eigenvalues --   -0.55955  -0.55718  -0.55555  -0.55465  -0.55271
 Alpha  occ. eigenvalues --   -0.55205  -0.55073  -0.54970  -0.54711  -0.54251
 Alpha  occ. eigenvalues --   -0.53867  -0.53326  -0.52751  -0.52569  -0.52225
 Alpha  occ. eigenvalues --   -0.52143  -0.52037  -0.51860  -0.51769  -0.51615
 Alpha  occ. eigenvalues --   -0.51535  -0.51360  -0.51012  -0.50552  -0.49986
 Alpha  occ. eigenvalues --   -0.48611  -0.47891  -0.47739  -0.47520  -0.47100
 Alpha  occ. eigenvalues --   -0.47042  -0.46888  -0.46710  -0.46433  -0.45852
 Alpha  occ. eigenvalues --   -0.45618  -0.45193  -0.44910  -0.44898  -0.44679
 Alpha  occ. eigenvalues --   -0.44520  -0.44461  -0.44316  -0.44231  -0.43998
 Alpha  occ. eigenvalues --   -0.43513  -0.42954  -0.42521  -0.42391  -0.42200
 Alpha  occ. eigenvalues --   -0.41908  -0.41815  -0.40926  -0.40876  -0.40297
 Alpha  occ. eigenvalues --   -0.37269  -0.36819  -0.36202  -0.36081  -0.35784
 Alpha  occ. eigenvalues --   -0.35444  -0.35416  -0.35176  -0.35052  -0.34981
 Alpha  occ. eigenvalues --   -0.34816  -0.34074  -0.33245  -0.33063  -0.32481
 Alpha  occ. eigenvalues --   -0.31663  -0.29369
 Alpha virt. eigenvalues --   -0.15913  -0.13999  -0.12984  -0.12795  -0.12260
 Alpha virt. eigenvalues --   -0.11576  -0.11251  -0.10951  -0.10571  -0.10518
 Alpha virt. eigenvalues --   -0.10256  -0.09464  -0.08858  -0.08121  -0.06753

 Mulliken charges:
               1
     1  P    0.441241
     2  P    0.400888
     3  C   -0.079968
     4  C   -0.109373
     5  C   -0.098065
     6  C   -0.083500
     7  C   -0.142361
     8  C   -0.181273
     9  H    0.180979
    10  H    0.130098
    11  H    0.136655
    12  H    0.134406
    13  H    0.166042
    14  C   -0.094491
    15  C   -0.105296
    16  C   -0.096447
    17  C   -0.096106
    18  C   -0.073378
    19  C   -0.197976
    20  H    0.163764
    21  H    0.132553
    22  H    0.135972
    23  H    0.128998
    24  H    0.181178
    25  C   -0.080495
    26  C   -0.099212
    27  C   -0.104524
    28  C   -0.079479
    29  C   -0.181837
    30  C   -0.120664
    31  H    0.171176
    32  H    0.127328
    33  H    0.134333
    34  H    0.132905
    35  H    0.171653
    36  C   -0.081592
    37  C   -0.095283
    38  C   -0.098141
    39  C   -0.098840
    40  C   -0.082483
    41  C   -0.222309
    42  H    0.178176
    43  H    0.128452
    44  H    0.134581
    45  H    0.132665
    46  H    0.169500
    47  C   -0.815821
    48  Rh  -0.711402
    49  C   -0.023652
    50  C   -0.103106
    51  C   -0.022598
    52  C   -0.103041
    53  C   -0.348392
    54  H    0.195745
    55  H    0.205642
    56  C   -0.230917
    57  C   -0.347254
    58  H    0.189782
    59  C   -0.229581
    60  H    0.205745
    61  H    0.165663
    62  H    0.165190
    63  H    0.167405
    64  H    0.132242
    65  H    0.165243
    66  H    0.165512
    67  H    0.131488
    68  H    0.167091
    69  C    0.420848
    70  C   -0.299385
    71  H    0.159376
    72  H    0.175018
    73  N   -0.158881
    74  H    0.265133
    75  C   -0.006244
    76  C   -0.158907
    77  C   -0.126329
    78  C   -0.096855
    79  H    0.141148
    80  C   -0.098749
    81  H    0.152709
    82  C   -0.095723
    83  H    0.132178
    84  H    0.132194
    85  H    0.135950
    86  C   -0.224812
    87  H    0.151545
    88  H    0.134885
    89  C   -0.208026
    90  H    0.107619
    91  H    0.122509
    92  C   -0.359184
    93  H    0.137469
    94  H    0.115415
    95  H    0.117668
 Sum of Mulliken charges =   1.00000

 Dipole moment (field-independent basis, Debye):
    X=             -0.7213    Y=             -0.8040    Z=              0.1279  Tot=              1.0876
 Quadrupole moment (field-independent basis, Debye-Ang):
   XX=           -242.0631   YY=           -259.8411   ZZ=           -261.7366
   XY=              5.6819   XZ=             -0.7353   YZ=              2.0207

 Summary of Natural Population Analysis:

                                       Natural Population
                Natural  -----------------------------------------------
    Atom  No    Charge         Core      Valence    Rydberg      Total
 -----------------------------------------------------------------------
      P    1    1.14297      9.99620     3.80487    0.05595    13.85703
      P    2    1.12290      9.99623     3.82456    0.05631    13.87710
      C    3   -0.20515      1.99909     4.19002    0.01604     6.20515
      C    4   -0.19467      1.99920     4.18062    0.01486     6.19467
      C    5   -0.18524      1.99920     4.17126    0.01478     6.18524
      C    6   -0.19196      1.99920     4.17801    0.01475     6.19196
      C    7   -0.20536      1.99910     4.19078    0.01548     6.20536
      C    8   -0.35063      1.99899     4.32749    0.02416     6.35063
      H    9    0.22139      0.00000     0.77623    0.00238     0.77861
      H   10    0.21978      0.00000     0.77898    0.00124     0.78022
      H   11    0.22199      0.00000     0.77683    0.00118     0.77801
      H   12    0.22225      0.00000     0.77653    0.00122     0.77775
      H   13    0.21955      0.00000     0.77855    0.00191     0.78045
      C   14   -0.20474      1.99909     4.18978    0.01587     6.20474
      C   15   -0.19309      1.99920     4.17908    0.01481     6.19309
      C   16   -0.18083      1.99920     4.16703    0.01460     6.18083
      C   17   -0.19575      1.99920     4.18205    0.01450     6.19575
      C   18   -0.18792      1.99910     4.17322    0.01560     6.18792
      C   19   -0.33812      1.99898     4.31446    0.02469     6.33812
      H   20    0.21234      0.00000     0.78563    0.00204     0.78766
      H   21    0.22144      0.00000     0.77732    0.00125     0.77856
      H   22    0.22158      0.00000     0.77724    0.00118     0.77842
      H   23    0.22000      0.00000     0.77876    0.00124     0.78000
      H   24    0.22442      0.00000     0.77366    0.00192     0.77558
      C   25   -0.19959      1.99909     4.18517    0.01533     6.19959
      C   26   -0.19344      1.99920     4.17955    0.01469     6.19344
      C   27   -0.18655      1.99920     4.17257    0.01477     6.18655
      C   28   -0.19261      1.99919     4.17868    0.01473     6.19261
      C   29   -0.20807      1.99909     4.19368    0.01530     6.20807
      C   30   -0.34025      1.99898     4.31729    0.02398     6.34025
      H   31    0.21858      0.00000     0.77914    0.00229     0.78142
      H   32    0.21849      0.00000     0.78026    0.00125     0.78151
      H   33    0.22123      0.00000     0.77759    0.00118     0.77877
      H   34    0.22126      0.00000     0.77751    0.00123     0.77874
      H   35    0.21827      0.00000     0.77982    0.00191     0.78173
      C   36   -0.18965      1.99909     4.17510    0.01545     6.18965
      C   37   -0.19771      1.99919     4.18393    0.01459     6.19771
      C   38   -0.18217      1.99920     4.16818    0.01478     6.18217
      C   39   -0.19621      1.99919     4.18179    0.01523     6.19621
      C   40   -0.19998      1.99909     4.18434    0.01656     6.19998
      C   41   -0.34146      1.99897     4.31776    0.02473     6.34146
      H   42    0.22274      0.00000     0.77538    0.00189     0.77726
      H   43    0.21953      0.00000     0.77921    0.00126     0.78047
      H   44    0.22134      0.00000     0.77748    0.00118     0.77866
      H   45    0.22109      0.00000     0.77762    0.00130     0.77891
      H   46    0.22007      0.00000     0.77746    0.00247     0.77993
      C   47   -0.79796      1.99901     4.77278    0.02617     6.79796
     Rh   48   -0.37651     35.98588     9.36233    0.02829    45.37651
      C   49   -0.17886      1.99906     4.16029    0.01951     6.17886
      C   50   -0.16208      1.99907     4.14320    0.01981     6.16208
      C   51   -0.18071      1.99907     4.16208    0.01957     6.18071
      C   52   -0.16198      1.99907     4.14310    0.01980     6.16198
      C   53   -0.42250      1.99936     4.41137    0.01177     6.42250
      H   54    0.22731      0.00000     0.77070    0.00200     0.77269
      H   55    0.22860      0.00000     0.76921    0.00219     0.77140
      C   56   -0.41729      1.99935     4.40538    0.01256     6.41729
      C   57   -0.42228      1.99936     4.41115    0.01176     6.42228
      H   58    0.22606      0.00000     0.77197    0.00197     0.77394
      C   59   -0.41694      1.99935     4.40502    0.01257     6.41694
      H   60    0.22776      0.00000     0.77007    0.00217     0.77224
      H   61    0.22634      0.00000     0.77216    0.00150     0.77366
      H   62    0.21312      0.00000     0.78488    0.00200     0.78688
      H   63    0.23086      0.00000     0.76721    0.00193     0.76914
      H   64    0.21530      0.00000     0.78317    0.00154     0.78470
      H   65    0.21304      0.00000     0.78496    0.00200     0.78696
      H   66    0.22628      0.00000     0.77222    0.00150     0.77372
      H   67    0.21499      0.00000     0.78347    0.00154     0.78501
      H   68    0.23063      0.00000     0.76743    0.00194     0.76937
      C   69    0.31670      1.99890     3.65987    0.02453     5.68330
      C   70   -0.44684      1.99932     4.43567    0.01185     6.44684
      H   71    0.22996      0.00000     0.76721    0.00283     0.77004
      H   72    0.22106      0.00000     0.77614    0.00281     0.77894
      N   73   -0.54669      1.99941     5.52924    0.01804     7.54669
      H   74    0.40471      0.00000     0.59184    0.00344     0.59529
      C   75    0.10977      1.99887     3.87404    0.01732     5.89023
      C   76   -0.21477      1.99908     4.20101    0.01467     6.21477
      C   77   -0.21660      1.99907     4.20365    0.01387     6.21660
      C   78   -0.18800      1.99921     4.17393    0.01485     6.18800
      H   79    0.21900      0.00000     0.77941    0.00159     0.78100
      C   80   -0.18955      1.99921     4.17542    0.01492     6.18955
      H   81    0.21615      0.00000     0.78228    0.00157     0.78385
      C   82   -0.19410      1.99921     4.18021    0.01469     6.19410
      H   83    0.22112      0.00000     0.77772    0.00116     0.77888
      H   84    0.22063      0.00000     0.77818    0.00118     0.77937
      H   85    0.22183      0.00000     0.77701    0.00116     0.77817
      C   86   -0.37227      1.99940     4.36250    0.01036     6.37227
      H   87    0.20172      0.00000     0.79575    0.00253     0.79828
      H   88    0.20055      0.00000     0.79676    0.00270     0.79945
      C   89   -0.37812      1.99945     4.36830    0.01037     6.37812
      H   90    0.18886      0.00000     0.80908    0.00206     0.81114
      H   91    0.19605      0.00000     0.80229    0.00166     0.80395
      C   92   -0.58782      1.99947     4.58201    0.00634     6.58782
      H   93    0.21242      0.00000     0.78652    0.00106     0.78758
      H   94    0.19867      0.00000     0.79986    0.00147     0.80133
      H   95    0.20034      0.00000     0.79833    0.00133     0.79966
 =======================================================================
   * Total *    1.00000    145.94068   245.11080    0.94852   392.00000

 Normal termination of Gaussian 16 at Mon Jan 20 01:35:15 2025.
