 Gaussian 16, Revision B.01,
 Gaussian 16:  ES64L-G16RevB.01 20-Dec-2017

 ------------------------------------------
 # nmr=giao b3lyp/genecp pop=nbo scfcyc=200
 ------------------------------------------

 ---------
 DS-35_SPE
 ---------
 Symbolic Z-matrix:
 Charge =  1 Multiplicity = 1

                         Standard orientation:
 ---------------------------------------------------------------------
 Center     Atomic      Atomic             Coordinates (Angstroms)
 Number     Number       Type             X           Y           Z
 ---------------------------------------------------------------------
      1         15           0       -0.570189    1.244921   -0.493100
      2          6           0       -0.017529    2.257191   -1.939030
      3          6           0        0.337961    1.621081   -3.137330
      4          6           0        0.664451    2.373661   -4.259150
      5          6           0        0.614100    3.763531   -4.214980
      6          6           0        0.231050    4.399331   -3.040190
      7          6           0       -0.084690    3.654731   -1.908200
      8          1           0       -0.385840    4.172301   -1.009580
      9          1           0        0.174160    5.479901   -2.998870
     10          1           0        0.862260    4.345841   -5.093450
     11          1           0        0.948771    1.868171   -5.173630
     12          1           0        0.365351    0.542421   -3.198890
     13          6           0       -0.866469    2.437600    0.882660
     14          6           0       -2.140110    2.456350    1.460430
     15          6           0       -2.440060    3.348920    2.483610
     16          6           0       -1.470430    4.233350    2.940980
     17          6           0       -0.200110    4.223151    2.371250
     18          6           0        0.103680    3.333881    1.347350
     19          1           0        1.092130    3.348391    0.912650
     20          1           0        0.558420    4.912411    2.720420
     21          1           0       -1.702920    4.931330    3.735630
     22          1           0       -3.430350    3.351930    2.921330
     23          1           0       -2.891769    1.760030    1.110550
     24         15           0       -0.572049   -1.235729    0.802430
     25          6           0        0.129721   -2.940309    0.728920
     26          6           0        0.865971   -3.470249    1.795170
     27          6           0        1.395801   -4.752139    1.709230
     28          6           0        1.195322   -5.516649    0.564100
     29          6           0        0.467831   -4.994649   -0.500110
     30          6           0       -0.063269   -3.712699   -0.421330
     31          1           0       -0.604449   -3.303159   -1.262860
     32          1           0        0.314372   -5.584039   -1.395220
     33          1           0        1.606032   -6.516539    0.501810
     34          1           0        1.963051   -5.154099    2.539290
     35          1           0        1.015331   -2.894049    2.698620
     36          6           0       -0.746569   -0.913669    2.609690
     37          6           0       -0.095209    0.113491    3.292160
     38          6           0       -0.315499    0.303171    4.653970
     39          6           0       -1.187309   -0.527640    5.346350
     40          6           0       -1.844869   -1.553240    4.671790
     41          6           0       -1.630429   -1.742970    3.313450
     42          1           0       -2.139379   -2.554980    2.807810
     43          1           0       -2.524989   -2.206510    5.203830
     44          1           0       -1.354909   -0.379580    6.405640
     45          1           0        0.196791    1.105261    5.170290
     46          1           0        0.574991    0.783081    2.774470
     47         45           0       -2.267699   -0.396500   -0.614860
     48          6           0       -3.918089    0.777390   -1.654500
     49          6           0       -3.128779    0.154740   -2.602170
     50          6           0       -3.531889   -2.260780   -1.017010
     51          6           0       -4.061319   -1.575820    0.056360
     52          6           0       -5.284759    0.304040   -1.195220
     53          1           0       -3.684799    1.813500   -1.433220
     54          1           0       -2.352939    0.753860   -3.066870
     55          6           0       -3.419539   -1.142340   -3.315670
     56          6           0       -4.070179   -2.230220   -2.434990
     57          1           0       -2.861139   -3.080360   -0.788400
     58          6           0       -5.233999   -0.626330    0.035670
     59          1           0       -3.785949   -1.921120    1.047710
     60          1           0       -5.889079    1.177250   -0.943910
     61          1           0       -5.799219   -0.186780   -2.021170
     62          1           0       -4.051349   -0.945220   -4.191040
     63          1           0       -2.473219   -1.519490   -3.708490
     64          1           0       -5.153019   -2.107580   -2.413930
     65          1           0       -3.887899   -3.202240   -2.896270
     66          1           0       -5.185059   -0.019420    0.942510
     67          1           0       -6.168849   -1.196020    0.110050
     68          6           0        0.730271   -0.050789    0.054440
     69          6           0        2.207181    0.045721    0.633910
     70          1           0        2.300831   -0.550629    1.544440
     71          6           0        1.402181   -0.805779   -1.127530
     72          6           0        2.900891    1.369731    0.827000
     73          6           0        3.260591    1.774701    2.113910
     74          6           0        3.236831    2.185091   -0.256370
     75          6           0        3.915930    2.984081    2.321380
     76          1           0        3.039171    1.135441    2.961240
     77          6           0        3.893250    3.392761   -0.050470
     78          1           0        2.999351    1.872841   -1.265130
     79          6           0        4.229800    3.798591    1.238560
     80          1           0        4.193050    3.281811    3.324930
     81          1           0        4.152830    4.013071   -0.899040
     82          1           0        4.749460    4.735511    1.394900
     83          8           0        0.998921   -1.311779   -2.148230
     84          7           0        2.634961   -0.722329   -0.555220
     85          6           0        3.880931   -1.298619   -0.879130
     86          6           0        4.053321   -1.965169   -2.097280
     87          6           0        4.940421   -1.205679    0.025810
     88          6           0        5.284961   -2.534459   -2.392440
     89          1           0        3.229921   -2.038149   -2.792390
     90          6           0        6.166301   -1.780359   -0.287610
     91          1           0        4.815991   -0.681959    0.963640
     92          6           0        6.345241   -2.446189   -1.494940
     93          1           0        5.415111   -3.050719   -3.335310
     94          1           0        6.984181   -1.703018    0.417610
     95          1           0        7.302181   -2.890778   -1.735640
 ---------------------------------------------------------------------

 SCF Done:  E(RB3LYP) =  -2740.69254919     A.U. after   18 cycles

      1  P    Isotropic =   273.0975   Anisotropy =   104.2091

      2  C    Isotropic =    46.7982   Anisotropy =   160.7566

      3  C    Isotropic =    44.2852   Anisotropy =   197.2503

      4  C    Isotropic =    48.5433   Anisotropy =   189.9257

      5  C    Isotropic =    46.0091   Anisotropy =   196.6469

      6  C    Isotropic =    49.7665   Anisotropy =   187.8762

      7  C    Isotropic =    45.8631   Anisotropy =   192.4409

      8  H    Isotropic =    25.0670   Anisotropy =    12.9536

      9  H    Isotropic =    24.4731   Anisotropy =     6.5774

     10  H    Isotropic =    24.1082   Anisotropy =     3.6534

     11  H    Isotropic =    23.9304   Anisotropy =     7.2822

     12  H    Isotropic =    22.6744   Anisotropy =     9.8015

     13  C    Isotropic =    51.0168   Anisotropy =   163.5146

     14  C    Isotropic =    37.9883   Anisotropy =   178.9759

     15  C    Isotropic =    49.7009   Anisotropy =   188.4456

     16  C    Isotropic =    45.0527   Anisotropy =   199.2202

     17  C    Isotropic =    50.0000   Anisotropy =   186.0992

     18  C    Isotropic =    42.2509   Anisotropy =   194.4207

     19  H    Isotropic =    26.2154   Anisotropy =     5.5996

     20  H    Isotropic =    24.6358   Anisotropy =     7.8636

     21  H    Isotropic =    24.2123   Anisotropy =     3.1865

     22  H    Isotropic =    24.5559   Anisotropy =     6.4423

     23  H    Isotropic =    23.1387   Anisotropy =     9.2208

     24  P    Isotropic =   274.0643   Anisotropy =    86.5572

     25  C    Isotropic =    49.3053   Anisotropy =   165.9800

     26  C    Isotropic =    45.0023   Anisotropy =   192.1541

     27  C    Isotropic =    49.6166   Anisotropy =   188.6452

     28  C    Isotropic =    44.8031   Anisotropy =   198.9295

     29  C    Isotropic =    49.8885   Anisotropy =   188.4023

     30  C    Isotropic =    40.1715   Anisotropy =   191.7848

     31  H    Isotropic =    23.3358   Anisotropy =     9.0500

     32  H    Isotropic =    24.1082   Anisotropy =     6.5120

     33  H    Isotropic =    24.2698   Anisotropy =     3.1247

     34  H    Isotropic =    24.6071   Anisotropy =     6.4892

     35  H    Isotropic =    24.9835   Anisotropy =    11.9958

     36  C    Isotropic =    47.0168   Anisotropy =   166.9129

     37  C    Isotropic =    48.0711   Anisotropy =   186.0557

     38  C    Isotropic =    50.8799   Anisotropy =   188.4226

     39  C    Isotropic =    47.3618   Anisotropy =   195.2054

     40  C    Isotropic =    49.0019   Anisotropy =   190.1185

     41  C    Isotropic =    46.0796   Anisotropy =   188.8145

     42  H    Isotropic =    24.7080   Anisotropy =    11.2742

     43  H    Isotropic =    24.2776   Anisotropy =     6.0526

     44  H    Isotropic =    24.3047   Anisotropy =     3.9212

     45  H    Isotropic =    24.8067   Anisotropy =     7.8738

     46  H    Isotropic =    24.9950   Anisotropy =     6.3854

     47  Rh   Isotropic =  -304.2097   Anisotropy =   324.2837

     48  C    Isotropic =    82.7307   Anisotropy =   116.0862

     49  C    Isotropic =    72.1310   Anisotropy =   122.8161

     50  C    Isotropic =    77.9855   Anisotropy =   122.6970

     51  C    Isotropic =    75.8120   Anisotropy =   117.6480

     52  C    Isotropic =   154.0898   Anisotropy =    25.2057

     53  H    Isotropic =    27.4516   Anisotropy =     5.8996

     54  H    Isotropic =    26.6245   Anisotropy =     5.1184

     55  C    Isotropic =   148.1522   Anisotropy =    29.0240

     56  C    Isotropic =   153.9397   Anisotropy =    25.0299

     57  H    Isotropic =    26.4463   Anisotropy =     5.8809

     58  C    Isotropic =   147.0395   Anisotropy =    29.6132

     59  H    Isotropic =    26.2858   Anisotropy =     5.3638

     60  H    Isotropic =    29.9480   Anisotropy =    11.6212

     61  H    Isotropic =    29.7681   Anisotropy =    10.0798

     62  H    Isotropic =    29.0707   Anisotropy =    12.7310

     63  H    Isotropic =    28.4663   Anisotropy =     7.2315

     64  H    Isotropic =    29.6489   Anisotropy =     9.9380

     65  H    Isotropic =    29.5595   Anisotropy =    11.4836

     66  H    Isotropic =    29.2269   Anisotropy =     7.7049

     67  H    Isotropic =    29.1276   Anisotropy =    13.1335

     68  C    Isotropic =    86.0958   Anisotropy =    26.5536

     69  C    Isotropic =   113.9638   Anisotropy =    21.1654

     70  H    Isotropic =    26.7980   Anisotropy =     3.5620

     71  C    Isotropic =    16.0732   Anisotropy =    81.6895

     72  C    Isotropic =    43.2709   Anisotropy =   184.7470

     73  C    Isotropic =    48.3494   Anisotropy =   173.6759

     74  C    Isotropic =    51.1229   Anisotropy =   194.8414

     75  C    Isotropic =    49.0499   Anisotropy =   189.6637

     76  H    Isotropic =    24.1954   Anisotropy =     9.2307

     77  C    Isotropic =    48.4723   Anisotropy =   192.8615

     78  H    Isotropic =    25.0589   Anisotropy =     6.4462

     79  C    Isotropic =    47.6191   Anisotropy =   192.8655

     80  H    Isotropic =    24.0843   Anisotropy =     5.0956

     81  H    Isotropic =    24.7008   Anisotropy =     7.5504

     82  H    Isotropic =    24.1493   Anisotropy =     3.5443

     83  O    Isotropic =   -71.0507   Anisotropy =   502.3431

     84  N    Isotropic =    68.3617   Anisotropy =   120.2033

     85  C    Isotropic =    42.3512   Anisotropy =   142.7738

     86  C    Isotropic =    60.2568   Anisotropy =   170.3457

     87  C    Isotropic =    65.4323   Anisotropy =   162.5153

     88  C    Isotropic =    49.1281   Anisotropy =   190.5829

     89  H    Isotropic =    23.6573   Anisotropy =    11.8015

     90  C    Isotropic =    50.6241   Anisotropy =   188.5143

     91  H    Isotropic =    25.9290   Anisotropy =    11.6931

     92  C    Isotropic =    52.9130   Anisotropy =   185.2796

     93  H    Isotropic =    24.4787   Anisotropy =     6.3634

     94  H    Isotropic =    24.8896   Anisotropy =     7.3921

     95  H    Isotropic =    24.7583   Anisotropy =     3.1444

 The electronic state is 1-A.
 Alpha  occ. eigenvalues --  -77.24187 -77.23950 -19.20710 -14.46239 -10.38478
 Alpha  occ. eigenvalues --  -10.34058 -10.32756 -10.30681 -10.29588 -10.29432
 Alpha  occ. eigenvalues --  -10.29325 -10.29074 -10.28666 -10.28431 -10.28392
 Alpha  occ. eigenvalues --  -10.28306 -10.28200 -10.28181 -10.28113 -10.28047
 Alpha  occ. eigenvalues --  -10.27922 -10.27731 -10.27600 -10.27581 -10.27532
 Alpha  occ. eigenvalues --  -10.27452 -10.27430 -10.27384 -10.27358 -10.27355
 Alpha  occ. eigenvalues --  -10.27288 -10.27244 -10.27108 -10.26996 -10.26975
 Alpha  occ. eigenvalues --  -10.26966 -10.26893 -10.26871 -10.26863 -10.26823
 Alpha  occ. eigenvalues --  -10.26806 -10.26797 -10.26789 -10.26772 -10.26738
 Alpha  occ. eigenvalues --  -10.26709 -10.25855 -10.25394 -10.25380 -10.25242
 Alpha  occ. eigenvalues --  -10.24816  -6.70024  -6.69846  -4.86325  -4.86242
 Alpha  occ. eigenvalues --   -4.86155  -4.86058  -4.85932  -4.85738  -3.31107
 Alpha  occ. eigenvalues --   -2.08042  -2.07370  -2.04510  -1.15807  -1.08205
 Alpha  occ. eigenvalues --   -0.96687  -0.96365  -0.95902  -0.95643  -0.95589
 Alpha  occ. eigenvalues --   -0.94755  -0.93891  -0.89926  -0.88593  -0.87471
 Alpha  occ. eigenvalues --   -0.87250  -0.86994  -0.86001  -0.85181  -0.85085
 Alpha  occ. eigenvalues --   -0.84720  -0.84708  -0.84432  -0.84430  -0.84355
 Alpha  occ. eigenvalues --   -0.83138  -0.81765  -0.79779  -0.77889  -0.77255
 Alpha  occ. eigenvalues --   -0.75510  -0.75383  -0.71390  -0.71050  -0.70849
 Alpha  occ. eigenvalues --   -0.70622  -0.70524  -0.70209  -0.70022  -0.69839
 Alpha  occ. eigenvalues --   -0.69784  -0.69688  -0.68068  -0.66766  -0.66322
 Alpha  occ. eigenvalues --   -0.65302  -0.63480  -0.62446  -0.62117  -0.61939
 Alpha  occ. eigenvalues --   -0.61709  -0.60618  -0.60167  -0.60118  -0.59459
 Alpha  occ. eigenvalues --   -0.58048  -0.57519  -0.57066  -0.56499  -0.56074
 Alpha  occ. eigenvalues --   -0.55888  -0.55730  -0.55682  -0.55477  -0.55220
 Alpha  occ. eigenvalues --   -0.55131  -0.54795  -0.54614  -0.54345  -0.54020
 Alpha  occ. eigenvalues --   -0.53293  -0.53131  -0.53057  -0.52546  -0.52484
 Alpha  occ. eigenvalues --   -0.52218  -0.52122  -0.52096  -0.51885  -0.51715
 Alpha  occ. eigenvalues --   -0.51528  -0.51171  -0.50912  -0.50361  -0.50004
 Alpha  occ. eigenvalues --   -0.48967  -0.48681  -0.48197  -0.47837  -0.47589
 Alpha  occ. eigenvalues --   -0.47317  -0.46932  -0.46708  -0.46622  -0.46120
 Alpha  occ. eigenvalues --   -0.45766  -0.45686  -0.45423  -0.45058  -0.44931
 Alpha  occ. eigenvalues --   -0.44697  -0.44482  -0.44405  -0.44205  -0.43955
 Alpha  occ. eigenvalues --   -0.43586  -0.43253  -0.42877  -0.42769  -0.42761
 Alpha  occ. eigenvalues --   -0.42378  -0.42230  -0.40979  -0.39559  -0.37741
 Alpha  occ. eigenvalues --   -0.37568  -0.37129  -0.36727  -0.36268  -0.36046
 Alpha  occ. eigenvalues --   -0.35611  -0.35448  -0.35219  -0.35119  -0.35055
 Alpha  occ. eigenvalues --   -0.34748  -0.34493  -0.34134  -0.33720  -0.33596
 Alpha  occ. eigenvalues --   -0.33208  -0.31183  -0.30124
 Alpha virt. eigenvalues --   -0.15747  -0.14639  -0.13944  -0.13192  -0.12470
 Alpha virt. eigenvalues --   -0.12192  -0.11971  -0.11554  -0.11196  -0.10684
 Alpha virt. eigenvalues --   -0.10443  -0.10294  -0.10041  -0.09042  -0.08703

 Mulliken charges:
               1
     1  P    0.412091
     2  C   -0.200129
     3  C   -0.107615
     4  C   -0.112498
     5  C   -0.082907
     6  C   -0.127465
     7  C   -0.034202
     8  H    0.178431
     9  H    0.130710
    10  H    0.135864
    11  H    0.131645
    12  H    0.218277
    13  C   -0.423498
    14  C    0.085381
    15  C   -0.138989
    16  C   -0.071503
    17  C   -0.129814
    18  C    0.057724
    19  H    0.128819
    20  H    0.131768
    21  H    0.134811
    22  H    0.127801
    23  H    0.176335
    24  P    0.299231
    25  C   -0.250656
    26  C   -0.024053
    27  C   -0.101595
    28  C   -0.073764
    29  C   -0.122980
    30  C   -0.032084
    31  H    0.198306
    32  H    0.128670
    33  H    0.136466
    34  H    0.130877
    35  H    0.155696
    36  C   -0.168455
    37  C   -0.012891
    38  C   -0.137031
    39  C   -0.087287
    40  C   -0.100754
    41  C   -0.086740
    42  H    0.152613
    43  H    0.132890
    44  H    0.135647
    45  H    0.124881
    46  H    0.191888
    47  Rh  -0.613894
    48  C   -0.025192
    49  C   -0.090099
    50  C   -0.034943
    51  C   -0.082621
    52  C   -0.363052
    53  H    0.193410
    54  H    0.222827
    55  C   -0.240440
    56  C   -0.343923
    57  H    0.197140
    58  C   -0.217252
    59  H    0.165332
    60  H    0.167112
    61  H    0.166832
    62  H    0.170774
    63  H    0.136661
    64  H    0.164575
    65  H    0.166615
    66  H    0.133715
    67  H    0.170390
    68  C   -0.104381
    69  C   -0.357962
    70  H    0.226227
    71  C   -0.136663
    72  C    0.056252
    73  C   -0.141150
    74  C   -0.075883
    75  C   -0.123018
    76  H    0.134801
    77  C   -0.101726
    78  H    0.156669
    79  C   -0.093994
    80  H    0.128754
    81  H    0.132469
    82  H    0.133793
    83  O   -0.347062
    84  N    0.087499
    85  C    0.084296
    86  C   -0.166932
    87  C   -0.130922
    88  C   -0.090099
    89  H    0.166403
    90  C   -0.119255
    91  H    0.145636
    92  C   -0.097928
    93  H    0.126519
    94  H    0.125307
    95  H    0.128469
 Sum of Mulliken charges =   1.00000

 Dipole moment (field-independent basis, Debye):
    X=             -1.8421    Y=              1.2598    Z=              2.4242  Tot=              3.2950
 Quadrupole moment (field-independent basis, Debye-Ang):
   XX=           -267.3828   YY=           -269.7134   ZZ=           -275.9256
   XY=              4.8396   XZ=              3.2266   YZ=              2.9772

 Summary of Natural Population Analysis:

                                       Natural Population
                Natural  -----------------------------------------------
    Atom  No    Charge         Core      Valence    Rydberg      Total
 -----------------------------------------------------------------------
      P    1    1.13306      9.99626     3.81672    0.05396    13.86694
      C    2   -0.34963      1.99896     4.32705    0.02362     6.34963
      C    3   -0.20624      1.99911     4.19153    0.01561     6.20624
      C    4   -0.19363      1.99919     4.17972    0.01471     6.19363
      C    5   -0.17797      1.99920     4.16408    0.01470     6.17797
      C    6   -0.19523      1.99919     4.18112    0.01491     6.19523
      C    7   -0.19119      1.99910     4.17685    0.01524     6.19119
      H    8    0.22444      0.00000     0.77370    0.00187     0.77556
      H    9    0.22131      0.00000     0.77747    0.00122     0.77869
      H   10    0.22176      0.00000     0.77708    0.00116     0.77824
      H   11    0.22200      0.00000     0.77680    0.00121     0.77800
      H   12    0.24380      0.00000     0.75393    0.00227     0.75620
      C   13   -0.35400      1.99897     4.32938    0.02565     6.35400
      C   14   -0.17241      1.99909     4.15619    0.01713     6.17241
      C   15   -0.19848      1.99918     4.18433    0.01497     6.19848
      C   16   -0.17266      1.99920     4.15874    0.01472     6.17266
      C   17   -0.19984      1.99919     4.18538    0.01527     6.19984
      C   18   -0.19780      1.99909     4.18060    0.01811     6.19780
      H   19    0.23166      0.00000     0.76552    0.00282     0.76834
      H   20    0.22238      0.00000     0.77624    0.00138     0.77762
      H   21    0.22162      0.00000     0.77726    0.00112     0.77838
      H   22    0.22099      0.00000     0.77774    0.00127     0.77901
      H   23    0.22489      0.00000     0.77251    0.00260     0.77511
      P   24    1.12747      9.99634     3.82428    0.05191    13.87253
      C   25   -0.35879      1.99898     4.33521    0.02459     6.35879
      C   26   -0.19046      1.99909     4.17446    0.01691     6.19046
      C   27   -0.19506      1.99919     4.18076    0.01510     6.19506
      C   28   -0.16990      1.99920     4.15627    0.01443     6.16990
      C   29   -0.19479      1.99919     4.18095    0.01464     6.19479
      C   30   -0.17722      1.99910     4.16164    0.01647     6.17722
      H   31    0.22964      0.00000     0.76840    0.00196     0.77036
      H   32    0.22158      0.00000     0.77721    0.00121     0.77842
      H   33    0.22192      0.00000     0.77694    0.00114     0.77808
      H   34    0.22182      0.00000     0.77691    0.00127     0.77818
      H   35    0.21982      0.00000     0.77807    0.00211     0.78018
      C   36   -0.34099      1.99898     4.31767    0.02434     6.34099
      C   37   -0.20024      1.99907     4.18376    0.01741     6.20024
      C   38   -0.19310      1.99920     4.17842    0.01548     6.19310
      C   39   -0.18206      1.99920     4.16811    0.01475     6.18206
      C   40   -0.19140      1.99919     4.17768    0.01452     6.19140
      C   41   -0.19277      1.99909     4.17854    0.01515     6.19277
      H   42    0.21558      0.00000     0.78263    0.00179     0.78442
      H   43    0.22271      0.00000     0.77607    0.00122     0.77729
      H   44    0.22222      0.00000     0.77664    0.00114     0.77778
      H   45    0.21982      0.00000     0.77875    0.00143     0.78018
      H   46    0.21657      0.00000     0.78061    0.00282     0.78343
     Rh   47   -0.36211     35.98546     9.34857    0.02808    45.36211
      C   48   -0.18489      1.99907     4.16642    0.01941     6.18489
      C   49   -0.14935      1.99907     4.13072    0.01955     6.14935
      C   50   -0.17501      1.99906     4.15636    0.01959     6.17501
      C   51   -0.15968      1.99907     4.14068    0.01992     6.15968
      C   52   -0.42262      1.99936     4.41149    0.01177     6.42262
      H   53    0.22676      0.00000     0.77132    0.00192     0.77324
      H   54    0.23317      0.00000     0.76472    0.00211     0.76683
      C   55   -0.41859      1.99935     4.40680    0.01244     6.41859
      C   56   -0.42279      1.99936     4.41170    0.01173     6.42279
      H   57    0.22747      0.00000     0.77039    0.00214     0.77253
      C   58   -0.41725      1.99935     4.40541    0.01249     6.41725
      H   59    0.22392      0.00000     0.77403    0.00205     0.77608
      H   60    0.22736      0.00000     0.77116    0.00148     0.77264
      H   61    0.21525      0.00000     0.78276    0.00199     0.78475
      H   62    0.23252      0.00000     0.76555    0.00193     0.76748
      H   63    0.22216      0.00000     0.77624    0.00160     0.77784
      H   64    0.21398      0.00000     0.78401    0.00201     0.78602
      H   65    0.22779      0.00000     0.77070    0.00151     0.77221
      H   66    0.21405      0.00000     0.78442    0.00153     0.78595
      H   67    0.23329      0.00000     0.76480    0.00191     0.76671
      C   68   -0.62412      1.99923     4.59799    0.02689     6.62412
      C   69   -0.05123      1.99918     4.02847    0.02358     6.05123
      H   70    0.21125      0.00000     0.78527    0.00348     0.78875
      C   71    0.65650      1.99920     3.30391    0.04039     5.34350
      C   72   -0.06980      1.99903     4.04986    0.02091     6.06980
      C   73   -0.20178      1.99910     4.18853    0.01415     6.20178
      C   74   -0.20218      1.99908     4.18787    0.01523     6.20218
      C   75   -0.19729      1.99920     4.18300    0.01508     6.19729
      H   76    0.20965      0.00000     0.78857    0.00179     0.79035
      C   77   -0.19180      1.99921     4.17751    0.01508     6.19180
      H   78    0.22238      0.00000     0.77517    0.00244     0.77762
      C   79   -0.19452      1.99920     4.18053    0.01479     6.19452
      H   80    0.21986      0.00000     0.77892    0.00122     0.78014
      H   81    0.22163      0.00000     0.77702    0.00135     0.77837
      H   82    0.22133      0.00000     0.77753    0.00114     0.77867
      O   83   -0.57528      1.99975     6.56175    0.01379     8.57528
      N   84   -0.37584      1.99937     5.35440    0.02208     7.37584
      C   85    0.12486      1.99890     3.85781    0.01843     5.87514
      C   86   -0.22221      1.99911     4.20906    0.01404     6.22221
      C   87   -0.22941      1.99910     4.21681    0.01350     6.22941
      C   88   -0.18259      1.99922     4.16878    0.01459     6.18259
      H   89    0.23726      0.00000     0.76093    0.00181     0.76274
      C   90   -0.18477      1.99921     4.17066    0.01489     6.18477
      H   91    0.21489      0.00000     0.78347    0.00164     0.78511
      C   92   -0.20726      1.99920     4.19300    0.01505     6.20726
      H   93    0.21775      0.00000     0.78108    0.00117     0.78225
      H   94    0.21747      0.00000     0.78135    0.00118     0.78253
      H   95    0.21867      0.00000     0.78016    0.00117     0.78133
 =======================================================================
   * Total *    1.00000    153.93704   259.00761    1.05534   414.00000

 Normal termination of Gaussian 16 at Mon Jan 20 02:00:15 2025.
