 Gaussian 16, Revision B.01,
 Gaussian 16:  ES64L-G16RevB.01 20-Dec-2017

 ------------------------------------------
 # nmr=giao b3lyp/genecp pop=nbo scfcyc=200
 ------------------------------------------

 ---------
 DS-31_SPE
 ---------
 Symbolic Z-matrix:
 Charge =  1 Multiplicity = 1

                         Standard orientation:
 ---------------------------------------------------------------------
 Center     Atomic      Atomic             Coordinates (Angstroms)
 Number     Number       Type             X           Y           Z
 ---------------------------------------------------------------------
      1         15           0       -1.467609    1.344320    0.405090
      2         15           0       -0.279400   -1.122490   -0.156520
      3          6           0        0.471129   -1.789581    2.482920
      4          6           0        0.694979   -2.673161    3.533620
      5          6           0        0.618208   -4.045651    3.323560
      6          6           0        0.313518   -4.535371    2.056740
      7          6           0        0.085179   -3.657071    1.004190
      8          6           0        0.172699   -2.274421    1.206910
      9          1           0        0.535480   -0.723371    2.658860
     10          1           0        0.932559   -2.285921    4.516550
     11          1           0        0.795578   -4.731721    4.142140
     12          1           0        0.254048   -5.603071    1.886170
     13          1           0       -0.147172   -4.055211    0.023950
     14          6           0        1.748179   -2.487971   -1.658850
     15          6           0        2.382139   -2.826482   -2.850060
     16          6           0        1.906529   -2.339591   -4.062400
     17          6           0        0.786420   -1.513531   -4.085710
     18          6           0        0.143990   -1.180501   -2.899880
     19          6           0        0.623669   -1.658421   -1.674240
     20          1           0        2.140369   -2.873972   -0.728840
     21          1           0        3.254239   -3.467452   -2.824570
     22          1           0        2.404159   -2.605412   -4.986620
     23          1           0        0.407160   -1.137371   -5.027750
     24          1           0       -0.739050   -0.552480   -2.922600
     25          6           0       -0.774688    3.014470   -1.767390
     26          6           0       -0.921088    4.130020   -2.584690
     27          6           0       -1.835708    5.125590   -2.255410
     28          6           0       -2.606038    5.001411   -1.103860
     29          6           0       -2.461968    3.888840   -0.281650
     30          6           0       -1.536519    2.889050   -0.601220
     31          1           0       -0.063079    2.245519   -2.039600
     32          1           0       -0.320348    4.219550   -3.481330
     33          1           0       -1.948147    5.993140   -2.893290
     34          1           0       -3.320697    5.771561   -0.841740
     35          1           0       -3.064928    3.810611    0.614160
     36          6           0       -2.461879    1.072960    3.008240
     37          6           0       -2.606019    1.410271    4.350860
     38          6           0       -1.993709    2.553730    4.850660
     39          6           0       -1.233508    3.360140    4.006760
     40          6           0       -1.085788    3.025410    2.666530
     41          6           0       -1.701989    1.877460    2.155790
     42          1           0       -2.934730    0.179441    2.619180
     43          1           0       -3.198949    0.781411    5.003190
     44          1           0       -2.108889    2.819430    5.894000
     45          1           0       -0.757328    4.252700    4.393100
     46          1           0       -0.501068    3.668250    2.020700
     47          6           0        0.221770    0.607549    0.276950
     48         45           0       -2.566300   -0.577659   -0.352630
     49          6           0       -4.765570   -0.048908   -0.022570
     50          6           0       -4.372940    0.403871   -1.265090
     51          6           0       -3.324051   -2.300879   -1.662460
     52          6           0       -3.458021   -2.650229   -0.336460
     53          6           0       -5.573480   -1.305588    0.244150
     54          1           0       -4.738450    0.669121    0.789830
     55          1           0       -4.091079    1.448511   -1.346430
     56          6           0       -4.600820   -0.280399   -2.590910
     57          6           0       -4.444671   -1.816419   -2.563340
     58          1           0       -2.427601   -2.636600   -2.171740
     59          6           0       -4.708161   -2.558089    0.504140
     60          1           0       -2.673641   -3.260109    0.099710
     61          1           0       -6.201930   -1.134408    1.119850
     62          1           0       -6.259340   -1.483228   -0.584070
     63          1           0       -5.595000   -0.016748   -2.973680
     64          1           0       -3.888400    0.138861   -3.304760
     65          1           0       -5.381771   -2.287788   -2.267790
     66          1           0       -4.244601   -2.160469   -3.579550
     67          1           0       -4.401081   -2.569219    1.552300
     68          1           0       -5.314051   -3.462008    0.362560
     69          6           0        1.378061    1.305259    0.326570
     70          1           0        1.255261    2.382519    0.432450
     71          6           0        2.771131    0.907368    0.220220
     72          6           0        3.704361    1.899048   -0.138760
     73          6           0        3.227440   -0.383732    0.475670
     74          6           0        5.045101    1.583197   -0.302410
     75          1           0        3.357821    2.904438   -0.329420
     76          6           0        4.573720   -0.709453    0.344660
     77          1           0        2.564030   -1.156912    0.827000
     78          6           0        5.504020    0.266447   -0.056920
     79          8           0        6.780640   -0.125604   -0.292460
     80          6           0        7.877380    0.595026    0.303150
     81          1           0        8.736830   -0.066354    0.219170
     82          1           0        8.067421    1.526616   -0.222910
     83          1           0        7.674001    0.799126    1.357220
     84          8           0        4.885719   -2.017613    0.554940
     85          8           0        5.989361    2.463037   -0.728450
     86          6           0        6.074849   -2.377313    1.276030
     87          1           0        5.894049   -3.384333    1.646840
     88          1           0        6.947779   -2.370054    0.627450
     89          1           0        6.234519   -1.705413    2.122890
     90          6           0        5.599202    3.796417   -1.044290
     91          1           0        6.505822    4.298367   -1.372050
     92          1           0        4.864052    3.812357   -1.853480
     93          1           0        5.196672    4.312117   -0.168030
 ---------------------------------------------------------------------

 SCF Done:  E(RB3LYP) =  -2684.51138932     A.U. after   17 cycles

      1  P    Isotropic =   293.4709   Anisotropy =    60.8445

      2  P    Isotropic =   291.1727   Anisotropy =    79.0134

      3  C    Isotropic =    47.1840   Anisotropy =   190.7358

      4  C    Isotropic =    48.5985   Anisotropy =   190.7756

      5  C    Isotropic =    46.9238   Anisotropy =   195.2111

      6  C    Isotropic =    48.7888   Anisotropy =   190.5582

      7  C    Isotropic =    48.6059   Anisotropy =   189.3529

      8  C    Isotropic =    45.9656   Anisotropy =   171.1209

      9  H    Isotropic =    24.4980   Anisotropy =     8.0926

     10  H    Isotropic =    24.3312   Anisotropy =     6.8949

     11  H    Isotropic =    24.0552   Anisotropy =     3.3181

     12  H    Isotropic =    24.0531   Anisotropy =     5.7031

     13  H    Isotropic =    24.3811   Anisotropy =    10.5204

     14  C    Isotropic =    43.7831   Anisotropy =   198.0098

     15  C    Isotropic =    50.1477   Anisotropy =   188.4255

     16  C    Isotropic =    45.7693   Anisotropy =   196.1269

     17  C    Isotropic =    49.7954   Anisotropy =   186.3658

     18  C    Isotropic =    42.7905   Anisotropy =   181.8650

     19  C    Isotropic =    49.2593   Anisotropy =   163.0357

     20  H    Isotropic =    23.9651   Anisotropy =    10.0359

     21  H    Isotropic =    24.3273   Anisotropy =     6.3766

     22  H    Isotropic =    24.2016   Anisotropy =     3.6110

     23  H    Isotropic =    24.1493   Anisotropy =     6.6861

     24  H    Isotropic =    23.3408   Anisotropy =     9.4021

     25  C    Isotropic =    48.1953   Anisotropy =   191.1191

     26  C    Isotropic =    49.4757   Anisotropy =   188.1352

     27  C    Isotropic =    47.0351   Anisotropy =   194.7150

     28  C    Isotropic =    48.5005   Anisotropy =   190.3239

     29  C    Isotropic =    46.6622   Anisotropy =   191.7173

     30  C    Isotropic =    43.7012   Anisotropy =   169.3480

     31  H    Isotropic =    23.9470   Anisotropy =     9.7163

     32  H    Isotropic =    24.0941   Anisotropy =     6.8491

     33  H    Isotropic =    24.0520   Anisotropy =     3.6082

     34  H    Isotropic =    24.1952   Anisotropy =     6.1499

     35  H    Isotropic =    24.6310   Anisotropy =    11.6114

     36  C    Isotropic =    41.4146   Anisotropy =   180.8888

     37  C    Isotropic =    49.5582   Anisotropy =   187.2731

     38  C    Isotropic =    45.4205   Anisotropy =   196.7524

     39  C    Isotropic =    48.3323   Anisotropy =   189.3275

     40  C    Isotropic =    47.2262   Anisotropy =   186.8957

     41  C    Isotropic =    42.0421   Anisotropy =   175.0701

     42  H    Isotropic =    23.3811   Anisotropy =     9.7727

     43  H    Isotropic =    24.1321   Anisotropy =     6.8026

     44  H    Isotropic =    23.9823   Anisotropy =     3.6746

     45  H    Isotropic =    24.1760   Anisotropy =     6.2600

     46  H    Isotropic =    24.2491   Anisotropy =    11.0200

     47  C    Isotropic =    37.8494   Anisotropy =    58.1064

     48  Rh   Isotropic =  -303.1997   Anisotropy =   324.9916

     49  C    Isotropic =    81.6712   Anisotropy =   117.5043

     50  C    Isotropic =    73.5715   Anisotropy =   121.7582

     51  C    Isotropic =    76.6474   Anisotropy =   124.2369

     52  C    Isotropic =    73.6786   Anisotropy =   120.5081

     53  C    Isotropic =   154.0712   Anisotropy =    24.6723

     54  H    Isotropic =    26.9915   Anisotropy =     6.1812

     55  H    Isotropic =    26.9300   Anisotropy =     4.8237

     56  C    Isotropic =   147.8936   Anisotropy =    29.3193

     57  C    Isotropic =   153.9794   Anisotropy =    24.9532

     58  H    Isotropic =    26.9897   Anisotropy =     4.5326

     59  C    Isotropic =   148.3938   Anisotropy =    28.8415

     60  H    Isotropic =    26.6206   Anisotropy =     4.7847

     61  H    Isotropic =    29.8785   Anisotropy =    11.5762

     62  H    Isotropic =    29.8411   Anisotropy =     9.8966

     63  H    Isotropic =    29.3264   Anisotropy =    12.5747

     64  H    Isotropic =    29.3019   Anisotropy =     6.8449

     65  H    Isotropic =    29.8634   Anisotropy =     9.9056

     66  H    Isotropic =    29.9363   Anisotropy =    11.1177

     67  H    Isotropic =    29.3328   Anisotropy =     7.0474

     68  H    Isotropic =    29.2541   Anisotropy =    12.6984

     69  C    Isotropic =    19.4474   Anisotropy =   162.1129

     70  H    Isotropic =    24.3130   Anisotropy =    11.8885

     71  C    Isotropic =    52.9569   Anisotropy =   171.6737

     72  C    Isotropic =    72.2365   Anisotropy =   134.1797

     73  C    Isotropic =    61.6159   Anisotropy =   140.7109

     74  C    Isotropic =    22.0196   Anisotropy =   124.4480

     75  H    Isotropic =    25.9642   Anisotropy =    11.5953

     76  C    Isotropic =    23.1191   Anisotropy =   127.4687

     77  H    Isotropic =    25.2679   Anisotropy =    10.8491

     78  C    Isotropic =    29.9667   Anisotropy =   116.6559

     79  O    Isotropic =   244.4061   Anisotropy =   153.3647

     80  C    Isotropic =   122.2019   Anisotropy =    92.8540

     81  H    Isotropic =    27.9720   Anisotropy =     9.9348

     82  H    Isotropic =    26.9458   Anisotropy =     7.8039

     83  H    Isotropic =    28.9212   Anisotropy =     8.6228

     84  O    Isotropic =   235.3334   Anisotropy =    95.6411

     85  O    Isotropic =   228.5647   Anisotropy =   106.9289

     86  C    Isotropic =   122.0655   Anisotropy =    90.5574

     87  H    Isotropic =    28.2423   Anisotropy =     8.9370

     88  H    Isotropic =    27.1670   Anisotropy =     8.0360

     89  H    Isotropic =    28.9355   Anisotropy =     8.0873

     90  C    Isotropic =   129.1034   Anisotropy =    74.6342

     91  H    Isotropic =    27.8200   Anisotropy =     9.1682

     92  H    Isotropic =    28.6110   Anisotropy =     7.3088

     93  H    Isotropic =    28.5739   Anisotropy =     7.7649

 The electronic state is 1-A.
 Alpha  occ. eigenvalues --  -77.22964 -77.22692 -19.24463 -19.23100 -19.22776
 Alpha  occ. eigenvalues --  -10.32615 -10.32156 -10.31854 -10.30644 -10.30122
 Alpha  occ. eigenvalues --  -10.29135 -10.29100 -10.28972 -10.28903 -10.28783
 Alpha  occ. eigenvalues --  -10.28669 -10.28531 -10.28056 -10.28043 -10.28000
 Alpha  occ. eigenvalues --  -10.27861 -10.27769 -10.27602 -10.27581 -10.27565
 Alpha  occ. eigenvalues --  -10.27504 -10.27490 -10.27317 -10.27231 -10.27009
 Alpha  occ. eigenvalues --  -10.26993 -10.26992 -10.26955 -10.26918 -10.26888
 Alpha  occ. eigenvalues --  -10.26869 -10.26811 -10.26746 -10.26685 -10.26633
 Alpha  occ. eigenvalues --  -10.26629 -10.26553 -10.26498 -10.26467 -10.26417
 Alpha  occ. eigenvalues --  -10.26415 -10.26290 -10.25767  -6.68870  -6.68647
 Alpha  occ. eigenvalues --   -4.85163  -4.85092  -4.84922  -4.84874  -4.84780
 Alpha  occ. eigenvalues --   -4.84561  -3.30442  -2.07337  -2.06660  -2.03925
 Alpha  occ. eigenvalues --   -1.16322  -1.14503  -1.12689  -0.96181  -0.95825
 Alpha  occ. eigenvalues --   -0.95425  -0.95259  -0.95084  -0.93465  -0.90478
 Alpha  occ. eigenvalues --   -0.88178  -0.87085  -0.86883  -0.86443  -0.84864
 Alpha  occ. eigenvalues --   -0.84685  -0.84596  -0.84478  -0.84244  -0.84218
 Alpha  occ. eigenvalues --   -0.83899  -0.83647  -0.80080  -0.79431  -0.78634
 Alpha  occ. eigenvalues --   -0.77314  -0.76885  -0.75149  -0.74728  -0.71004
 Alpha  occ. eigenvalues --   -0.70530  -0.70402  -0.70192  -0.69968  -0.69645
 Alpha  occ. eigenvalues --   -0.69533  -0.69242  -0.68554  -0.67770  -0.66316
 Alpha  occ. eigenvalues --   -0.64889  -0.63934  -0.62024  -0.61730  -0.61533
 Alpha  occ. eigenvalues --   -0.61323  -0.61173  -0.60167  -0.59702  -0.59050
 Alpha  occ. eigenvalues --   -0.58266  -0.57569  -0.56223  -0.56189  -0.55960
 Alpha  occ. eigenvalues --   -0.55659  -0.55349  -0.55311  -0.55091  -0.54918
 Alpha  occ. eigenvalues --   -0.54834  -0.54695  -0.54550  -0.54378  -0.53700
 Alpha  occ. eigenvalues --   -0.53216  -0.52915  -0.52738  -0.52711  -0.52100
 Alpha  occ. eigenvalues --   -0.52032  -0.51860  -0.51770  -0.51675  -0.51506
 Alpha  occ. eigenvalues --   -0.51438  -0.51012  -0.50483  -0.50349  -0.49144
 Alpha  occ. eigenvalues --   -0.48153  -0.48009  -0.47530  -0.47233  -0.47079
 Alpha  occ. eigenvalues --   -0.46902  -0.46699  -0.46428  -0.46223  -0.45586
 Alpha  occ. eigenvalues --   -0.45225  -0.45088  -0.44502  -0.44401  -0.44305
 Alpha  occ. eigenvalues --   -0.44185  -0.43994  -0.43689  -0.43254  -0.42928
 Alpha  occ. eigenvalues --   -0.42634  -0.42471  -0.42160  -0.42053  -0.41814
 Alpha  occ. eigenvalues --   -0.41589  -0.40438  -0.39982  -0.37361  -0.37134
 Alpha  occ. eigenvalues --   -0.36794  -0.36379  -0.35893  -0.35622  -0.35370
 Alpha  occ. eigenvalues --   -0.35140  -0.35066  -0.34927  -0.34757  -0.34116
 Alpha  occ. eigenvalues --   -0.33453  -0.33128  -0.32603  -0.31134  -0.30283
 Alpha  occ. eigenvalues --   -0.29530
 Alpha virt. eigenvalues --   -0.17508  -0.14099  -0.13685  -0.12847  -0.11984
 Alpha virt. eigenvalues --   -0.11669  -0.11360  -0.10748  -0.10387  -0.10008
 Alpha virt. eigenvalues --   -0.09263  -0.08316  -0.08234  -0.06707  -0.06147

 Mulliken charges:
               1
     1  P    0.480494
     2  P    0.363117
     3  C   -0.092619
     4  C   -0.090379
     5  C   -0.103037
     6  C   -0.083369
     7  C   -0.164766
     8  C   -0.108404
     9  H    0.170481
    10  H    0.129810
    11  H    0.133888
    12  H    0.132965
    13  H    0.169261
    14  C   -0.054379
    15  C   -0.117531
    16  C   -0.086765
    17  C   -0.105932
    18  C   -0.079678
    19  C   -0.185896
    20  H    0.180045
    21  H    0.134000
    22  H    0.133508
    23  H    0.125829
    24  H    0.181182
    25  C   -0.104627
    26  C   -0.111247
    27  C   -0.093889
    28  C   -0.095982
    29  C   -0.083538
    30  C   -0.183771
    31  H    0.173892
    32  H    0.128880
    33  H    0.136399
    34  H    0.133706
    35  H    0.156992
    36  C   -0.060847
    37  C   -0.102931
    38  C   -0.095288
    39  C   -0.093699
    40  C   -0.060392
    41  C   -0.265613
    42  H    0.175664
    43  H    0.129305
    44  H    0.136020
    45  H    0.131626
    46  H    0.144647
    47  C   -0.588871
    48  Rh  -0.677738
    49  C   -0.033588
    50  C   -0.100592
    51  C   -0.029131
    52  C   -0.105145
    53  C   -0.347915
    54  H    0.191662
    55  H    0.210984
    56  C   -0.231484
    57  C   -0.350864
    58  H    0.203670
    59  C   -0.222505
    60  H    0.195435
    61  H    0.166065
    62  H    0.165406
    63  H    0.168495
    64  H    0.132043
    65  H    0.165366
    66  H    0.166845
    67  H    0.131559
    68  H    0.169075
    69  C    0.035408
    70  H    0.157513
    71  C    0.104668
    72  C   -0.174520
    73  C   -0.104792
    74  C    0.106978
    75  H    0.147442
    76  C    0.033768
    77  H    0.187513
    78  C    0.012750
    79  O   -0.258807
    80  C   -0.165458
    81  H    0.145409
    82  H    0.154403
    83  H    0.116630
    84  O   -0.250891
    85  O   -0.213268
    86  C   -0.174539
    87  H    0.144152
    88  H    0.148132
    89  H    0.111430
    90  C   -0.221333
    91  H    0.158726
    92  H    0.132862
    93  H    0.129922
 Sum of Mulliken charges =   1.00000

 Dipole moment (field-independent basis, Debye):
    X=             -0.3966    Y=              2.0538    Z=              0.9166  Tot=              2.2838
 Quadrupole moment (field-independent basis, Debye-Ang):
   XX=           -225.1849   YY=           -252.2393   ZZ=           -267.5997
   XY=              8.3204   XZ=              5.5021   YZ=             -5.4449

 Summary of Natural Population Analysis:

                                       Natural Population
                Natural  -----------------------------------------------
    Atom  No    Charge         Core      Valence    Rydberg      Total
 -----------------------------------------------------------------------
      P    1    1.13339      9.99618     3.81553    0.05489    13.86661
      P    2    1.12007      9.99621     3.82812    0.05561    13.87993
      C    3   -0.19634      1.99909     4.18215    0.01510     6.19634
      C    4   -0.19062      1.99919     4.17678    0.01464     6.19062
      C    5   -0.18431      1.99920     4.17042    0.01468     6.18431
      C    6   -0.19143      1.99920     4.17757    0.01467     6.19143
      C    7   -0.20419      1.99909     4.18987    0.01522     6.20419
      C    8   -0.34236      1.99898     4.32006    0.02332     6.34236
      H    9    0.22315      0.00000     0.77461    0.00224     0.77685
      H   10    0.22012      0.00000     0.77863    0.00124     0.77988
      H   11    0.22088      0.00000     0.77794    0.00118     0.77912
      H   12    0.22126      0.00000     0.77751    0.00123     0.77874
      H   13    0.21797      0.00000     0.78010    0.00193     0.78203
      C   14   -0.18484      1.99909     4.16840    0.01735     6.18484
      C   15   -0.19179      1.99919     4.17750    0.01510     6.19179
      C   16   -0.17662      1.99920     4.16284    0.01457     6.17662
      C   17   -0.20074      1.99919     4.18683    0.01472     6.20074
      C   18   -0.19107      1.99910     4.17598    0.01599     6.19107
      C   19   -0.34105      1.99896     4.31712    0.02497     6.34105
      H   20    0.22773      0.00000     0.76995    0.00232     0.77227
      H   21    0.22354      0.00000     0.77517    0.00129     0.77646
      H   22    0.22058      0.00000     0.77827    0.00115     0.77942
      H   23    0.21841      0.00000     0.78035    0.00124     0.78159
      H   24    0.21993      0.00000     0.77813    0.00194     0.78007
      C   25   -0.19965      1.99910     4.18525    0.01531     6.19965
      C   26   -0.19435      1.99920     4.18040    0.01475     6.19435
      C   27   -0.18512      1.99920     4.17114    0.01477     6.18512
      C   28   -0.19170      1.99920     4.17774    0.01476     6.19170
      C   29   -0.20062      1.99910     4.18632    0.01521     6.20062
      C   30   -0.34075      1.99899     4.31786    0.02390     6.34075
      H   31    0.21916      0.00000     0.77861    0.00222     0.78084
      H   32    0.21925      0.00000     0.77951    0.00124     0.78075
      H   33    0.22147      0.00000     0.77735    0.00118     0.77853
      H   34    0.22195      0.00000     0.77682    0.00123     0.77805
      H   35    0.22130      0.00000     0.77695    0.00175     0.77870
      C   36   -0.18433      1.99910     4.16982    0.01542     6.18433
      C   37   -0.19746      1.99920     4.18368    0.01458     6.19746
      C   38   -0.17840      1.99921     4.16460    0.01459     6.17840
      C   39   -0.19400      1.99920     4.18020    0.01460     6.19400
      C   40   -0.19152      1.99909     4.17653    0.01589     6.19152
      C   41   -0.34192      1.99898     4.31838    0.02456     6.34192
      H   42    0.22340      0.00000     0.77462    0.00198     0.77660
      H   43    0.22017      0.00000     0.77859    0.00123     0.77983
      H   44    0.22139      0.00000     0.77743    0.00118     0.77861
      H   45    0.22104      0.00000     0.77772    0.00124     0.77896
      H   46    0.21565      0.00000     0.78244    0.00191     0.78435
      C   47   -0.64459      1.99904     4.61892    0.02663     6.64459
     Rh   48   -0.39169     35.98597     9.37722    0.02850    45.39169
      C   49   -0.18476      1.99907     4.16605    0.01964     6.18476
      C   50   -0.15572      1.99908     4.13681    0.01983     6.15572
      C   51   -0.17464      1.99907     4.15598    0.01959     6.17464
      C   52   -0.16359      1.99908     4.14475    0.01976     6.16359
      C   53   -0.42244      1.99936     4.41131    0.01177     6.42244
      H   54    0.22540      0.00000     0.77261    0.00199     0.77460
      H   55    0.23019      0.00000     0.76772    0.00209     0.76981
      C   56   -0.41734      1.99935     4.40543    0.01255     6.41734
      C   57   -0.42352      1.99936     4.41233    0.01183     6.42352
      H   58    0.22894      0.00000     0.76907    0.00199     0.77106
      C   59   -0.41804      1.99935     4.40607    0.01262     6.41804
      H   60    0.22838      0.00000     0.76941    0.00221     0.77162
      H   61    0.22659      0.00000     0.77191    0.00150     0.77341
      H   62    0.21361      0.00000     0.78439    0.00200     0.78639
      H   63    0.23177      0.00000     0.76631    0.00193     0.76823
      H   64    0.21538      0.00000     0.78307    0.00154     0.78462
      H   65    0.21362      0.00000     0.78438    0.00200     0.78638
      H   66    0.22713      0.00000     0.77138    0.00149     0.77287
      H   67    0.21591      0.00000     0.78254    0.00155     0.78409
      H   68    0.23199      0.00000     0.76608    0.00193     0.76801
      C   69   -0.08962      1.99900     4.06968    0.02094     6.08962
      H   70    0.20852      0.00000     0.78811    0.00337     0.79148
      C   71   -0.09970      1.99907     4.08178    0.01885     6.09970
      C   72   -0.26284      1.99905     4.25058    0.01321     6.26284
      C   73   -0.21768      1.99901     4.20277    0.01590     6.21768
      C   74    0.24806      1.99872     3.73137    0.02185     5.75194
      H   75    0.21394      0.00000     0.78336    0.00270     0.78606
      C   76    0.25731      1.99870     3.72081    0.02318     5.74269
      H   77    0.22443      0.00000     0.77264    0.00293     0.77557
      C   78    0.21794      1.99865     3.76037    0.02304     5.78206
      O   79   -0.46552      1.99976     6.44865    0.01711     8.46552
      C   80   -0.25024      1.99925     4.23805    0.01295     6.25024
      H   81    0.19295      0.00000     0.80564    0.00141     0.80705
      H   82    0.19780      0.00000     0.80041    0.00179     0.80220
      H   83    0.17071      0.00000     0.82713    0.00216     0.82929
      O   84   -0.46959      1.99976     6.45349    0.01634     8.46959
      O   85   -0.45281      1.99976     6.43661    0.01644     8.45281
      C   86   -0.24478      1.99926     4.23269    0.01284     6.24478
      H   87    0.19071      0.00000     0.80791    0.00138     0.80929
      H   88    0.19079      0.00000     0.80740    0.00181     0.80921
      H   89    0.16928      0.00000     0.82864    0.00208     0.83072
      C   90   -0.25532      1.99928     4.24317    0.01286     6.25532
      H   91    0.20573      0.00000     0.79307    0.00121     0.79427
      H   92    0.17617      0.00000     0.82169    0.00214     0.82383
      H   93    0.17452      0.00000     0.82334    0.00214     0.82548
 =======================================================================
   * Total *    1.00000    147.93944   251.06490    0.99565   400.00000

 Normal termination of Gaussian 16 at Mon Jan 20 01:31:07 2025.
