 Gaussian 16, Revision B.01,
 Gaussian 16:  ES64L-G16RevB.01 20-Dec-2017

 ------------------------------------------
 # nmr=giao b3lyp/genecp pop=nbo scfcyc=200
 ------------------------------------------

 --------
 DS-3_SPE
 --------
 Symbolic Z-matrix:
 Charge =  1 Multiplicity = 1

                         Standard orientation:
 ---------------------------------------------------------------------
 Center     Atomic      Atomic             Coordinates (Angstroms)
 Number     Number       Type             X           Y           Z
 ---------------------------------------------------------------------
      1         15           0       -1.188020   -0.047761   -0.202919
      2         15           0        1.083018    1.456831   -0.980689
      3          6           0       -2.293271    0.868788    0.953331
      4          6           0       -3.256162    1.764017    0.475891
      5          1           0       -3.354942    1.949166   -0.585929
      6          6           0       -4.093893    2.429656    1.362791
      7          1           0       -4.835994    3.121295    0.984191
      8          6           0       -3.978052    2.209906    2.732881
      9          1           0       -4.630993    2.730545    3.421941
     10          6           0       -3.020201    1.324677    3.214671
     11          1           0       -2.923671    1.154647    4.279591
     12          6           0       -2.177831    0.659568    2.329401
     13          1           0       -1.423790   -0.014111    2.713201
     14          6           0       -2.242538   -1.331582   -1.001269
     15          6           0       -1.674728   -2.127912   -2.004029
     16          1           0       -0.647298   -1.968441   -2.309379
     17          6           0       -2.422886   -3.125493   -2.614319
     18          1           0       -1.978046   -3.731302   -3.393819
     19          6           0       -3.739756   -3.351294   -2.219559
     20          1           0       -4.320825   -4.132755   -2.692589
     21          6           0       -4.303737   -2.574675   -1.214849
     22          1           0       -5.325357   -2.749066   -0.901509
     23          6           0       -3.560938   -1.566724   -0.605239
     24          1           0       -4.014149   -0.969264    0.174021
     25          6           0        2.102878    1.500673   -2.566689
     26          1           0        1.615557    2.243912   -3.203689
     27          6           0        2.068910    0.148723   -3.286439
     28          1           0        2.619820    0.222473   -4.226609
     29          1           0        1.052790   -0.166159   -3.524029
     30          1           0        2.535521   -0.634447   -2.686689
     31          6           0        3.541568    1.962764   -2.302189
     32          1           0        4.065909    1.294155   -1.616229
     33          1           0        3.592397    2.972554   -1.895239
     34          1           0        4.098628    1.963355   -3.241489
     35          6           0        1.221326    3.194832   -0.260249
     36          1           0        2.293096    3.285483   -0.057649
     37          6           0        0.806095    4.296101   -1.240249
     38          1           0       -0.252155    4.219170   -1.497349
     39          1           0        1.386255    4.284922   -2.163499
     40          1           0        0.957894    5.272501   -0.774329
     41          6           0        0.477546    3.316751    1.073101
     42          1           0        0.706855    4.282261    1.529131
     43          1           0        0.766197    2.534251    1.776111
     44          1           0       -0.603344    3.266090    0.936551
     45         45           0        1.047061   -0.444759    0.457591
     46          6           0        3.259821   -1.034176    0.457471
     47          6           0        3.012810   -0.200616    1.527601
     48          6           0        0.790872   -2.002309    2.101071
     49          6           0        0.867763   -2.643649    0.880721
     50          6           0        3.407463   -2.542316    0.524471
     51          1           0        3.645851   -0.572716   -0.443229
     52          1           0        3.250009    0.851174    1.400441
     53          6           0        2.767911   -0.614737    2.957311
     54          6           0        1.910942   -1.889018    3.118851
     55          1           0       -0.206138   -1.824510    2.488031
     56          6           0        2.085954   -3.300037    0.280911
     57          1           0       -0.068977   -2.932570    0.415771
     58          1           0        4.129793   -2.853515   -0.232029
     59          1           0        3.839043   -2.826335    1.483771
     60          1           0        3.727971   -0.744906    3.472211
     61          1           0        2.271240    0.216323    3.462781
     62          1           0        2.539123   -2.778457    3.074941
     63          1           0        1.472482   -1.883838    4.118041
     64          1           0        1.918404   -3.392128   -0.794409
     65          1           0        2.171185   -4.327047    0.657821
     66          6           0       -0.674361    1.168519   -1.502919
     67          6           0       -1.297712    1.501119   -2.629579
     68          1           0       -0.843592    2.147539   -3.372949
     69          1           0       -2.284211    1.118508   -2.870789
 ---------------------------------------------------------------------

 SCF Done:  E(RB3LYP) =  -1883.41920688     A.U. after   16 cycles

      1  P    Isotropic =   296.6516   Anisotropy =    81.9573

      2  P    Isotropic =   269.5501   Anisotropy =    86.2642

      3  C    Isotropic =    50.7022   Anisotropy =   169.4546

      4  C    Isotropic =    45.9529   Anisotropy =   193.8624

      5  H    Isotropic =    24.2379   Anisotropy =    10.8702

      6  C    Isotropic =    48.4661   Anisotropy =   190.7471

      7  H    Isotropic =    24.0067   Anisotropy =     5.7790

      8  C    Isotropic =    44.6594   Anisotropy =   199.3553

      9  H    Isotropic =    23.9133   Anisotropy =     3.5550

     10  C    Isotropic =    48.6583   Anisotropy =   189.4736

     11  H    Isotropic =    24.0249   Anisotropy =     6.6040

     12  C    Isotropic =    42.1209   Anisotropy =   184.7917

     13  H    Isotropic =    23.9102   Anisotropy =    10.2185

     14  C    Isotropic =    45.3572   Anisotropy =   162.9494

     15  C    Isotropic =    47.2914   Anisotropy =   183.7594

     16  H    Isotropic =    24.0512   Anisotropy =    10.0026

     17  C    Isotropic =    49.0164   Anisotropy =   188.5869

     18  H    Isotropic =    24.0898   Anisotropy =     7.0106

     19  C    Isotropic =    45.8669   Anisotropy =   196.6270

     20  H    Isotropic =    24.1023   Anisotropy =     3.9138

     21  C    Isotropic =    48.9509   Anisotropy =   189.2761

     22  H    Isotropic =    24.3676   Anisotropy =     6.6165

     23  C    Isotropic =    45.2636   Anisotropy =   192.5529

     24  H    Isotropic =    25.1612   Anisotropy =    13.3163

     25  C    Isotropic =   150.3332   Anisotropy =    19.4951

     26  H    Isotropic =    29.3388   Anisotropy =     6.5694

     27  C    Isotropic =   164.9734   Anisotropy =    29.4879

     28  H    Isotropic =    30.4399   Anisotropy =    12.0033

     29  H    Isotropic =    30.2343   Anisotropy =     6.9162

     30  H    Isotropic =    30.3848   Anisotropy =     6.1494

     31  C    Isotropic =   166.8069   Anisotropy =    29.0745

     32  H    Isotropic =    31.2093   Anisotropy =     5.8237

     33  H    Isotropic =    30.6945   Anisotropy =     8.5467

     34  H    Isotropic =    30.5121   Anisotropy =    12.2263

     35  C    Isotropic =   147.3839   Anisotropy =    23.6891

     36  H    Isotropic =    29.8011   Anisotropy =     5.3477

     37  C    Isotropic =   168.0324   Anisotropy =    30.7328

     38  H    Isotropic =    31.1252   Anisotropy =     6.3435

     39  H    Isotropic =    30.7411   Anisotropy =     9.1068

     40  H    Isotropic =    30.7350   Anisotropy =    12.3081

     41  C    Isotropic =   162.7740   Anisotropy =    29.8599

     42  H    Isotropic =    30.9331   Anisotropy =    10.9260

     43  H    Isotropic =    30.7139   Anisotropy =     5.8658

     44  H    Isotropic =    32.0696   Anisotropy =    10.7726

     45  Rh   Isotropic =  -313.2793   Anisotropy =   352.3577

     46  C    Isotropic =    78.8047   Anisotropy =   122.1597

     47  C    Isotropic =    78.3046   Anisotropy =   115.4174

     48  C    Isotropic =    81.7772   Anisotropy =   116.1178

     49  C    Isotropic =    73.7206   Anisotropy =   120.9501

     50  C    Isotropic =   153.6016   Anisotropy =    25.3636

     51  H    Isotropic =    26.5318   Anisotropy =     6.2871

     52  H    Isotropic =    26.2749   Anisotropy =     4.6807

     53  C    Isotropic =   147.4209   Anisotropy =    29.3122

     54  C    Isotropic =   154.2565   Anisotropy =    24.4231

     55  H    Isotropic =    26.8982   Anisotropy =     7.1263

     56  C    Isotropic =   147.6094   Anisotropy =    28.9975

     57  H    Isotropic =    26.6459   Anisotropy =     3.6529

     58  H    Isotropic =    29.7459   Anisotropy =    11.2990

     59  H    Isotropic =    29.6824   Anisotropy =     9.4463

     60  H    Isotropic =    29.0167   Anisotropy =    12.7212

     61  H    Isotropic =    29.0848   Anisotropy =     7.7589

     62  H    Isotropic =    29.7116   Anisotropy =     9.5495

     63  H    Isotropic =    29.7536   Anisotropy =    11.7644

     64  H    Isotropic =    29.0578   Anisotropy =     7.4324

     65  H    Isotropic =    29.1545   Anisotropy =    12.4143

     66  C    Isotropic =    17.2437   Anisotropy =   110.0850

     67  C    Isotropic =    40.7095   Anisotropy =   184.1089

     68  H    Isotropic =    25.5938   Anisotropy =     7.5160

     69  H    Isotropic =    25.5215   Anisotropy =     7.4203

 The electronic state is 1-A.
 Alpha  occ. eigenvalues --  -77.24115 -77.23041 -10.31149 -10.30481 -10.30418
 Alpha  occ. eigenvalues --  -10.30244 -10.30055 -10.29822 -10.29597 -10.29454
 Alpha  occ. eigenvalues --  -10.29385 -10.29102 -10.28836 -10.28807 -10.28560
 Alpha  occ. eigenvalues --  -10.28333 -10.28129 -10.28059 -10.28020 -10.27893
 Alpha  occ. eigenvalues --  -10.27828 -10.27778 -10.27682 -10.27674 -10.27616
 Alpha  occ. eigenvalues --  -10.27585 -10.27343 -10.26989 -10.26877 -10.26486
 Alpha  occ. eigenvalues --   -6.70092  -6.69101  -4.86374  -4.86309  -4.86000
 Alpha  occ. eigenvalues --   -4.85405  -4.85263  -4.85014  -3.31944  -2.08833
 Alpha  occ. eigenvalues --   -2.08160  -2.05399  -0.97196  -0.96408  -0.94850
 Alpha  occ. eigenvalues --   -0.93019  -0.90167  -0.89641  -0.89555  -0.88396
 Alpha  occ. eigenvalues --   -0.86986  -0.85774  -0.85504  -0.85188  -0.80766
 Alpha  occ. eigenvalues --   -0.79841  -0.79320  -0.78615  -0.78209  -0.76103
 Alpha  occ. eigenvalues --   -0.71633  -0.71475  -0.70945  -0.70650  -0.70320
 Alpha  occ. eigenvalues --   -0.69660  -0.66700  -0.66262  -0.63300  -0.62721
 Alpha  occ. eigenvalues --   -0.62655  -0.60927  -0.60425  -0.58666  -0.57405
 Alpha  occ. eigenvalues --   -0.57287  -0.56980  -0.56622  -0.56520  -0.56255
 Alpha  occ. eigenvalues --   -0.56038  -0.55687  -0.54749  -0.54489  -0.54009
 Alpha  occ. eigenvalues --   -0.53269  -0.53031  -0.52972  -0.52847  -0.52350
 Alpha  occ. eigenvalues --   -0.51882  -0.51023  -0.50698  -0.49704  -0.49280
 Alpha  occ. eigenvalues --   -0.48775  -0.48348  -0.47985  -0.47822  -0.47124
 Alpha  occ. eigenvalues --   -0.46681  -0.46385  -0.46268  -0.46120  -0.45760
 Alpha  occ. eigenvalues --   -0.45616  -0.45299  -0.45195  -0.44676  -0.43766
 Alpha  occ. eigenvalues --   -0.43691  -0.43226  -0.42569  -0.42059  -0.41131
 Alpha  occ. eigenvalues --   -0.39930  -0.38236  -0.37030  -0.36797  -0.36534
 Alpha  occ. eigenvalues --   -0.36022  -0.35841  -0.35100  -0.34817  -0.34141
 Alpha  occ. eigenvalues --   -0.31139
 Alpha virt. eigenvalues --   -0.18016  -0.15060  -0.14023  -0.13701  -0.12215
 Alpha virt. eigenvalues --   -0.11701  -0.11052  -0.09681  -0.08570  -0.07253
 Alpha virt. eigenvalues --   -0.06810  -0.06718  -0.06440  -0.04941  -0.04763

 Mulliken charges:
               1
     1  P    0.317394
     2  P    0.432187
     3  C   -0.283058
     4  C    0.001160
     5  H    0.125507
     6  C   -0.101762
     7  H    0.135323
     8  C   -0.083342
     9  H    0.142495
    10  C   -0.128810
    11  H    0.132902
    12  C    0.021861
    13  H    0.107443
    14  C   -0.221613
    15  C   -0.032095
    16  H    0.143808
    17  C   -0.102288
    18  H    0.132583
    19  C   -0.087696
    20  H    0.140497
    21  C   -0.101196
    22  H    0.136359
    23  C   -0.039739
    24  H    0.163098
    25  C   -0.188936
    26  H    0.171960
    27  C   -0.378581
    28  H    0.158503
    29  H    0.137377
    30  H    0.123192
    31  C   -0.411054
    32  H    0.138211
    33  H    0.152150
    34  H    0.158253
    35  C   -0.155601
    36  H    0.169066
    37  C   -0.388549
    38  H    0.139066
    39  H    0.144100
    40  H    0.153060
    41  C   -0.406656
    42  H    0.155512
    43  H    0.135011
    44  H    0.152864
    45  Rh  -0.489540
    46  C   -0.028684
    47  C   -0.077177
    48  C   -0.006804
    49  C   -0.103686
    50  C   -0.355449
    51  H    0.167002
    52  H    0.172511
    53  C   -0.213759
    54  C   -0.367598
    55  H    0.179916
    56  C   -0.227495
    57  H    0.216957
    58  H    0.169507
    59  H    0.168059
    60  H    0.173908
    61  H    0.132574
    62  H    0.169045
    63  H    0.167321
    64  H    0.129818
    65  H    0.173908
    66  C   -0.484565
    67  C   -0.090217
    68  H    0.154932
    69  H    0.159548
 Sum of Mulliken charges =   1.00000

 Dipole moment (field-independent basis, Debye):
    X=              0.3483    Y=              1.1616    Z=             -0.9644  Tot=              1.5495
 Quadrupole moment (field-independent basis, Debye-Ang):
   XX=           -169.5133   YY=           -180.6447   ZZ=           -181.4257
   XY=             -1.3232   XZ=             -1.6745   YZ=             -0.3593

 Summary of Natural Population Analysis:

                                       Natural Population
                Natural  -----------------------------------------------
    Atom  No    Charge         Core      Valence    Rydberg      Total
 -----------------------------------------------------------------------
      P    1    1.10445      9.99630     3.84495    0.05430    13.89555
      P    2    1.07892      9.99660     3.87510    0.04937    13.92108
      C    3   -0.33954      1.99898     4.31590    0.02467     6.33954
      C    4   -0.19409      1.99908     4.17871    0.01630     6.19409
      H    5    0.21642      0.00000     0.78151    0.00208     0.78358
      C    6   -0.19297      1.99919     4.17922    0.01455     6.19297
      H    7    0.22402      0.00000     0.77475    0.00123     0.77598
      C    8   -0.17417      1.99921     4.16041    0.01456     6.17417
      H    9    0.22440      0.00000     0.77442    0.00117     0.77560
      C   10   -0.19447      1.99920     4.18075    0.01453     6.19447
      H   11    0.22292      0.00000     0.77585    0.00122     0.77708
      C   12   -0.18219      1.99909     4.16759    0.01551     6.18219
      H   13    0.21539      0.00000     0.78262    0.00199     0.78461
      C   14   -0.34756      1.99899     4.32365    0.02492     6.34756
      C   15   -0.19498      1.99910     4.18031    0.01557     6.19498
      H   16    0.21519      0.00000     0.78252    0.00229     0.78481
      C   17   -0.19391      1.99920     4.18010    0.01461     6.19391
      H   18    0.22173      0.00000     0.77704    0.00123     0.77827
      C   19   -0.17716      1.99921     4.16332    0.01463     6.17716
      H   20    0.22362      0.00000     0.77521    0.00117     0.77638
      C   21   -0.19023      1.99920     4.17640    0.01463     6.19023
      H   22    0.22364      0.00000     0.77515    0.00121     0.77636
      C   23   -0.19048      1.99910     4.17586    0.01553     6.19048
      H   24    0.22497      0.00000     0.77324    0.00179     0.77503
      C   25   -0.46224      1.99941     4.44716    0.01567     6.46224
      H   26    0.21889      0.00000     0.77845    0.00266     0.78111
      C   27   -0.59261      1.99941     4.58597    0.00722     6.59261
      H   28    0.22246      0.00000     0.77605    0.00149     0.77754
      H   29    0.21187      0.00000     0.78666    0.00148     0.78813
      H   30    0.20910      0.00000     0.78937    0.00153     0.79090
      C   31   -0.59780      1.99941     4.59085    0.00754     6.59780
      H   32    0.20338      0.00000     0.79510    0.00152     0.79662
      H   33    0.21137      0.00000     0.78719    0.00144     0.78863
      H   34    0.22724      0.00000     0.77126    0.00151     0.77276
      C   35   -0.45557      1.99940     4.44153    0.01464     6.45557
      H   36    0.22168      0.00000     0.77644    0.00188     0.77832
      C   37   -0.60310      1.99941     4.59458    0.00911     6.60310
      H   38    0.20814      0.00000     0.79005    0.00181     0.79186
      H   39    0.20682      0.00000     0.79167    0.00152     0.79318
      H   40    0.22633      0.00000     0.77216    0.00151     0.77367
      C   41   -0.59324      1.99941     4.58564    0.00819     6.59324
      H   42    0.22141      0.00000     0.77708    0.00151     0.77859
      H   43    0.21699      0.00000     0.78158    0.00143     0.78301
      H   44    0.21124      0.00000     0.78677    0.00198     0.78876
     Rh   45   -0.37160     35.98607     9.35581    0.02972    45.37160
      C   46   -0.16893      1.99907     4.14990    0.01996     6.16893
      C   47   -0.16461      1.99909     4.14546    0.02006     6.16461
      C   48   -0.18649      1.99907     4.16780    0.01963     6.18649
      C   49   -0.15279      1.99908     4.13387    0.01983     6.15279
      C   50   -0.42507      1.99936     4.41370    0.01202     6.42507
      H   51    0.21970      0.00000     0.77802    0.00228     0.78030
      H   52    0.22428      0.00000     0.77382    0.00190     0.77572
      C   53   -0.41809      1.99935     4.40603    0.01271     6.41809
      C   54   -0.42292      1.99936     4.41172    0.01183     6.42292
      H   55    0.22037      0.00000     0.77764    0.00198     0.77963
      C   56   -0.41725      1.99935     4.40523    0.01267     6.41725
      H   57    0.23163      0.00000     0.76633    0.00204     0.76837
      H   58    0.22855      0.00000     0.76994    0.00150     0.77145
      H   59    0.21636      0.00000     0.78165    0.00198     0.78364
      H   60    0.23485      0.00000     0.76327    0.00188     0.76515
      H   61    0.21683      0.00000     0.78159    0.00158     0.78317
      H   62    0.21581      0.00000     0.78219    0.00199     0.78419
      H   63    0.22823      0.00000     0.77026    0.00150     0.77177
      H   64    0.21584      0.00000     0.78248    0.00167     0.78416
      H   65    0.23467      0.00000     0.76342    0.00191     0.76533
      C   66   -0.61173      1.99908     4.58335    0.02931     6.61173
      C   67   -0.30669      1.99902     4.29116    0.01651     6.30669
      H   68    0.20863      0.00000     0.78888    0.00249     0.79137
      H   69    0.21414      0.00000     0.78323    0.00263     0.78586
 =======================================================================
   * Total *    1.00000    111.95678   167.40690    0.63633   280.00000

 Normal termination of Gaussian 16 at Sun Jan 19 20:53:24 2025.
