 Gaussian 16, Revision B.01,
 Gaussian 16:  ES64L-G16RevB.01 20-Dec-2017

 ------------------------------------------
 # nmr=giao b3lyp/genecp pop=nbo scfcyc=200
 ------------------------------------------

 --------
 DS-4_SPE
 --------
 Symbolic Z-matrix:
 Charge =  1 Multiplicity = 1

                         Standard orientation:
 ---------------------------------------------------------------------
 Center     Atomic      Atomic             Coordinates (Angstroms)
 Number     Number       Type             X           Y           Z
 ---------------------------------------------------------------------
      1         15           0       -1.383179    0.355900   -0.520670
      2         15           0        1.432081    0.225420   -0.503380
      3          6           0        1.794430    3.043910   -0.466540
      4          6           0        2.384570    4.216500   -0.002840
      5          6           0        3.372900    4.165271    0.972740
      6          6           0        3.774070    2.935731    1.489750
      7          6           0        3.182400    1.764171    1.036850
      8          6           0        2.190680    1.808860    0.049380
      9          1           0        1.028850    3.098100   -1.228530
     10          1           0        2.071230    5.169760   -0.409600
     11          1           0        3.831990    5.078611    1.329370
     12          1           0        4.546400    2.890091    2.247230
     13          1           0        3.510980    0.814621    1.442500
     14          6           0        3.849441    0.034201   -1.985730
     15          6           0        4.779281   -0.648059   -2.764560
     16          6           0        4.593871   -1.994499   -3.058850
     17          6           0        3.474161   -2.664299   -2.572780
     18          6           0        2.545401   -1.989540   -1.790440
     19          6           0        2.725021   -0.633919   -1.493810
     20          1           0        4.006420    1.080741   -1.760460
     21          1           0        5.649431   -0.124559   -3.140240
     22          1           0        5.320811   -2.522179   -3.663260
     23          1           0        3.328621   -3.713409   -2.797990
     24          1           0        1.677361   -2.514980   -1.410220
     25          6           0       -2.533719   -1.448331   -2.335390
     26          6           0       -3.583579   -2.059771   -3.008380
     27          6           0       -4.888529   -1.608011   -2.827180
     28          6           0       -5.138889   -0.542661   -1.970490
     29          6           0       -4.090149    0.079129   -1.298700
     30          6           0       -2.777789   -0.364121   -1.483440
     31          1           0       -1.524489   -1.814030   -2.479540
     32          1           0       -3.383759   -2.890381   -3.673700
     33          1           0       -5.705749   -2.087011   -3.351350
     34          1           0       -6.151659   -0.189071   -1.823700
     35          1           0       -4.299930    0.910799   -0.639430
     36          6           0       -1.973930    2.309600    1.405430
     37          6           0       -2.386530    3.564799    1.843590
     38          6           0       -2.765320    4.533459    0.921960
     39          6           0       -2.730590    4.249489   -0.441910
     40          6           0       -2.319890    2.998440   -0.882920
     41          6           0       -1.942800    2.017080    0.040850
     42          1           0       -1.666280    1.560670    2.123850
     43          1           0       -2.408590    3.784389    2.903540
     44          1           0       -3.086440    5.509759    1.262640
     45          1           0       -3.024080    5.003699   -1.161310
     46          1           0       -2.299080    2.789280   -1.945460
     47          6           0        0.045671    0.646640   -1.659410
     48         45           0       -0.056659   -0.907680    0.963610
     49          6           0       -1.589249   -1.593740    2.495050
     50          6           0       -1.577459   -2.481840    1.436370
     51          6           0        1.316981   -2.533570    1.815410
     52          6           0        1.319621   -1.447680    2.663970
     53          6           0       -0.931789   -1.819570    3.844130
     54          1           0       -2.351469   -0.822190    2.471420
     55          1           0       -2.342509   -2.355960    0.677450
     56          6           0       -0.861239   -3.808560    1.377750
     57          6           0        0.536971   -3.816770    2.031650
     58          1           0        2.121711   -2.590590    1.091460
     59          6           0        0.511431   -1.277470    3.926370
     60          1           0        2.138561   -0.743230    2.562420
     61          1           0       -1.530239   -1.323360    4.609840
     62          1           0       -0.954209   -2.881080    4.090220
     63          1           0       -1.489358   -4.583900    1.834390
     64          1           0       -0.766549   -4.086350    0.325740
     65          1           0        0.456091   -4.019390    3.099370
     66          1           0        1.110152   -4.645500    1.612670
     67          1           0        0.480231   -0.210190    4.156340
     68          1           0        1.037881   -1.747430    4.766520
     69          6           0        0.077600    0.798620   -2.979380
     70          1           0        1.014880    0.820950   -3.525610
     71          1           0       -0.829370    0.878190   -3.569210
 ---------------------------------------------------------------------

 SCF Done:  E(RB3LYP) =  -2109.70351818     A.U. after   16 cycles

      1  P    Isotropic =   285.6946   Anisotropy =    88.8752

      2  P    Isotropic =   293.1651   Anisotropy =    83.9755

      3  C    Isotropic =    47.4219   Anisotropy =   190.7037

      4  C    Isotropic =    49.1292   Anisotropy =   190.6536

      5  C    Isotropic =    46.3491   Anisotropy =   197.2297

      6  C    Isotropic =    48.8942   Anisotropy =   190.6569

      7  C    Isotropic =    46.6367   Anisotropy =   187.9469

      8  C    Isotropic =    49.2084   Anisotropy =   170.0120

      9  H    Isotropic =    24.8483   Anisotropy =     9.2278

     10  H    Isotropic =    24.5811   Anisotropy =     6.8062

     11  H    Isotropic =    24.2120   Anisotropy =     3.5684

     12  H    Isotropic =    24.1861   Anisotropy =     5.9870

     13  H    Isotropic =    24.5124   Anisotropy =    10.5411

     14  C    Isotropic =    45.0375   Anisotropy =   193.5658

     15  C    Isotropic =    48.7101   Anisotropy =   189.1009

     16  C    Isotropic =    45.2082   Anisotropy =   197.2666

     17  C    Isotropic =    48.8761   Anisotropy =   187.9349

     18  C    Isotropic =    45.3455   Anisotropy =   181.2754

     19  C    Isotropic =    46.3313   Anisotropy =   167.4574

     20  H    Isotropic =    24.9836   Anisotropy =    13.3653

     21  H    Isotropic =    24.3129   Anisotropy =     6.6444

     22  H    Isotropic =    24.0231   Anisotropy =     3.9550

     23  H    Isotropic =    23.9647   Anisotropy =     7.0575

     24  H    Isotropic =    23.5201   Anisotropy =    10.3468

     25  C    Isotropic =    48.1388   Anisotropy =   188.1807

     26  C    Isotropic =    49.1578   Anisotropy =   188.9403

     27  C    Isotropic =    45.8787   Anisotropy =   196.5028

     28  C    Isotropic =    48.4225   Anisotropy =   190.3207

     29  C    Isotropic =    45.7193   Anisotropy =   193.5423

     30  C    Isotropic =    46.9042   Anisotropy =   163.7740

     31  H    Isotropic =    23.9564   Anisotropy =    10.5164

     32  H    Isotropic =    24.0548   Anisotropy =     6.7005

     33  H    Isotropic =    24.0797   Anisotropy =     3.8012

     34  H    Isotropic =    24.3039   Anisotropy =     6.4866

     35  H    Isotropic =    24.9716   Anisotropy =    12.7333

     36  C    Isotropic =    41.0624   Anisotropy =   182.5816

     37  C    Isotropic =    49.2826   Anisotropy =   189.0550

     38  C    Isotropic =    44.6066   Anisotropy =   199.6664

     39  C    Isotropic =    48.4097   Anisotropy =   190.8627

     40  C    Isotropic =    45.9714   Anisotropy =   191.3442

     41  C    Isotropic =    48.3324   Anisotropy =   168.3528

     42  H    Isotropic =    23.8089   Anisotropy =     9.6306

     43  H    Isotropic =    24.2841   Anisotropy =     6.4870

     44  H    Isotropic =    24.0033   Anisotropy =     3.3220

     45  H    Isotropic =    24.0465   Anisotropy =     5.7003

     46  H    Isotropic =    24.1609   Anisotropy =    11.2225

     47  C    Isotropic =    14.7403   Anisotropy =   112.8903

     48  Rh   Isotropic =  -312.3244   Anisotropy =   331.1402

     49  C    Isotropic =    82.8356   Anisotropy =   115.0413

     50  C    Isotropic =    73.7364   Anisotropy =   120.3475

     51  C    Isotropic =    75.7812   Anisotropy =   125.5385

     52  C    Isotropic =    75.1989   Anisotropy =   117.3681

     53  C    Isotropic =   154.1696   Anisotropy =    24.5090

     54  H    Isotropic =    27.0536   Anisotropy =     6.5036

     55  H    Isotropic =    26.8491   Anisotropy =     4.6960

     56  C    Isotropic =   147.1755   Anisotropy =    30.0714

     57  C    Isotropic =   153.7186   Anisotropy =    25.3196

     58  H    Isotropic =    26.4772   Anisotropy =     5.5345

     59  C    Isotropic =   147.8342   Anisotropy =    29.1273

     60  H    Isotropic =    26.1086   Anisotropy =     5.3619

     61  H    Isotropic =    29.8176   Anisotropy =    11.6652

     62  H    Isotropic =    29.7300   Anisotropy =     9.5430

     63  H    Isotropic =    29.1581   Anisotropy =    12.3183

     64  H    Isotropic =    28.9860   Anisotropy =     7.5133

     65  H    Isotropic =    29.6501   Anisotropy =     9.4536

     66  H    Isotropic =    29.7090   Anisotropy =    11.3421

     67  H    Isotropic =    29.1338   Anisotropy =     7.7942

     68  H    Isotropic =    29.0656   Anisotropy =    12.7286

     69  C    Isotropic =    42.1864   Anisotropy =   185.2138

     70  H    Isotropic =    25.9802   Anisotropy =     7.5602

     71  H    Isotropic =    25.2880   Anisotropy =     6.7278

 The electronic state is 1-A.
 Alpha  occ. eigenvalues --  -77.23978 -77.23837 -10.30910 -10.29953 -10.29764
 Alpha  occ. eigenvalues --  -10.29722 -10.29601 -10.29597 -10.29237 -10.29214
 Alpha  occ. eigenvalues --  -10.29096 -10.28846 -10.28543 -10.28513 -10.28434
 Alpha  occ. eigenvalues --  -10.28376 -10.28339 -10.28268 -10.28186 -10.28115
 Alpha  occ. eigenvalues --  -10.27856 -10.27774 -10.27695 -10.27670 -10.27634
 Alpha  occ. eigenvalues --  -10.27629 -10.27607 -10.27572 -10.27567 -10.27525
 Alpha  occ. eigenvalues --  -10.27506 -10.27464 -10.27455 -10.27432 -10.27397
 Alpha  occ. eigenvalues --  -10.27359  -6.69963  -6.69815  -4.86246  -4.86176
 Alpha  occ. eigenvalues --   -4.86108  -4.86027  -4.85871  -4.85718  -3.31835
 Alpha  occ. eigenvalues --   -2.08728  -2.08049  -2.05301  -0.97016  -0.96719
 Alpha  occ. eigenvalues --   -0.96244  -0.96075  -0.94562  -0.91334  -0.89286
 Alpha  occ. eigenvalues --   -0.88128  -0.87405  -0.86342  -0.85484  -0.85361
 Alpha  occ. eigenvalues --   -0.85304  -0.85161  -0.85026  -0.84892  -0.80486
 Alpha  occ. eigenvalues --   -0.78430  -0.77932  -0.75927  -0.71469  -0.71329
 Alpha  occ. eigenvalues --   -0.71198  -0.71101  -0.70681  -0.70460  -0.70261
 Alpha  occ. eigenvalues --   -0.70052  -0.67277  -0.65976  -0.64528  -0.62623
 Alpha  occ. eigenvalues --   -0.62583  -0.62251  -0.60736  -0.60594  -0.60107
 Alpha  occ. eigenvalues --   -0.57490  -0.57074  -0.56929  -0.56363  -0.56213
 Alpha  occ. eigenvalues --   -0.56182  -0.55976  -0.55573  -0.55503  -0.55396
 Alpha  occ. eigenvalues --   -0.54489  -0.53786  -0.53737  -0.52961  -0.52893
 Alpha  occ. eigenvalues --   -0.52747  -0.52708  -0.52653  -0.52604  -0.51985
 Alpha  occ. eigenvalues --   -0.51353  -0.49044  -0.48500  -0.48262  -0.47822
 Alpha  occ. eigenvalues --   -0.47749  -0.47584  -0.47171  -0.46433  -0.46314
 Alpha  occ. eigenvalues --   -0.46077  -0.45344  -0.45209  -0.45132  -0.45037
 Alpha  occ. eigenvalues --   -0.44690  -0.43811  -0.43606  -0.43426  -0.43103
 Alpha  occ. eigenvalues --   -0.42720  -0.41585  -0.40322  -0.38293  -0.37796
 Alpha  occ. eigenvalues --   -0.36957  -0.36420  -0.36296  -0.36034  -0.35921
 Alpha  occ. eigenvalues --   -0.35787  -0.35717  -0.35249  -0.34797  -0.34466
 Alpha  occ. eigenvalues --   -0.33854  -0.30950
 Alpha virt. eigenvalues --   -0.17817  -0.15193  -0.14326  -0.13840  -0.12691
 Alpha virt. eigenvalues --   -0.12299  -0.11940  -0.11603  -0.10903  -0.10768
 Alpha virt. eigenvalues --   -0.10652  -0.09399  -0.07725  -0.06460  -0.06308

 Mulliken charges:
               1
     1  P    0.438205
     2  P    0.374799
     3  C   -0.023345
     4  C   -0.091091
     5  C   -0.093816
     6  C   -0.098926
     7  C   -0.091465
     8  C   -0.202646
     9  H    0.151008
    10  H    0.131683
    11  H    0.138038
    12  H    0.133406
    13  H    0.149490
    14  C   -0.021586
    15  C   -0.095299
    16  C   -0.083718
    17  C   -0.111180
    18  C   -0.044341
    19  C   -0.275985
    20  H    0.160883
    21  H    0.136411
    22  H    0.140159
    23  H    0.131105
    24  H    0.168579
    25  C   -0.081902
    26  C   -0.093635
    27  C   -0.094257
    28  C   -0.100628
    29  C   -0.059062
    30  C   -0.214517
    31  H    0.145758
    32  H    0.133320
    33  H    0.140245
    34  H    0.136435
    35  H    0.163147
    36  C   -0.017529
    37  C   -0.113965
    38  C   -0.093666
    39  C   -0.083577
    40  C   -0.070666
    41  C   -0.255237
    42  H    0.144267
    43  H    0.131968
    44  H    0.140168
    45  H    0.136270
    46  H    0.132831
    47  C   -0.513054
    48  Rh  -0.550007
    49  C   -0.013675
    50  C   -0.107375
    51  C   -0.042441
    52  C   -0.081682
    53  C   -0.358771
    54  H    0.181918
    55  H    0.218266
    56  C   -0.233615
    57  C   -0.346456
    58  H    0.207693
    59  C   -0.217887
    60  H    0.161574
    61  H    0.168675
    62  H    0.167180
    63  H    0.172313
    64  H    0.128720
    65  H    0.167584
    66  H    0.168634
    67  H    0.133424
    68  H    0.172066
    69  C   -0.046072
    70  H    0.160332
    71  H    0.156520
 Sum of Mulliken charges =   1.00000

 Dipole moment (field-independent basis, Debye):
    X=             -0.1366    Y=              0.1690    Z=             -0.5166  Tot=              0.5604
 Quadrupole moment (field-independent basis, Debye-Ang):
   XX=           -192.6776   YY=           -192.5996   ZZ=           -206.3859
   XY=             -1.5830   XZ=              1.0212   YZ=              3.3878

 Summary of Natural Population Analysis:

                                       Natural Population
                Natural  -----------------------------------------------
    Atom  No    Charge         Core      Valence    Rydberg      Total
 -----------------------------------------------------------------------
      P    1    1.12118      9.99620     3.82782    0.05480    13.87882
      P    2    1.10389      9.99630     3.84600    0.05381    13.89611
      C    3   -0.19427      1.99909     4.17788    0.01731     6.19427
      C    4   -0.19067      1.99920     4.17598    0.01548     6.19067
      C    5   -0.17949      1.99920     4.16554    0.01475     6.17949
      C    6   -0.19169      1.99920     4.17793    0.01456     6.19169
      C    7   -0.19275      1.99909     4.17844    0.01523     6.19275
      C    8   -0.33667      1.99899     4.31343    0.02425     6.33667
      H    9    0.22106      0.00000     0.77649    0.00245     0.77894
      H   10    0.22155      0.00000     0.77706    0.00139     0.77845
      H   11    0.22276      0.00000     0.77610    0.00113     0.77724
      H   12    0.22247      0.00000     0.77631    0.00122     0.77753
      H   13    0.21083      0.00000     0.78732    0.00185     0.78917
      C   14   -0.19019      1.99909     4.17529    0.01580     6.19019
      C   15   -0.19100      1.99920     4.17723    0.01457     6.19100
      C   16   -0.17566      1.99921     4.16188    0.01457     6.17566
      C   17   -0.19507      1.99920     4.18133    0.01455     6.19507
      C   18   -0.19173      1.99909     4.17718    0.01546     6.19173
      C   19   -0.34397      1.99899     4.32029    0.02470     6.34397
      H   20    0.22525      0.00000     0.77296    0.00179     0.77475
      H   21    0.22364      0.00000     0.77514    0.00122     0.77636
      H   22    0.22329      0.00000     0.77554    0.00117     0.77671
      H   23    0.22102      0.00000     0.77775    0.00123     0.77898
      H   24    0.21729      0.00000     0.78081    0.00190     0.78271
      C   25   -0.19664      1.99910     4.18215    0.01540     6.19664
      C   26   -0.19310      1.99920     4.17926    0.01465     6.19310
      C   27   -0.17837      1.99921     4.16450    0.01466     6.17837
      C   28   -0.19019      1.99920     4.17633    0.01466     6.19019
      C   29   -0.19175      1.99910     4.17742    0.01523     6.19175
      C   30   -0.34893      1.99899     4.32551    0.02444     6.34893
      H   31    0.21640      0.00000     0.78169    0.00191     0.78360
      H   32    0.22188      0.00000     0.77690    0.00122     0.77812
      H   33    0.22351      0.00000     0.77533    0.00117     0.77649
      H   34    0.22360      0.00000     0.77519    0.00121     0.77640
      H   35    0.22435      0.00000     0.77392    0.00173     0.77565
      C   36   -0.17802      1.99909     4.16361    0.01532     6.17802
      C   37   -0.19506      1.99920     4.18134    0.01452     6.19506
      C   38   -0.17338      1.99921     4.15966    0.01452     6.17338
      C   39   -0.19395      1.99920     4.18023    0.01452     6.19395
      C   40   -0.18945      1.99909     4.17436    0.01600     6.18945
      C   41   -0.34320      1.99898     4.31972    0.02450     6.34320
      H   42    0.22026      0.00000     0.77775    0.00199     0.77974
      H   43    0.22210      0.00000     0.77668    0.00122     0.77790
      H   44    0.22318      0.00000     0.77565    0.00117     0.77682
      H   45    0.22320      0.00000     0.77556    0.00123     0.77680
      H   46    0.21618      0.00000     0.78180    0.00202     0.78382
      C   47   -0.60523      1.99909     4.57730    0.02884     6.60523
     Rh   48   -0.37991     35.98573     9.36487    0.02932    45.37991
      C   49   -0.18580      1.99906     4.16720    0.01955     6.18580
      C   50   -0.14653      1.99907     4.12772    0.01974     6.14653
      C   51   -0.16589      1.99906     4.14716    0.01967     6.16589
      C   52   -0.16160      1.99907     4.14258    0.01995     6.16160
      C   53   -0.42267      1.99936     4.41158    0.01173     6.42267
      H   54    0.22503      0.00000     0.77309    0.00188     0.77497
      H   55    0.23189      0.00000     0.76617    0.00194     0.76811
      C   56   -0.41805      1.99935     4.40606    0.01264     6.41805
      C   57   -0.42533      1.99936     4.41410    0.01188     6.42533
      H   58    0.22871      0.00000     0.76915    0.00215     0.77129
      C   59   -0.41936      1.99935     4.40739    0.01262     6.41936
      H   60    0.22395      0.00000     0.77403    0.00202     0.77605
      H   61    0.22836      0.00000     0.77016    0.00148     0.77164
      H   62    0.21475      0.00000     0.78324    0.00201     0.78525
      H   63    0.23414      0.00000     0.76394    0.00192     0.76586
      H   64    0.21499      0.00000     0.78343    0.00158     0.78501
      H   65    0.21547      0.00000     0.78254    0.00200     0.78453
      H   66    0.22823      0.00000     0.77030    0.00147     0.77177
      H   67    0.21704      0.00000     0.78145    0.00151     0.78296
      H   68    0.23439      0.00000     0.76369    0.00191     0.76561
      C   69   -0.29942      1.99901     4.28435    0.01606     6.29942
      H   70    0.21623      0.00000     0.78107    0.00269     0.78377
      H   71    0.21296      0.00000     0.78434    0.00270     0.78704
 =======================================================================
   * Total *    1.00000    123.94912   187.28316    0.76772   312.00000

 Normal termination of Gaussian 16 at Sun Jan 19 20:58:44 2025.
