 Gaussian 16, Revision B.01,
 Gaussian 16:  ES64L-G16RevB.01 20-Dec-2017

 ------------------------------------------
 # nmr=giao b3lyp/genecp pop=nbo scfcyc=200
 ------------------------------------------

 ---------
 DS-42_SPE
 ---------
 Symbolic Z-matrix:
 Charge =  1 Multiplicity = 1

                         Standard orientation:
 ---------------------------------------------------------------------
 Center     Atomic      Atomic             Coordinates (Angstroms)
 Number     Number       Type             X           Y           Z
 ---------------------------------------------------------------------
      1         15           0        1.103489   -0.158101   -0.050290
      2         15           0       -1.041018    1.762102   -0.031340
      3          6           0        1.964429   -0.519352   -2.737860
      4          1           0        2.658058   -1.215053   -3.205280
      5          6           0        3.046437   -1.908374   -0.950270
      6          1           0        3.195307   -1.871634    0.125120
      7          6           0        1.316278   -1.169362    2.483720
      8          1           0        0.384277   -1.516570    2.043460
      9          6           0        3.106860    0.511576    1.922880
     10          1           0        3.439610   -0.039775    2.802750
     11          6           0       -1.913386    2.731773   -1.398010
     12          1           0       -2.955067    2.718055   -1.060220
     13          6           0       -1.839408    1.998653   -2.740080
     14          1           0       -2.491277    2.497054   -3.460680
     15          1           0       -2.154069    0.958823   -2.662640
     16          1           0       -0.827698    2.017052   -3.147350
     17          6           0       -1.480854    4.194923   -1.556840
     18          1           0       -0.426454    4.283711   -1.822850
     19          1           0       -1.661604    4.790363   -0.665000
     20          1           0       -2.054124    4.647383   -2.369460
     21          6           0       -1.279776    2.723932    1.582540
     22          1           0       -0.982108    1.973102    2.319440
     23          6           0       -2.764886    3.043304    1.805940
     24          1           0       -2.909646    3.397625    2.828640
     25          1           0       -3.410347    2.174345    1.668750
     26          1           0       -3.114275    3.832315    1.138140
     27          6           0       -0.401245    3.961581    1.793030
     28          1           0       -0.677194    4.786631    1.138540
     29          1           0        0.656475    3.750519    1.651180
     30          1           0       -0.524064    4.311411    2.821210
     31         45           0       -1.295641   -0.607228    0.060390
     32          6           0       -1.564304   -2.721157   -0.743030
     33          6           0       -1.274265   -2.816388    0.600930
     34          6           0       -3.371072   -0.845075    0.903930
     35          6           0       -3.482821   -0.581705   -0.449400
     36          1           0       -0.730775   -2.819839   -1.426290
     37          6           0       -2.936635   -2.908375   -1.363190
     38          1           0       -0.247815   -3.047429    0.860830
     39          6           0       -2.262175   -3.002526    1.724780
     40          6           0       -3.569804   -2.203664    1.550850
     41          1           0       -3.453250   -0.000955    1.579030
     42          1           0       -3.701800    0.440556   -0.737280
     43          6           0       -3.724853   -1.595124   -1.540190
     44          1           0       -3.509436   -3.617235   -0.765290
     45          1           0       -2.811285   -3.374916   -2.341640
     46          1           0       -2.490686   -4.068486    1.847250
     47          1           0       -1.776604   -2.695347    2.653860
     48          1           0       -4.022213   -2.056764    2.532880
     49          1           0       -4.291924   -2.779573    0.972150
     50          1           0       -4.797793   -1.811213   -1.615910
     51          1           0       -3.448022   -1.136845   -2.491740
     52          7           0        2.211619   -0.709363   -1.272770
     53          7           0        1.923109   -0.275952    1.447490
     54          6           0        4.435137   -1.836186   -1.601500
     55          1           0        5.087986   -2.577877   -1.136800
     56          1           0        4.408517   -2.065406   -2.668100
     57          1           0        4.891418   -0.856117   -1.475190
     58          6           0        2.375535   -3.248793   -1.278110
     59          1           0        1.420375   -3.361322   -0.763090
     60          1           0        2.202015   -3.366333   -2.349440
     61          1           0        3.020224   -4.072474   -0.963880
     62          6           0        2.364841    0.865807   -3.256510
     63          1           0        1.623942    1.629038   -3.023670
     64          1           0        3.328481    1.175346   -2.852680
     65          1           0        2.454651    0.829697   -4.344180
     66          6           0        0.569588   -0.918640   -3.229870
     67          1           0        0.495488   -0.735860   -4.303940
     68          1           0        0.377847   -1.977470   -3.061400
     69          1           0       -0.219661   -0.349459   -2.739820
     70          6           0        4.302360    0.548604    0.972560
     71          1           0        4.708889   -0.443796    0.792910
     72          1           0        4.056361    0.999075    0.011440
     73          1           0        5.091261    1.150893    1.426620
     74          6           0        2.772712    1.933226    2.401300
     75          1           0        2.699133    2.637596    1.574330
     76          1           0        1.850572    1.967778    2.976150
     77          1           0        3.580303    2.289875    3.044520
     78          6           0        2.188026   -2.395803    2.778110
     79          1           0        1.692075   -3.039582    3.507460
     80          1           0        2.368055   -2.986593    1.879420
     81          1           0        3.156676   -2.120144    3.200530
     82          6           0        0.930499   -0.448051    3.779940
     83          1           0        1.795859   -0.075802    4.330010
     84          1           0        0.258410    0.388380    3.586040
     85          1           0        0.410378   -1.148140    4.436580
     86          6           0        0.742462    1.617679   -0.399880
     87          7           0        1.575873    2.574618   -0.679800
     88          7           0        2.324434    3.378087   -0.941080
 ---------------------------------------------------------------------

 SCF Done:  E(RB3LYP) =  -2073.98179104     A.U. after   17 cycles

      1  P    Isotropic =   216.6837   Anisotropy =    71.5515

      2  P    Isotropic =   264.0370   Anisotropy =    40.2997

      3  C    Isotropic =   133.0938   Anisotropy =    43.9400

      4  H    Isotropic =    28.4203   Anisotropy =     4.8428

      5  C    Isotropic =   131.8932   Anisotropy =    45.8020

      6  H    Isotropic =    28.3500   Anisotropy =     6.1839

      7  C    Isotropic =   121.7288   Anisotropy =    52.8777

      8  H    Isotropic =    27.1874   Anisotropy =     9.7941

      9  C    Isotropic =   130.2116   Anisotropy =    46.6026

     10  H    Isotropic =    28.3209   Anisotropy =     4.7984

     11  C    Isotropic =   145.1521   Anisotropy =    23.5896

     12  H    Isotropic =    29.4468   Anisotropy =     4.1227

     13  C    Isotropic =   160.3147   Anisotropy =    28.6055

     14  H    Isotropic =    30.2285   Anisotropy =    10.8042

     15  H    Isotropic =    29.8452   Anisotropy =     7.7478

     16  H    Isotropic =    30.2697   Anisotropy =     6.2146

     17  C    Isotropic =   162.7297   Anisotropy =    31.1821

     18  H    Isotropic =    30.6640   Anisotropy =     5.9821

     19  H    Isotropic =    30.2272   Anisotropy =     7.8443

     20  H    Isotropic =    30.4473   Anisotropy =    12.0981

     21  C    Isotropic =   138.6861   Anisotropy =    33.9235

     22  H    Isotropic =    29.3070   Anisotropy =     5.7929

     23  C    Isotropic =   166.4653   Anisotropy =    28.0419

     24  H    Isotropic =    30.4751   Anisotropy =    11.5122

     25  H    Isotropic =    31.0950   Anisotropy =     6.3848

     26  H    Isotropic =    30.8646   Anisotropy =     7.7952

     27  C    Isotropic =   163.5858   Anisotropy =    28.9893

     28  H    Isotropic =    30.4714   Anisotropy =     7.2995

     29  H    Isotropic =    30.2401   Anisotropy =     7.7461

     30  H    Isotropic =    30.5338   Anisotropy =    11.0273

     31  Rh   Isotropic =  -346.2758   Anisotropy =   374.5261

     32  C    Isotropic =    73.8093   Anisotropy =   129.5383

     33  C    Isotropic =    80.6624   Anisotropy =   110.7087

     34  C    Isotropic =    83.3142   Anisotropy =   116.8057

     35  C    Isotropic =    84.6231   Anisotropy =   107.2761

     36  H    Isotropic =    26.9190   Anisotropy =     5.0562

     37  C    Isotropic =   154.4792   Anisotropy =    26.1443

     38  H    Isotropic =    27.1448   Anisotropy =     3.5752

     39  C    Isotropic =   148.9219   Anisotropy =    28.0014

     40  C    Isotropic =   154.1978   Anisotropy =    26.5817

     41  H    Isotropic =    27.1268   Anisotropy =     7.2759

     42  H    Isotropic =    27.2046   Anisotropy =     3.8405

     43  C    Isotropic =   146.8916   Anisotropy =    30.0535

     44  H    Isotropic =    29.8689   Anisotropy =     9.6858

     45  H    Isotropic =    29.8492   Anisotropy =    10.7995

     46  H    Isotropic =    29.2461   Anisotropy =    12.4963

     47  H    Isotropic =    29.3225   Anisotropy =     6.8569

     48  H    Isotropic =    29.8672   Anisotropy =    11.6919

     49  H    Isotropic =    29.8681   Anisotropy =     9.7600

     50  H    Isotropic =    29.1632   Anisotropy =    12.8381

     51  H    Isotropic =    29.0988   Anisotropy =     6.3467

     52  N    Isotropic =   161.3574   Anisotropy =    63.4515

     53  N    Isotropic =   156.0609   Anisotropy =    30.0133

     54  C    Isotropic =   161.8750   Anisotropy =    38.5138

     55  H    Isotropic =    30.7888   Anisotropy =    11.3120

     56  H    Isotropic =    30.6775   Anisotropy =     7.8111

     57  H    Isotropic =    30.8738   Anisotropy =     6.8576

     58  C    Isotropic =   162.0248   Anisotropy =    32.2456

     59  H    Isotropic =    31.6872   Anisotropy =     7.9695

     60  H    Isotropic =    30.7643   Anisotropy =     5.5764

     61  H    Isotropic =    30.9247   Anisotropy =    10.8179

     62  C    Isotropic =   158.5427   Anisotropy =    35.8919

     63  H    Isotropic =    30.3827   Anisotropy =     4.4916

     64  H    Isotropic =    30.7805   Anisotropy =     7.1016

     65  H    Isotropic =    30.5826   Anisotropy =    11.4387

     66  C    Isotropic =   160.2677   Anisotropy =    25.8362

     67  H    Isotropic =    30.6838   Anisotropy =     9.4866

     68  H    Isotropic =    30.7003   Anisotropy =     4.5499

     69  H    Isotropic =    29.1389   Anisotropy =     8.7671

     70  C    Isotropic =   162.0587   Anisotropy =    29.7245

     71  H    Isotropic =    30.6022   Anisotropy =     7.1462

     72  H    Isotropic =    30.6544   Anisotropy =     3.6600

     73  H    Isotropic =    30.7373   Anisotropy =    11.3305

     74  C    Isotropic =   155.2348   Anisotropy =    40.2509

     75  H    Isotropic =    30.5557   Anisotropy =     4.5887

     76  H    Isotropic =    30.5057   Anisotropy =     4.3590

     77  H    Isotropic =    30.3716   Anisotropy =    11.4290

     78  C    Isotropic =   162.8821   Anisotropy =    35.8562

     79  H    Isotropic =    30.8097   Anisotropy =    10.4441

     80  H    Isotropic =    30.9167   Anisotropy =     6.6141

     81  H    Isotropic =    30.3427   Anisotropy =     7.2913

     82  C    Isotropic =   158.5718   Anisotropy =    31.6165

     83  H    Isotropic =    30.3001   Anisotropy =     6.5789

     84  H    Isotropic =    30.5002   Anisotropy =     6.3132

     85  H    Isotropic =    30.5005   Anisotropy =     9.6071

     86  C    Isotropic =   131.8696   Anisotropy =    56.8782

     87  N    Isotropic =   -23.9759   Anisotropy =   397.5428

     88  N    Isotropic =  -118.8090   Anisotropy =   115.6304

 The electronic state is 1-A.
 Alpha  occ. eigenvalues --  -77.27940 -77.24076 -14.57925 -14.51513 -14.43041
 Alpha  occ. eigenvalues --  -14.42328 -10.33278 -10.31273 -10.31198 -10.30826
 Alpha  occ. eigenvalues --  -10.30634 -10.30610 -10.30438 -10.29498 -10.29423
 Alpha  occ. eigenvalues --  -10.29376 -10.29268 -10.27959 -10.27887 -10.27695
 Alpha  occ. eigenvalues --  -10.27660 -10.27490 -10.27170 -10.27001 -10.26870
 Alpha  occ. eigenvalues --  -10.25920 -10.25795 -10.25628 -10.25623 -10.25534
 Alpha  occ. eigenvalues --  -10.25444 -10.25273 -10.25123  -6.73050  -6.69987
 Alpha  occ. eigenvalues --   -4.89422  -4.89317  -4.88974  -4.86343  -4.86134
 Alpha  occ. eigenvalues --   -4.85887  -3.31794  -2.08632  -2.08053  -2.05223
 Alpha  occ. eigenvalues --   -1.24378  -1.03239  -1.00460  -0.97582  -0.94944
 Alpha  occ. eigenvalues --   -0.91988  -0.89837  -0.89631  -0.89167  -0.88760
 Alpha  occ. eigenvalues --   -0.88447  -0.86646  -0.83858  -0.80898  -0.79950
 Alpha  occ. eigenvalues --   -0.79768  -0.79248  -0.79015  -0.78886  -0.78308
 Alpha  occ. eigenvalues --   -0.78202  -0.77929  -0.75386  -0.71178  -0.71005
 Alpha  occ. eigenvalues --   -0.70752  -0.70181  -0.68502  -0.66809  -0.66436
 Alpha  occ. eigenvalues --   -0.64072  -0.62955  -0.61627  -0.61531  -0.60852
 Alpha  occ. eigenvalues --   -0.59945  -0.59793  -0.58712  -0.57865  -0.57486
 Alpha  occ. eigenvalues --   -0.57304  -0.56980  -0.56738  -0.56445  -0.55101
 Alpha  occ. eigenvalues --   -0.54952  -0.54092  -0.53993  -0.53817  -0.53423
 Alpha  occ. eigenvalues --   -0.53219  -0.53172  -0.53039  -0.52630  -0.52263
 Alpha  occ. eigenvalues --   -0.52108  -0.51465  -0.50786  -0.50442  -0.50096
 Alpha  occ. eigenvalues --   -0.49686  -0.49347  -0.48944  -0.48686  -0.48548
 Alpha  occ. eigenvalues --   -0.48313  -0.48207  -0.48096  -0.47909  -0.47590
 Alpha  occ. eigenvalues --   -0.47387  -0.47110  -0.46655  -0.46483  -0.46319
 Alpha  occ. eigenvalues --   -0.46051  -0.45864  -0.45620  -0.45551  -0.44522
 Alpha  occ. eigenvalues --   -0.44345  -0.44068  -0.43957  -0.43653  -0.43499
 Alpha  occ. eigenvalues --   -0.43284  -0.43105  -0.42795  -0.42449  -0.42155
 Alpha  occ. eigenvalues --   -0.41424  -0.38481  -0.37253  -0.36303  -0.35832
 Alpha  occ. eigenvalues --   -0.34584  -0.34017  -0.33586  -0.32456  -0.30539
 Alpha virt. eigenvalues --   -0.18154  -0.16797  -0.14055  -0.12149  -0.09845
 Alpha virt. eigenvalues --   -0.08696  -0.07853  -0.07477  -0.06956  -0.06581
 Alpha virt. eigenvalues --   -0.05878  -0.05091  -0.04637  -0.04507  -0.04239

 Mulliken charges:
               1
     1  P    0.644237
     2  P    0.458157
     3  C    0.002158
     4  H    0.157410
     5  C   -0.067745
     6  H    0.158910
     7  C   -0.027245
     8  H    0.083981
     9  C   -0.052477
    10  H    0.159223
    11  C   -0.185793
    12  H    0.173632
    13  C   -0.404662
    14  H    0.161833
    15  H    0.130940
    16  H    0.141785
    17  C   -0.381745
    18  H    0.137213
    19  H    0.136921
    20  H    0.153056
    21  C   -0.112341
    22  H    0.138824
    23  C   -0.425392
    24  H    0.159706
    25  H    0.138912
    26  H    0.153336
    27  C   -0.377373
    28  H    0.146587
    29  H    0.138918
    30  H    0.152455
    31  Rh  -0.605740
    32  C    0.037925
    33  C   -0.162362
    34  C   -0.019563
    35  C   -0.086184
    36  H    0.177422
    37  C   -0.356063
    38  H    0.206153
    39  C   -0.228271
    40  C   -0.351566
    41  H    0.166365
    42  H    0.194994
    43  C   -0.244702
    44  H    0.173073
    45  H    0.169444
    46  H    0.173768
    47  H    0.135017
    48  H    0.169981
    49  H    0.169235
    50  H    0.171988
    51  H    0.139237
    52  N   -0.309111
    53  N   -0.311926
    54  C   -0.375027
    55  H    0.148120
    56  H    0.130976
    57  H    0.149207
    58  C   -0.395629
    59  H    0.126758
    60  H    0.140258
    61  H    0.151622
    62  C   -0.412217
    63  H    0.114696
    64  H    0.148050
    65  H    0.146761
    66  C   -0.400805
    67  H    0.150070
    68  H    0.129426
    69  H    0.127133
    70  C   -0.380586
    71  H    0.145407
    72  H    0.132370
    73  H    0.149900
    74  C   -0.359235
    75  H    0.108131
    76  H    0.146608
    77  H    0.152509
    78  C   -0.363162
    79  H    0.146189
    80  H    0.138831
    81  H    0.139982
    82  C   -0.401598
    83  H    0.148401
    84  H    0.135591
    85  H    0.145017
    86  C   -0.699820
    87  N    0.439131
    88  N   -0.105601
 Sum of Mulliken charges =   1.00000

 Dipole moment (field-independent basis, Debye):
    X=             -1.9739    Y=             -0.1743    Z=              0.7343  Tot=              2.1133
 Quadrupole moment (field-independent basis, Debye-Ang):
   XX=           -204.0890   YY=           -210.8253   ZZ=           -215.3559
   XY=             -6.6035   XZ=              2.5939   YZ=              1.3210

 Summary of Natural Population Analysis:

                                       Natural Population
                Natural  -----------------------------------------------
    Atom  No    Charge         Core      Valence    Rydberg      Total
 -----------------------------------------------------------------------
      P    1    1.50762      9.99611     3.42224    0.07403    13.49238
      P    2    1.10048      9.99658     3.85232    0.05062    13.89952
      C    3   -0.03778      1.99934     4.02207    0.01637     6.03778
      H    4    0.20616      0.00000     0.79090    0.00293     0.79384
      C    5   -0.03932      1.99935     4.02458    0.01539     6.03932
      H    6    0.21341      0.00000     0.78392    0.00267     0.78659
      C    7   -0.02545      1.99936     4.01109    0.01500     6.02545
      H    8    0.21412      0.00000     0.78220    0.00368     0.78588
      C    9   -0.03273      1.99934     4.01608    0.01730     6.03273
      H   10    0.20105      0.00000     0.79624    0.00271     0.79895
      C   11   -0.46819      1.99939     4.45404    0.01476     6.46819
      H   12    0.22299      0.00000     0.77514    0.00187     0.77701
      C   13   -0.59121      1.99941     4.58399    0.00781     6.59121
      H   14    0.22306      0.00000     0.77544    0.00150     0.77694
      H   15    0.21394      0.00000     0.78420    0.00186     0.78606
      H   16    0.20840      0.00000     0.79001    0.00159     0.79160
      C   17   -0.59737      1.99941     4.58920    0.00877     6.59737
      H   18    0.20355      0.00000     0.79465    0.00180     0.79645
      H   19    0.20879      0.00000     0.78948    0.00173     0.79121
      H   20    0.22538      0.00000     0.77306    0.00155     0.77462
      C   21   -0.46259      1.99940     4.44750    0.01570     6.46259
      H   22    0.22399      0.00000     0.77365    0.00236     0.77601
      C   23   -0.59782      1.99941     4.59086    0.00755     6.59782
      H   24    0.22735      0.00000     0.77115    0.00150     0.77265
      H   25    0.20591      0.00000     0.79254    0.00154     0.79409
      H   26    0.20766      0.00000     0.79078    0.00156     0.79234
      C   27   -0.59974      1.99940     4.59150    0.00883     6.59974
      H   28    0.20695      0.00000     0.79138    0.00167     0.79305
      H   29    0.21011      0.00000     0.78822    0.00167     0.78989
      H   30    0.22330      0.00000     0.77515    0.00154     0.77670
     Rh   31   -0.34966     35.98621     9.33288    0.03057    45.34966
      C   32   -0.16435      1.99907     4.14540    0.01987     6.16435
      C   33   -0.18644      1.99907     4.16706    0.02030     6.18644
      C   34   -0.17013      1.99909     4.15119    0.01985     6.17013
      C   35   -0.17331      1.99910     4.15375    0.02047     6.17331
      H   36    0.22495      0.00000     0.77258    0.00247     0.77505
      C   37   -0.42438      1.99935     4.41291    0.01212     6.42438
      H   38    0.22035      0.00000     0.77725    0.00240     0.77965
      C   39   -0.41682      1.99934     4.40460    0.01288     6.41682
      C   40   -0.42241      1.99936     4.41109    0.01197     6.42241
      H   41    0.21977      0.00000     0.77797    0.00226     0.78023
      H   42    0.21715      0.00000     0.78064    0.00221     0.78285
      C   43   -0.41562      1.99935     4.40351    0.01276     6.41562
      H   44    0.21620      0.00000     0.78179    0.00201     0.78380
      H   45    0.22919      0.00000     0.76930    0.00150     0.77081
      H   46    0.23318      0.00000     0.76482    0.00200     0.76682
      H   47    0.21369      0.00000     0.78453    0.00178     0.78631
      H   48    0.22878      0.00000     0.76971    0.00152     0.77122
      H   49    0.21654      0.00000     0.78148    0.00199     0.78346
      H   50    0.23244      0.00000     0.76559    0.00197     0.76756
      H   51    0.21457      0.00000     0.78359    0.00185     0.78543
      N   52   -0.75869      1.99950     5.73051    0.02868     7.75869
      N   53   -0.75686      1.99949     5.73312    0.02425     7.75686
      C   54   -0.60891      1.99940     4.60102    0.00849     6.60891
      H   55    0.21998      0.00000     0.77890    0.00112     0.78002
      H   56    0.20313      0.00000     0.79544    0.00143     0.79687
      H   57    0.21635      0.00000     0.78236    0.00129     0.78365
      C   58   -0.61075      1.99940     4.60340    0.00794     6.61075
      H   59    0.19654      0.00000     0.80193    0.00153     0.80346
      H   60    0.20433      0.00000     0.79417    0.00151     0.79567
      H   61    0.22049      0.00000     0.77834    0.00117     0.77951
      C   62   -0.59917      1.99941     4.59087    0.00889     6.59917
      H   63    0.19043      0.00000     0.80690    0.00267     0.80957
      H   64    0.21452      0.00000     0.78401    0.00147     0.78548
      H   65    0.21831      0.00000     0.78054    0.00115     0.78169
      C   66   -0.59820      1.99940     4.59106    0.00773     6.59820
      H   67    0.21895      0.00000     0.77983    0.00122     0.78105
      H   68    0.20333      0.00000     0.79520    0.00148     0.79667
      H   69    0.20714      0.00000     0.79081    0.00205     0.79286
      C   70   -0.60306      1.99941     4.59479    0.00887     6.60306
      H   71    0.21100      0.00000     0.78763    0.00137     0.78900
      H   72    0.20214      0.00000     0.79533    0.00254     0.79786
      H   73    0.22163      0.00000     0.77723    0.00114     0.77837
      C   74   -0.60687      1.99941     4.59905    0.00841     6.60687
      H   75    0.19274      0.00000     0.80458    0.00268     0.80726
      H   76    0.20859      0.00000     0.78992    0.00149     0.79141
      H   77    0.22065      0.00000     0.77824    0.00110     0.77935
      C   78   -0.61056      1.99940     4.60330    0.00786     6.61056
      H   79    0.21788      0.00000     0.78096    0.00116     0.78212
      H   80    0.20487      0.00000     0.79386    0.00127     0.79513
      H   81    0.20733      0.00000     0.79125    0.00143     0.79267
      C   82   -0.60498      1.99941     4.59770    0.00788     6.60498
      H   83    0.20797      0.00000     0.79061    0.00142     0.79203
      H   84    0.20199      0.00000     0.79655    0.00146     0.79801
      H   85    0.21788      0.00000     0.78097    0.00115     0.78212
      C   86   -0.72006      1.99892     4.69162    0.02951     6.72006
      N   87    0.05222      1.99940     4.91568    0.03270     6.94778
      N   88    0.05200      1.99967     4.92413    0.02420     6.94800
 =======================================================================
   * Total *    1.00000    117.95866   199.32702    0.71432   318.00000

 Normal termination of Gaussian 16 at Mon Jan 20 10:23:24 2025.
