 Gaussian 16, Revision B.01,
 Gaussian 16:  ES64L-G16RevB.01 20-Dec-2017

 ------------------------------------------
 # nmr=giao b3lyp/genecp pop=nbo scfcyc=200
 ------------------------------------------

 ---------
 DS-45_SPE
 ---------
 Symbolic Z-matrix:
 Charge =  1 Multiplicity = 1

                         Standard orientation:
 ---------------------------------------------------------------------
 Center     Atomic      Atomic             Coordinates (Angstroms)
 Number     Number       Type             X           Y           Z
 ---------------------------------------------------------------------
      1         15           0       -1.332941    0.079768   -0.247450
      2         15           0        1.394459    0.001913   -0.043620
      3          6           0        0.120817    1.204421   -0.849400
      4          6           0       -4.987603    1.547241   -1.314980
      5          6           0       -4.856198   -1.543978   -1.284290
      6          6           0       -2.706826    2.681056    3.068870
      7          6           0       -4.134831   -0.056277    2.714580
      8          6           0        4.337458    0.529218    2.795220
      9          6           0        2.138015    2.636334    3.407670
     10          1           0       -6.035043    1.502300   -1.624600
     11          1           0       -4.965444    1.604501   -0.225480
     12          1           0       -4.562905    2.470002   -1.711920
     13          1           0       -5.906098   -1.585420   -1.586270
     14          1           0       -4.371816   -2.440837   -1.674650
     15          1           0       -4.831508   -1.585298   -0.193370
     16          1           0       -3.065956    2.777595    4.096470
     17          1           0       -1.757577    3.214117    2.994410
     18          1           0       -3.428296    3.175524    2.415520
     19          1           0       -4.502701   -0.054548    3.743920
     20          1           0       -4.903061    0.406472    2.092030
     21          1           0       -4.031269   -1.099827    2.408680
     22          1           0        4.833899   -0.058251    2.020130
     23          1           0        5.108397    1.089360    3.330400
     24          1           0        3.879260   -0.162993    3.504970
     25          1           0        2.816913    3.318496    3.925670
     26          1           0        1.324593    3.228373    2.985360
     27          1           0        1.719546    1.958284    4.153880
     28         45           0       -0.045987   -1.788000    0.232020
     29          6           0        1.424116   -3.584407    0.102400
     30          6           0        1.275135   -3.222607    1.418750
     31          6           0       -1.615685   -3.350432    0.874420
     32          6           0       -1.452594   -3.418452   -0.490000
     33          6           0        0.745338   -4.757008   -0.577520
     34          1           0        2.266615   -3.160725   -0.429600
     35          1           0        2.021594   -2.556816    1.840430
     36          6           0        0.363116   -3.865049    2.433940
     37          6           0       -1.015573   -4.304921    1.889760
     38          1           0       -2.433226   -2.737304    1.237430
     39          6           0       -0.596043   -4.397401   -1.253420
     40          1           0       -2.161605   -2.873813   -1.102130
     41          1           0        1.418279   -5.151237   -1.341110
     42          1           0        0.604089   -5.564588    0.140130
     43          1           0        0.869848   -4.726858    2.886010
     44          1           0        0.216755   -3.150329    3.246090
     45          1           0       -0.951031   -5.303801    1.459130
     46          1           0       -1.703123   -4.389103    2.733030
     47          1           0       -0.396814   -3.965420   -2.236420
     48          1           0       -1.168791   -5.314472   -1.441220
     49          6           0        3.820294    2.857317    0.799010
     50          1           0        4.339655    2.307108    0.013750
     51          1           0        3.061373    3.483926    0.329190
     52          1           0        4.545943    3.515009    1.284510
     53          6           0       -1.173301    0.026318    3.634930
     54          1           0       -1.054559   -1.017941    3.340370
     55          1           0       -0.209112    0.520780    3.513130
     56          1           0       -1.439081    0.050268    4.694870
     57          6           0       -3.949801    0.012203   -3.820250
     58          1           0       -3.473412    0.918874   -4.198540
     59          1           0       -3.372069   -0.845796   -4.170090
     60          1           0       -4.944941   -0.050698   -4.267490
     61         14           0       -2.501252    0.874076    2.612650
     62         14           0       -4.072651    0.033933   -1.947720
     63         14           0        3.057556    1.698926    2.066760
     64          6           0        5.032122   -1.710520   -1.043250
     65          1           0        5.561291   -1.082929   -0.323210
     66          1           0        4.541494   -2.515441   -0.492200
     67          1           0        5.782523   -2.168259   -1.693010
     68          6           0        4.682498    0.735519   -2.924120
     69          1           0        5.218427    1.366540   -2.212740
     70          1           0        5.410559    0.359860   -3.647700
     71          1           0        3.971597    1.363308   -3.464940
     72          6           0        2.881753   -1.764144   -3.298220
     73          1           0        2.282584   -2.531305   -2.804720
     74          1           0        2.216181   -1.162926   -3.920680
     75          1           0        3.585163   -2.270323   -3.964400
     76         14           0        3.823951   -0.696303   -2.067570
     77          8           0        2.705059    0.027965   -0.986900
     78          8           0        1.869218    0.702424    1.316760
     79          8           0       -2.012052    0.890447    0.965670
     80          8           0       -2.438621    0.103506   -1.416890
     81         14           0       -0.198508    4.053190   -0.926360
     82          6           0       -1.985908    4.125047   -1.517690
     83          1           0       -2.670938    3.803696   -0.731530
     84          1           0       -2.244220    5.152476   -1.787510
     85          1           0       -2.157967    3.504007   -2.398870
     86          6           0        0.051390    5.148931    0.578640
     87          1           0        1.081310    5.110992    0.937980
     88          1           0       -0.173732    6.189190    0.330930
     89          1           0       -0.606569    4.851919    1.397110
     90          6           0        0.979601    4.549962   -2.313710
     91          1           0        0.858949    5.615112   -2.529390
     92          1           0        2.022521    4.389234   -2.032220
     93          1           0        0.789292    4.007262   -3.241100
     94          6           0        0.227057    1.102141   -2.371030
     95          1           0        1.160367    1.551993   -2.708810
     96          1           0        0.204879    0.063421   -2.704350
     97          1           0       -0.611404    1.612069   -2.845680
     98          8           0        0.178095    2.488581   -0.343020
 ---------------------------------------------------------------------

 SCF Done:  E(RB3LYP) =  -3606.67424972     A.U. after   17 cycles

      1  P    Isotropic =   170.3763   Anisotropy =   176.5260

      2  P    Isotropic =   172.4493   Anisotropy =   171.9691

      3  C    Isotropic =    49.1573   Anisotropy =    77.7014

      4  C    Isotropic =   181.4468   Anisotropy =    11.2387

      5  C    Isotropic =   181.8392   Anisotropy =    12.4222

      6  C    Isotropic =   182.0821   Anisotropy =    13.1158

      7  C    Isotropic =   180.8665   Anisotropy =    12.9124

      8  C    Isotropic =   181.3693   Anisotropy =    14.8394

      9  C    Isotropic =   182.0254   Anisotropy =    11.4386

     10  H    Isotropic =    31.7505   Anisotropy =    11.8397

     11  H    Isotropic =    31.5853   Anisotropy =     7.5306

     12  H    Isotropic =    31.2951   Anisotropy =     8.3139

     13  H    Isotropic =    31.7106   Anisotropy =    11.8933

     14  H    Isotropic =    31.6749   Anisotropy =     7.1005

     15  H    Isotropic =    31.7775   Anisotropy =     7.1289

     16  H    Isotropic =    31.6799   Anisotropy =    11.5960

     17  H    Isotropic =    31.3062   Anisotropy =     8.3710

     18  H    Isotropic =    31.3871   Anisotropy =     7.4378

     19  H    Isotropic =    31.5579   Anisotropy =    11.5300

     20  H    Isotropic =    31.4010   Anisotropy =     7.8240

     21  H    Isotropic =    31.7486   Anisotropy =     6.4675

     22  H    Isotropic =    31.6436   Anisotropy =     7.9711

     23  H    Isotropic =    31.6606   Anisotropy =    11.8562

     24  H    Isotropic =    31.4558   Anisotropy =     7.2728

     25  H    Isotropic =    31.7043   Anisotropy =    11.5865

     26  H    Isotropic =    31.3188   Anisotropy =     8.4135

     27  H    Isotropic =    31.3744   Anisotropy =     7.2794

     28  Rh   Isotropic =  -287.0597   Anisotropy =   320.9860

     29  C    Isotropic =    75.2773   Anisotropy =   126.0474

     30  C    Isotropic =    73.2493   Anisotropy =   123.5145

     31  C    Isotropic =    81.6282   Anisotropy =   117.4404

     32  C    Isotropic =    71.7967   Anisotropy =   124.8306

     33  C    Isotropic =   154.1346   Anisotropy =    23.9958

     34  H    Isotropic =    26.8906   Anisotropy =     7.3653

     35  H    Isotropic =    26.1490   Anisotropy =     4.0300

     36  C    Isotropic =   148.1382   Anisotropy =    26.8255

     37  C    Isotropic =   154.2814   Anisotropy =    23.5770

     38  H    Isotropic =    27.1880   Anisotropy =     5.9846

     39  C    Isotropic =   147.5873   Anisotropy =    28.9422

     40  H    Isotropic =    26.2298   Anisotropy =     6.1086

     41  H    Isotropic =    29.9184   Anisotropy =    10.6888

     42  H    Isotropic =    29.7785   Anisotropy =     9.4722

     43  H    Isotropic =    29.1755   Anisotropy =    12.5612

     44  H    Isotropic =    29.2680   Anisotropy =     6.8806

     45  H    Isotropic =    29.7886   Anisotropy =     9.7730

     46  H    Isotropic =    29.9048   Anisotropy =    10.8013

     47  H    Isotropic =    29.2588   Anisotropy =     6.6051

     48  H    Isotropic =    29.1505   Anisotropy =    12.3735

     49  C    Isotropic =   181.7576   Anisotropy =    10.3039

     50  H    Isotropic =    31.5034   Anisotropy =     8.5586

     51  H    Isotropic =    31.3863   Anisotropy =     8.9543

     52  H    Isotropic =    31.6856   Anisotropy =    11.7276

     53  C    Isotropic =   180.8445   Anisotropy =     9.8584

     54  H    Isotropic =    31.0763   Anisotropy =     9.8325

     55  H    Isotropic =    31.1213   Anisotropy =    10.2451

     56  H    Isotropic =    31.5989   Anisotropy =    11.1035

     57  C    Isotropic =   182.5579   Anisotropy =    14.1949

     58  H    Isotropic =    31.4886   Anisotropy =     7.3496

     59  H    Isotropic =    31.5727   Anisotropy =     7.4700

     60  H    Isotropic =    31.7493   Anisotropy =    11.8670

     61  Si   Isotropic =   314.5995   Anisotropy =    28.0815

     62  Si   Isotropic =   314.9168   Anisotropy =    31.2932

     63  Si   Isotropic =   312.5152   Anisotropy =    30.7743

     64  C    Isotropic =   181.5609   Anisotropy =    13.3392

     65  H    Isotropic =    31.4375   Anisotropy =     7.8014

     66  H    Isotropic =    31.7653   Anisotropy =     7.1631

     67  H    Isotropic =    31.6735   Anisotropy =    11.8159

     68  C    Isotropic =   182.2633   Anisotropy =    13.8124

     69  H    Isotropic =    31.4503   Anisotropy =     7.6874

     70  H    Isotropic =    31.7310   Anisotropy =    11.8605

     71  H    Isotropic =    31.5003   Anisotropy =     7.2421

     72  C    Isotropic =   182.3496   Anisotropy =    10.1914

     73  H    Isotropic =    31.4971   Anisotropy =     9.6666

     74  H    Isotropic =    31.4420   Anisotropy =     6.4203

     75  H    Isotropic =    31.6796   Anisotropy =    11.7009

     76  Si   Isotropic =   315.0224   Anisotropy =    31.2608

     77  O    Isotropic =   199.5656   Anisotropy =   102.8863

     78  O    Isotropic =   192.6728   Anisotropy =   124.0043

     79  O    Isotropic =   182.6217   Anisotropy =   109.3883

     80  O    Isotropic =   198.8117   Anisotropy =   107.8567

     81  Si   Isotropic =   321.2663   Anisotropy =    37.1001

     82  C    Isotropic =   180.7918   Anisotropy =    12.3862

     83  H    Isotropic =    31.5306   Anisotropy =     7.2867

     84  H    Isotropic =    31.6390   Anisotropy =    11.4745

     85  H    Isotropic =    31.7839   Anisotropy =     6.3116

     86  C    Isotropic =   182.4000   Anisotropy =    11.1766

     87  H    Isotropic =    31.4625   Anisotropy =     7.6218

     88  H    Isotropic =    31.7969   Anisotropy =    11.8899

     89  H    Isotropic =    31.4262   Anisotropy =     7.8308

     90  C    Isotropic =   180.4480   Anisotropy =    14.0942

     91  H    Isotropic =    31.6853   Anisotropy =    11.8919

     92  H    Isotropic =    31.5380   Anisotropy =     7.0639

     93  H    Isotropic =    31.6683   Anisotropy =     5.8046

     94  C    Isotropic =   164.7186   Anisotropy =     7.1522

     95  H    Isotropic =    30.6062   Anisotropy =     5.8866

     96  H    Isotropic =    30.0360   Anisotropy =     4.5273

     97  H    Isotropic =    30.4406   Anisotropy =     6.2592

     98  O    Isotropic =   216.5237   Anisotropy =    96.0934

 The electronic state is 1-A.
 Alpha  occ. eigenvalues --  -77.29226 -77.29180 -66.25742 -66.25395 -66.25338
 Alpha  occ. eigenvalues --  -66.24916 -66.24088 -19.23517 -19.23342 -19.23300
 Alpha  occ. eigenvalues --  -19.23008 -19.21817 -10.34709 -10.29122 -10.29113
 Alpha  occ. eigenvalues --  -10.29011 -10.28768 -10.27652 -10.27594 -10.27492
 Alpha  occ. eigenvalues --  -10.27409 -10.26997 -10.24402 -10.24244 -10.24122
 Alpha  occ. eigenvalues --  -10.24103 -10.23904 -10.23849 -10.23689 -10.23663
 Alpha  occ. eigenvalues --  -10.23614 -10.23488 -10.23471 -10.23350 -10.23303
 Alpha  occ. eigenvalues --  -10.23128 -10.22958  -6.74095  -6.74054  -5.39225
 Alpha  occ. eigenvalues --   -5.38880  -5.38839  -5.38416  -5.37621  -4.90573
 Alpha  occ. eigenvalues --   -4.90534  -4.90345  -4.90309  -4.89960  -4.89909
 Alpha  occ. eigenvalues --   -3.75401  -3.75058  -3.75010  -3.74979  -3.74965
 Alpha  occ. eigenvalues --   -3.74633  -3.74619  -3.74594  -3.74589  -3.74579
 Alpha  occ. eigenvalues --   -3.74166  -3.74160  -3.73745  -3.73396  -3.73390
 Alpha  occ. eigenvalues --   -3.31339  -2.08323  -2.07515  -2.04784  -1.13517
 Alpha  occ. eigenvalues --   -1.13044  -1.10918  -1.08827  -1.08742  -0.94523
 Alpha  occ. eigenvalues --   -0.89300  -0.88109  -0.86767  -0.81452  -0.81334
 Alpha  occ. eigenvalues --   -0.80731  -0.80580  -0.80442  -0.80156  -0.77973
 Alpha  occ. eigenvalues --   -0.77743  -0.77461  -0.77448  -0.77375  -0.77236
 Alpha  occ. eigenvalues --   -0.77129  -0.76984  -0.76830  -0.76802  -0.76586
 Alpha  occ. eigenvalues --   -0.76363  -0.73431  -0.70690  -0.69274  -0.65944
 Alpha  occ. eigenvalues --   -0.64600  -0.64339  -0.62788  -0.62611  -0.60046
 Alpha  occ. eigenvalues --   -0.57856  -0.57258  -0.56546  -0.56257  -0.54909
 Alpha  occ. eigenvalues --   -0.54294  -0.53807  -0.53078  -0.52790  -0.52666
 Alpha  occ. eigenvalues --   -0.52465  -0.52263  -0.52188  -0.51838  -0.51570
 Alpha  occ. eigenvalues --   -0.51258  -0.51076  -0.50893  -0.50747  -0.50447
 Alpha  occ. eigenvalues --   -0.50368  -0.50182  -0.50080  -0.49723  -0.49698
 Alpha  occ. eigenvalues --   -0.49642  -0.49329  -0.49258  -0.49055  -0.48921
 Alpha  occ. eigenvalues --   -0.48729  -0.48647  -0.48345  -0.48284  -0.48245
 Alpha  occ. eigenvalues --   -0.48176  -0.48069  -0.47978  -0.47948  -0.47806
 Alpha  occ. eigenvalues --   -0.47765  -0.47665  -0.47568  -0.47502  -0.47348
 Alpha  occ. eigenvalues --   -0.47246  -0.46966  -0.46770  -0.46453  -0.46103
 Alpha  occ. eigenvalues --   -0.46097  -0.45927  -0.45423  -0.44962  -0.44430
 Alpha  occ. eigenvalues --   -0.44168  -0.43646  -0.43482  -0.43094  -0.42286
 Alpha  occ. eigenvalues --   -0.40651  -0.40197  -0.39673  -0.39483  -0.39394
 Alpha  occ. eigenvalues --   -0.39265  -0.39015  -0.38687  -0.38543  -0.38407
 Alpha  occ. eigenvalues --   -0.37970  -0.37354  -0.35351  -0.34990  -0.34680
 Alpha  occ. eigenvalues --   -0.33534  -0.33305  -0.30340
 Alpha virt. eigenvalues --   -0.16384  -0.13171  -0.09657  -0.09074  -0.07445
 Alpha virt. eigenvalues --   -0.07065  -0.07004  -0.06488  -0.06447  -0.04991
 Alpha virt. eigenvalues --   -0.04929  -0.04536  -0.04295  -0.04083  -0.03678

 Mulliken charges:
               1
     1  P    0.748669
     2  P    0.706307
     3  C   -0.163422
     4  C   -0.538320
     5  C   -0.577144
     6  C   -0.512993
     7  C   -0.576040
     8  C   -0.547123
     9  C   -0.546484
    10  H    0.146952
    11  H    0.128622
    12  H    0.149606
    13  H    0.155336
    14  H    0.141127
    15  H    0.137127
    16  H    0.145493
    17  H    0.134748
    18  H    0.142967
    19  H    0.153705
    20  H    0.145226
    21  H    0.128459
    22  H    0.128523
    23  H    0.145570
    24  H    0.137780
    25  H    0.146338
    26  H    0.145947
    27  H    0.141800
    28  Rh  -0.592677
    29  C   -0.019302
    30  C   -0.074950
    31  C   -0.035810
    32  C   -0.054328
    33  C   -0.358535
    34  H    0.143673
    35  H    0.182091
    36  C   -0.236082
    37  C   -0.361296
    38  H    0.167314
    39  C   -0.233088
    40  H    0.160242
    41  H    0.170051
    42  H    0.170370
    43  H    0.174812
    44  H    0.142647
    45  H    0.167316
    46  H    0.167749
    47  H    0.134016
    48  H    0.172430
    49  C   -0.547891
    50  H    0.130090
    51  H    0.127397
    52  H    0.148606
    53  C   -0.549186
    54  H    0.119360
    55  H    0.144566
    56  H    0.156840
    57  C   -0.520493
    58  H    0.138383
    59  H    0.136858
    60  H    0.142075
    61  Si   0.753819
    62  Si   0.743442
    63  Si   0.767010
    64  C   -0.573522
    65  H    0.143328
    66  H    0.153005
    67  H    0.150535
    68  C   -0.483663
    69  H    0.146041
    70  H    0.148063
    71  H    0.140898
    72  C   -0.577592
    73  H    0.131753
    74  H    0.143331
    75  H    0.153563
    76  Si   0.728084
    77  O   -0.481379
    78  O   -0.452633
    79  O   -0.466708
    80  O   -0.468725
    81  Si   0.748791
    82  C   -0.558982
    83  H    0.146059
    84  H    0.148201
    85  H    0.126899
    86  C   -0.532524
    87  H    0.143662
    88  H    0.145742
    89  H    0.136010
    90  C   -0.581861
    91  H    0.146151
    92  H    0.144713
    93  H    0.136601
    94  C   -0.432800
    95  H    0.177815
    96  H    0.142837
    97  H    0.161415
    98  O   -0.359401
 Sum of Mulliken charges =   1.00000

 Dipole moment (field-independent basis, Debye):
    X=             -0.0746    Y=             -2.1506    Z=             -0.5211  Tot=              2.2141
 Quadrupole moment (field-independent basis, Debye-Ang):
   XX=           -245.7722   YY=           -252.4043   ZZ=           -267.3697
   XY=             -0.6103   XZ=             -1.9452   YZ=             -0.1023

 Summary of Natural Population Analysis:

                                       Natural Population
                Natural  -----------------------------------------------
    Atom  No    Charge         Core      Valence    Rydberg      Total
 -----------------------------------------------------------------------
      P    1    1.74460      9.99602     3.16372    0.09566    13.25540
      P    2    1.75490      9.99600     3.15316    0.09594    13.24510
      C    3   -0.25262      1.99935     4.21622    0.03705     6.25262
      C    4   -1.11024      1.99943     5.10233    0.00849     7.11024
      C    5   -1.11326      1.99944     5.10525    0.00857     7.11326
      C    6   -1.10511      1.99943     5.09760    0.00808     7.10511
      C    7   -1.10987      1.99944     5.10194    0.00849     7.10987
      C    8   -1.10952      1.99944     5.10183    0.00825     7.10952
      C    9   -1.10800      1.99943     5.10034    0.00822     7.10800
      H   10    0.24200      0.00000     0.75713    0.00087     0.75800
      H   11    0.23399      0.00000     0.76484    0.00117     0.76601
      H   12    0.24130      0.00000     0.75772    0.00098     0.75870
      H   13    0.24606      0.00000     0.75309    0.00085     0.75394
      H   14    0.23232      0.00000     0.76667    0.00101     0.76768
      H   15    0.23334      0.00000     0.76558    0.00108     0.76666
      H   16    0.24096      0.00000     0.75820    0.00084     0.75904
      H   17    0.23765      0.00000     0.76114    0.00120     0.76235
      H   18    0.23936      0.00000     0.75966    0.00098     0.76064
      H   19    0.24427      0.00000     0.75487    0.00086     0.75573
      H   20    0.23661      0.00000     0.76228    0.00111     0.76339
      H   21    0.22698      0.00000     0.77194    0.00107     0.77302
      H   22    0.23178      0.00000     0.76709    0.00113     0.76822
      H   23    0.24172      0.00000     0.75744    0.00084     0.75828
      H   24    0.23652      0.00000     0.76256    0.00091     0.76348
      H   25    0.24114      0.00000     0.75802    0.00084     0.75886
      H   26    0.23958      0.00000     0.75934    0.00108     0.76042
      H   27    0.23556      0.00000     0.76338    0.00105     0.76444
     Rh   28   -0.54520     35.98553     9.53074    0.02893    45.54520
      C   29   -0.17498      1.99907     4.15480    0.02111     6.17498
      C   30   -0.16647      1.99909     4.14650    0.02089     6.16647
      C   31   -0.19389      1.99907     4.17405    0.02077     6.19389
      C   32   -0.15564      1.99908     4.13537    0.02118     6.15564
      C   33   -0.42624      1.99936     4.41479    0.01210     6.42624
      H   34    0.21991      0.00000     0.77761    0.00248     0.78009
      H   35    0.23124      0.00000     0.76678    0.00198     0.76876
      C   36   -0.42267      1.99935     4.41089    0.01243     6.42267
      C   37   -0.42357      1.99936     4.41229    0.01192     6.42357
      H   38    0.22210      0.00000     0.77544    0.00246     0.77790
      C   39   -0.42154      1.99935     4.40963    0.01256     6.42154
      H   40    0.22809      0.00000     0.76963    0.00228     0.77191
      H   41    0.22778      0.00000     0.77073    0.00149     0.77222
      H   42    0.21561      0.00000     0.78240    0.00199     0.78439
      H   43    0.23495      0.00000     0.76318    0.00187     0.76505
      H   44    0.21998      0.00000     0.77846    0.00156     0.78002
      H   45    0.21475      0.00000     0.78324    0.00201     0.78525
      H   46    0.22813      0.00000     0.77037    0.00150     0.77187
      H   47    0.21999      0.00000     0.77852    0.00149     0.78001
      H   48    0.23383      0.00000     0.76425    0.00193     0.76617
      C   49   -1.11065      1.99943     5.10233    0.00890     7.11065
      H   50    0.23525      0.00000     0.76359    0.00116     0.76475
      H   51    0.23597      0.00000     0.76285    0.00117     0.76403
      H   52    0.24107      0.00000     0.75803    0.00090     0.75893
      C   53   -1.10753      1.99943     5.09920    0.00890     7.10753
      H   54    0.23219      0.00000     0.76640    0.00140     0.76781
      H   55    0.24351      0.00000     0.75531    0.00119     0.75649
      H   56    0.24161      0.00000     0.75749    0.00090     0.75839
      C   57   -1.10517      1.99944     5.09780    0.00793     7.10517
      H   58    0.23728      0.00000     0.76171    0.00101     0.76272
      H   59    0.23741      0.00000     0.76172    0.00087     0.76259
      H   60    0.24220      0.00000     0.75698    0.00082     0.75780
     Si   61    1.86640      9.99787     2.10263    0.03310    12.13360
     Si   62    1.86331      9.99791     2.10603    0.03275    12.13669
     Si   63    1.86717      9.99794     2.10188    0.03301    12.13283
      C   64   -1.11076      1.99943     5.10300    0.00833     7.11076
      H   65    0.23849      0.00000     0.76041    0.00110     0.76151
      H   66    0.23092      0.00000     0.76800    0.00108     0.76908
      H   67    0.24443      0.00000     0.75472    0.00085     0.75557
      C   68   -1.10675      1.99943     5.09930    0.00802     7.10675
      H   69    0.23886      0.00000     0.76005    0.00109     0.76114
      H   70    0.24286      0.00000     0.75629    0.00085     0.75714
      H   71    0.23791      0.00000     0.76115    0.00094     0.76209
      C   72   -1.11037      1.99943     5.10245    0.00849     7.11037
      H   73    0.23076      0.00000     0.76805    0.00119     0.76924
      H   74    0.23704      0.00000     0.76192    0.00104     0.76296
      H   75    0.24449      0.00000     0.75465    0.00086     0.75551
     Si   76    1.86703      9.99790     2.10215    0.03292    12.13297
      O   77   -1.14886      1.99976     7.13971    0.00939     9.14886
      O   78   -1.12779      1.99977     7.11702    0.01099     9.12779
      O   79   -1.13101      1.99976     7.12048    0.01077     9.13101
      O   80   -1.14382      1.99976     7.13377    0.01028     9.14382
     Si   81    1.85263      9.99790     2.11263    0.03684    12.14737
      C   82   -1.12011      1.99944     5.11082    0.00985     7.12011
      H   83    0.23755      0.00000     0.76130    0.00115     0.76245
      H   84    0.24240      0.00000     0.75665    0.00095     0.75760
      H   85    0.22718      0.00000     0.77154    0.00128     0.77282
      C   86   -1.10511      1.99944     5.09672    0.00895     7.10511
      H   87    0.23423      0.00000     0.76471    0.00106     0.76577
      H   88    0.23943      0.00000     0.75967    0.00090     0.76057
      H   89    0.23487      0.00000     0.76395    0.00118     0.76513
      C   90   -1.11802      1.99944     5.10916    0.00942     7.11802
      H   91    0.24215      0.00000     0.75694    0.00090     0.75785
      H   92    0.23545      0.00000     0.76345    0.00110     0.76455
      H   93    0.23180      0.00000     0.76720    0.00100     0.76820
      C   94   -0.64761      1.99935     4.63833    0.00993     6.64761
      H   95    0.22274      0.00000     0.77477    0.00249     0.77726
      H   96    0.22923      0.00000     0.76946    0.00131     0.77077
      H   97    0.22419      0.00000     0.77398    0.00183     0.77581
      O   98   -0.85463      1.99974     6.83830    0.01659     8.85463
 =======================================================================
   * Total *    1.00000    165.94982   227.21965    0.83052   394.00000

 Normal termination of Gaussian 16 at Mon Jan 20 11:16:15 2025.
