 Gaussian 16, Revision B.01,
 Gaussian 16:  ES64L-G16RevB.01 20-Dec-2017

 ------------------------------------------
 # nmr=giao b3lyp/genecp pop=nbo scfcyc=200
 ------------------------------------------

 ---------
 DS-41_SPE
 ---------
 Symbolic Z-matrix:
 Charge =  1 Multiplicity = 1

                         Standard orientation:
 ---------------------------------------------------------------------
 Center     Atomic      Atomic             Coordinates (Angstroms)
 Number     Number       Type             X           Y           Z
 ---------------------------------------------------------------------
      1         45           0       -1.633450   -0.035720    0.116400
      2          6           0       -3.102321    1.375159    1.139990
      3          6           0       -3.313131    1.420459   -0.223140
      4          6           0       -3.365849   -1.498521   -0.063930
      5          6           0       -2.886388   -1.540591    1.229430
      6          6           0       -3.956350    0.614168    2.137560
      7          1           0       -2.461721    2.142339    1.560890
      8          1           0       -2.848501    2.236299   -0.768040
      9          6           0       -4.362980    0.668868   -1.003320
     10          6           0       -4.619929   -0.774202   -0.516040
     11          1           0       -2.980878   -2.242211   -0.753540
     12          6           0       -3.455139   -0.817852    2.425920
     13          1           0       -2.193798   -2.339481    1.473380
     14          1           0       -3.968800    1.170168    3.076300
     15          1           0       -4.988900    0.591927    1.789960
     16          1           0       -5.302630    1.235107   -0.994910
     17          1           0       -4.042730    0.641888   -2.046930
     18          1           0       -5.355129   -0.779253    0.288330
     19          1           0       -5.067779   -1.338503   -1.335380
     20          1           0       -2.675819   -0.776611    3.189950
     21          1           0       -4.266659   -1.413142    2.862690
     22         15           0        0.167469    1.400071   -0.352980
     23         15           0        0.221551   -1.394119   -0.375350
     24          6           0        0.826022   -2.949269    0.321760
     25          1           0        0.925893   -3.148538    1.377860
     26          6           0        1.076663   -3.827498   -0.669030
     27          6           0        0.859773   -3.280519   -2.044620
     28          6           0        0.452532   -1.998279   -2.066290
     29          1           0        0.245051   -1.422919   -2.955360
     30          6           0        0.737478    3.352301   -1.970660
     31          6           0        0.388009    2.054121   -2.026650
     32          1           0        0.219179    1.490401   -2.931230
     33          6           0        0.914298    3.875902   -0.580180
     34          6           0        0.695008    2.963511    0.386850
     35          1           0        0.772368    3.141991    1.448490
     36          6           0        1.314667    5.296212   -0.330420
     37          1           0        2.273977    5.519512   -0.804450
     38          1           0        0.583216    5.990671   -0.752260
     39          1           0        1.405047    5.500532    0.735140
     40          6           0        0.956778    4.226792   -3.165830
     41          1           0        0.290837    5.093581   -3.149980
     42          1           0        1.979987    4.610952   -3.184690
     43          1           0        0.783658    3.679881   -4.091180
     44          6           0        1.545624   -5.232918   -0.457480
     45          1           0        0.842565   -5.950689   -0.888460
     46          1           0        2.508854   -5.399727   -0.946570
     47          1           0        1.657504   -5.457828    0.601870
     48          6           0        1.102033   -4.116928   -3.262400
     49          1           0        2.140684   -4.455258   -3.302180
     50          1           0        0.474654   -5.012169   -3.259130
     51          1           0        0.893483   -3.557108   -4.172610
     52          6           0        1.474300    0.025562   -0.065560
     53          6           0        2.035260    0.024712    1.334600
     54          6           0        3.420410    0.049703    1.228340
     55          6           0        1.424710    0.005002    2.582790
     56          6           0        4.244170    0.055334    2.346680
     57          6           0        2.244780    0.010572    3.709510
     58          1           0        0.346440   -0.012909    2.685550
     59          6           0        3.638390    0.035173    3.597030
     60          1           0        5.320620    0.075075    2.234400
     61          1           0        1.793490   -0.004218    4.693790
     62          1           0        4.246190    0.038864    4.492450
     63          6           0        3.795690    0.068174   -0.195590
     64          8           0        2.595900    0.053753   -0.922470
     65          8           0        4.855660    0.091074   -0.737930
 ---------------------------------------------------------------------

 SCF Done:  E(RB3LYP) =  -2030.27269670     A.U. after   16 cycles

      1  Rh   Isotropic =  -294.1112   Anisotropy =   330.7011

      2  C    Isotropic =    77.1460   Anisotropy =   124.1594

      3  C    Isotropic =    76.2946   Anisotropy =   118.4557

      4  C    Isotropic =    77.2770   Anisotropy =   124.5301

      5  C    Isotropic =    76.4186   Anisotropy =   118.0808

      6  C    Isotropic =   153.6472   Anisotropy =    25.5397

      7  H    Isotropic =    26.6731   Anisotropy =     7.4132

      8  H    Isotropic =    26.7073   Anisotropy =     5.3147

      9  C    Isotropic =   147.7349   Anisotropy =    29.6613

     10  C    Isotropic =   153.9904   Anisotropy =    25.2261

     11  H    Isotropic =    27.1316   Anisotropy =     7.6904

     12  C    Isotropic =   146.8799   Anisotropy =    29.7414

     13  H    Isotropic =    26.0836   Anisotropy =     5.2679

     14  H    Isotropic =    29.7557   Anisotropy =    11.5167

     15  H    Isotropic =    29.6677   Anisotropy =     9.1530

     16  H    Isotropic =    29.1371   Anisotropy =    12.4455

     17  H    Isotropic =    29.1747   Anisotropy =     8.3191

     18  H    Isotropic =    29.7332   Anisotropy =     9.2853

     19  H    Isotropic =    29.8660   Anisotropy =    11.6753

     20  H    Isotropic =    28.9528   Anisotropy =     8.2527

     21  H    Isotropic =    29.0071   Anisotropy =    12.3909

     22  P    Isotropic =   259.8057   Anisotropy =    53.1993

     23  P    Isotropic =   259.8735   Anisotropy =    53.4785

     24  C    Isotropic =    61.2863   Anisotropy =   114.8887

     25  H    Isotropic =    26.4795   Anisotropy =     6.8460

     26  C    Isotropic =    10.3867   Anisotropy =   181.9511

     27  C    Isotropic =    16.5311   Anisotropy =   170.5399

     28  C    Isotropic =    60.0795   Anisotropy =   113.4374

     29  H    Isotropic =    25.5825   Anisotropy =     6.7501

     30  C    Isotropic =    16.4237   Anisotropy =   171.0569

     31  C    Isotropic =    60.2634   Anisotropy =   114.0340

     32  H    Isotropic =    25.5462   Anisotropy =     6.6055

     33  C    Isotropic =    10.6312   Anisotropy =   181.7791

     34  C    Isotropic =    61.1609   Anisotropy =   114.4987

     35  H    Isotropic =    26.5341   Anisotropy =     6.8539

     36  C    Isotropic =   164.7502   Anisotropy =    31.4842

     37  H    Isotropic =    29.8803   Anisotropy =     8.4181

     38  H    Isotropic =    29.8787   Anisotropy =     8.7014

     39  H    Isotropic =    29.9857   Anisotropy =     6.7419

     40  C    Isotropic =   165.0450   Anisotropy =    31.1002

     41  H    Isotropic =    29.7584   Anisotropy =     8.5532

     42  H    Isotropic =    29.6977   Anisotropy =     8.6057

     43  H    Isotropic =    29.5825   Anisotropy =     6.9063

     44  C    Isotropic =   164.7582   Anisotropy =    31.4460

     45  H    Isotropic =    29.8720   Anisotropy =     8.7213

     46  H    Isotropic =    29.8706   Anisotropy =     8.4045

     47  H    Isotropic =    29.9691   Anisotropy =     6.7172

     48  C    Isotropic =   165.1189   Anisotropy =    31.0505

     49  H    Isotropic =    29.7019   Anisotropy =     8.5957

     50  H    Isotropic =    29.7731   Anisotropy =     8.5773

     51  H    Isotropic =    29.5985   Anisotropy =     6.9467

     52  C    Isotropic =    76.1654   Anisotropy =    51.5294

     53  C    Isotropic =    27.8718   Anisotropy =   181.8386

     54  C    Isotropic =    54.8676   Anisotropy =   160.2027

     55  C    Isotropic =    59.7110   Anisotropy =   170.1043

     56  C    Isotropic =    50.0836   Anisotropy =   196.6056

     57  C    Isotropic =    44.4646   Anisotropy =   195.2413

     58  H    Isotropic =    23.3431   Anisotropy =    10.2232

     59  C    Isotropic =    47.7107   Anisotropy =   194.3708

     60  H    Isotropic =    23.7345   Anisotropy =     5.6404

     61  H    Isotropic =    23.9079   Anisotropy =     7.0437

     62  H    Isotropic =    24.0284   Anisotropy =     3.9014

     63  C    Isotropic =    12.9599   Anisotropy =   107.5241

     64  O    Isotropic =    55.7332   Anisotropy =   139.1125

     65  O    Isotropic =   -85.4447   Anisotropy =   573.0438

 The electronic state is 1-A.
 Alpha  occ. eigenvalues --  -77.24279 -77.24270 -19.27844 -19.21464 -10.40119
 Alpha  occ. eigenvalues --  -10.38481 -10.31336 -10.31201 -10.31194 -10.30873
 Alpha  occ. eigenvalues --  -10.30844 -10.30197 -10.30155 -10.30052 -10.29977
 Alpha  occ. eigenvalues --  -10.29786 -10.29709 -10.29437 -10.29327 -10.28948
 Alpha  occ. eigenvalues --  -10.28933 -10.28926 -10.28918 -10.28739 -10.28536
 Alpha  occ. eigenvalues --  -10.28369 -10.28255 -10.28148 -10.27242 -10.27228
 Alpha  occ. eigenvalues --  -10.27072 -10.27050  -6.70384  -6.70374  -4.86672
 Alpha  occ. eigenvalues --   -4.86661  -4.86571  -4.86561  -4.86291  -4.86281
 Alpha  occ. eigenvalues --   -3.33010  -2.09986  -2.09250  -2.06411  -1.21100
 Alpha  occ. eigenvalues --   -1.13770  -0.98610  -0.97348  -0.97159  -0.95449
 Alpha  occ. eigenvalues --   -0.90225  -0.89969  -0.88947  -0.88274  -0.87115
 Alpha  occ. eigenvalues --   -0.87069  -0.86003  -0.84717  -0.82189  -0.81320
 Alpha  occ. eigenvalues --   -0.78785  -0.78333  -0.78224  -0.75422  -0.74240
 Alpha  occ. eigenvalues --   -0.74092  -0.71706  -0.71527  -0.69295  -0.67252
 Alpha  occ. eigenvalues --   -0.66918  -0.66807  -0.63409  -0.62200  -0.61924
 Alpha  occ. eigenvalues --   -0.61556  -0.60936  -0.60341  -0.59068  -0.58439
 Alpha  occ. eigenvalues --   -0.58171  -0.57868  -0.57248  -0.57191  -0.55918
 Alpha  occ. eigenvalues --   -0.55030  -0.54539  -0.54373  -0.54091  -0.53976
 Alpha  occ. eigenvalues --   -0.53561  -0.53514  -0.53392  -0.51645  -0.51487
 Alpha  occ. eigenvalues --   -0.50914  -0.50793  -0.50772  -0.50361  -0.50346
 Alpha  occ. eigenvalues --   -0.49802  -0.48951  -0.48817  -0.48508  -0.48409
 Alpha  occ. eigenvalues --   -0.47995  -0.47293  -0.47247  -0.46889  -0.46583
 Alpha  occ. eigenvalues --   -0.46192  -0.46046  -0.45659  -0.45320  -0.44416
 Alpha  occ. eigenvalues --   -0.44074  -0.43485  -0.42263  -0.41844  -0.39850
 Alpha  occ. eigenvalues --   -0.38884  -0.37993  -0.37525  -0.37211  -0.36447
 Alpha  occ. eigenvalues --   -0.36165  -0.36113  -0.35376  -0.34975  -0.34511
 Alpha  occ. eigenvalues --   -0.32212
 Alpha virt. eigenvalues --   -0.18317  -0.18207  -0.17098  -0.15858  -0.14207
 Alpha virt. eigenvalues --   -0.11105  -0.10253  -0.08780  -0.08257  -0.07529
 Alpha virt. eigenvalues --   -0.07320  -0.06843  -0.06320  -0.05994  -0.05851

 Mulliken charges:
               1
     1  Rh  -0.674805
     2  C   -0.009142
     3  C   -0.075782
     4  C   -0.004029
     5  C   -0.101299
     6  C   -0.355601
     7  H    0.184925
     8  H    0.186032
     9  C   -0.222589
    10  C   -0.342626
    11  H    0.181297
    12  C   -0.220166
    13  H    0.196173
    14  H    0.172116
    15  H    0.169920
    16  H    0.173535
    17  H    0.137346
    18  H    0.167141
    19  H    0.172518
    20  H    0.131479
    21  H    0.174999
    22  P    0.408113
    23  P    0.422385
    24  C   -0.131820
    25  H    0.180635
    26  C   -0.022064
    27  C   -0.046826
    28  C   -0.056228
    29  H    0.158709
    30  C   -0.035861
    31  C   -0.065866
    32  H    0.158764
    33  C   -0.030754
    34  C   -0.123165
    35  H    0.179324
    36  C   -0.396419
    37  H    0.157077
    38  H    0.149843
    39  H    0.148923
    40  C   -0.405108
    41  H    0.147869
    42  H    0.157627
    43  H    0.148778
    44  C   -0.396419
    45  H    0.149960
    46  H    0.157332
    47  H    0.148868
    48  C   -0.406228
    49  H    0.157528
    50  H    0.148056
    51  H    0.148707
    52  C   -0.273771
    53  C   -0.041296
    54  C   -0.107516
    55  C   -0.027172
    56  C   -0.108510
    57  C   -0.100706
    58  H    0.170835
    59  C   -0.060101
    60  H    0.153302
    61  H    0.135093
    62  H    0.143212
    63  C    0.215166
    64  O   -0.099390
    65  O   -0.252326
 Sum of Mulliken charges =   1.00000

 Dipole moment (field-independent basis, Debye):
    X=             -4.3450    Y=             -0.0655    Z=              1.5335  Tot=              4.6081
 Quadrupole moment (field-independent basis, Debye-Ang):
   XX=           -197.7546   YY=           -161.9445   ZZ=           -184.5456
   XY=             -0.9184   XZ=             10.2241   YZ=              0.3691

 Summary of Natural Population Analysis:

                                       Natural Population
                Natural  -----------------------------------------------
    Atom  No    Charge         Core      Valence    Rydberg      Total
 -----------------------------------------------------------------------
     Rh    1   -0.43797     35.98447     9.41947    0.03403    45.43797
      C    2   -0.16189      1.99904     4.14305    0.01979     6.16189
      C    3   -0.15091      1.99905     4.13167    0.02019     6.15091
      C    4   -0.16373      1.99904     4.14509    0.01960     6.16373
      C    5   -0.15085      1.99905     4.13135    0.02045     6.15085
      C    6   -0.42534      1.99937     4.41426    0.01172     6.42534
      H    7    0.23179      0.00000     0.76665    0.00156     0.76821
      H    8    0.23072      0.00000     0.76748    0.00180     0.76928
      C    9   -0.42280      1.99936     4.41114    0.01231     6.42280
      C   10   -0.42456      1.99937     4.41357    0.01162     6.42456
      H   11    0.23399      0.00000     0.76445    0.00157     0.76601
      C   12   -0.42140      1.99936     4.40963    0.01242     6.42140
      H   13    0.22928      0.00000     0.76877    0.00195     0.77072
      H   14    0.23030      0.00000     0.76825    0.00144     0.76970
      H   15    0.21619      0.00000     0.78184    0.00196     0.78381
      H   16    0.23654      0.00000     0.76157    0.00188     0.76346
      H   17    0.22180      0.00000     0.77675    0.00145     0.77820
      H   18    0.21512      0.00000     0.78291    0.00197     0.78488
      H   19    0.23164      0.00000     0.76691    0.00145     0.76836
      H   20    0.21668      0.00000     0.78179    0.00153     0.78332
      H   21    0.23621      0.00000     0.76189    0.00190     0.76379
      P   22    1.07689      9.99643     3.87336    0.05331    13.92311
      P   23    1.07653      9.99643     3.87391    0.05312    13.92347
      C   24   -0.51893      1.99893     4.50376    0.01624     6.51893
      H   25    0.24358      0.00000     0.75462    0.00180     0.75642
      C   26    0.03949      1.99902     3.94597    0.01552     5.96051
      C   27    0.02089      1.99902     3.96439    0.01571     5.97911
      C   28   -0.48670      1.99892     4.47131    0.01647     6.48670
      H   29    0.23987      0.00000     0.75832    0.00181     0.76013
      C   30    0.02103      1.99902     3.96423    0.01572     5.97897
      C   31   -0.48822      1.99892     4.47283    0.01646     6.48822
      H   32    0.24004      0.00000     0.75815    0.00181     0.75996
      C   33    0.03858      1.99902     3.94689    0.01550     5.96142
      C   34   -0.51727      1.99893     4.50204    0.01630     6.51727
      H   35    0.24370      0.00000     0.75452    0.00178     0.75630
      C   36   -0.63145      1.99938     4.62446    0.00761     6.63145
      H   37    0.23401      0.00000     0.76451    0.00148     0.76599
      H   38    0.23035      0.00000     0.76814    0.00151     0.76965
      H   39    0.22749      0.00000     0.77124    0.00127     0.77251
      C   40   -0.62885      1.99938     4.62201    0.00746     6.62885
      H   41    0.22804      0.00000     0.77046    0.00150     0.77196
      H   42    0.23337      0.00000     0.76516    0.00147     0.76663
      H   43    0.22787      0.00000     0.77087    0.00125     0.77213
      C   44   -0.63148      1.99938     4.62450    0.00761     6.63148
      H   45    0.23045      0.00000     0.76804    0.00151     0.76955
      H   46    0.23405      0.00000     0.76447    0.00147     0.76595
      H   47    0.22744      0.00000     0.77129    0.00127     0.77256
      C   48   -0.62865      1.99938     4.62183    0.00744     6.62865
      H   49    0.23328      0.00000     0.76525    0.00147     0.76672
      H   50    0.22805      0.00000     0.77046    0.00150     0.77195
      H   51    0.22781      0.00000     0.77094    0.00125     0.77219
      C   52   -0.18955      1.99915     4.15195    0.03846     6.18955
      C   53   -0.04636      1.99897     4.02591    0.02149     6.04636
      C   54   -0.16993      1.99886     4.15199    0.01908     6.16993
      C   55   -0.21742      1.99906     4.20417    0.01419     6.21742
      C   56   -0.13547      1.99913     4.12146    0.01488     6.13547
      C   57   -0.16252      1.99924     4.14880    0.01448     6.16252
      H   58    0.22521      0.00000     0.77260    0.00220     0.77479
      C   59   -0.19324      1.99923     4.17950    0.01451     6.19324
      H   60    0.24077      0.00000     0.75769    0.00154     0.75923
      H   61    0.22308      0.00000     0.77579    0.00113     0.77692
      H   62    0.22819      0.00000     0.77071    0.00110     0.77181
      C   63    0.72092      1.99927     3.23723    0.04258     5.27908
      O   64   -0.48033      1.99976     6.46163    0.01894     8.48033
      O   65   -0.48542      1.99975     6.47340    0.01227     8.48542
 =======================================================================
   * Total *    1.00000    115.95265   173.35932    0.68803   290.00000

 Normal termination of Gaussian 16 at Mon Jan 20 09:39:37 2025.
