 Gaussian 16, Revision B.01,
 Gaussian 16:  ES64L-G16RevB.01 20-Dec-2017

 ------------------------------------------
 # nmr=giao b3lyp/genecp pop=nbo scfcyc=200
 ------------------------------------------

 ---------
 DS-46_SPE
 ---------
 Symbolic Z-matrix:
 Charge =  1 Multiplicity = 1

                         Standard orientation:
 ---------------------------------------------------------------------
 Center     Atomic      Atomic             Coordinates (Angstroms)
 Number     Number       Type             X           Y           Z
 ---------------------------------------------------------------------
      1         15           0       -1.414180   -0.124383   -0.190310
      2         15           0        1.272969    0.208762   -0.021310
      3          6           0       -0.208613    1.296769   -0.660750
      4          6           0       -4.688114    1.893760   -0.645510
      5          6           0       -5.375339   -0.975031   -1.672090
      6          6           0       -3.007023    1.426484    3.674740
      7          6           0       -4.221638   -1.131719    2.378210
      8          6           0        3.555271   -0.517634    3.085440
      9          6           0        1.759696    1.810393    4.109730
     10          1           0       -5.584845    2.370789   -1.049380
     11          1           0       -4.916633    1.562250    0.368310
     12          1           0       -3.904326    2.650812   -0.584380
     13          1           0       -6.359629   -0.667963   -2.034630
     14          1           0       -5.037827   -1.805380   -2.296030
     15          1           0       -5.497788   -1.344221   -0.652260
     16          1           0       -3.446133    1.193573    4.647990
     17          1           0       -2.092894    1.996995    3.850970
     18          1           0       -3.708294    2.067372    3.136900
     19          1           0       -4.638888   -1.504159    3.317360
     20          1           0       -4.988069   -0.518890    1.900520
     21          1           0       -4.031747   -1.997338    1.739620
     22          1           0        4.089811   -0.937863    2.230530
     23          1           0        4.285270   -0.371162    3.885510
     24          1           0        2.828512   -1.254505    3.434070
     25          1           0        2.441066    2.074424    4.922380
     26          1           0        1.216654    2.714542    3.827010
     27          1           0        1.041117    1.089081    4.502700
     28         45           0        0.135693   -1.830630   -0.117580
     29          6           0        1.798636   -3.313987   -0.776540
     30          6           0        1.689866   -3.348687    0.591580
     31          6           0       -1.188193   -3.688323    0.108170
     32          6           0       -1.104934   -3.361883   -1.228600
     33          6           0        1.223018   -4.335008   -1.738180
     34          1           0        2.547975   -2.652816   -1.192810
     35          1           0        2.377915   -2.731716    1.160670
     36          6           0        0.923298   -4.356649    1.411690
     37          6           0       -0.424981   -4.802321    0.801120
     38          1           0       -2.052584   -3.313464    0.645630
     39          6           0       -0.189553   -3.982761   -2.253930
     40          1           0       -1.914895   -2.774554   -1.647120
     41          1           0        1.891538   -4.416187   -2.597220
     42          1           0        1.221370   -5.317938   -1.268300
     43          1           0        1.552820   -5.236518    1.594260
     44          1           0        0.742157   -3.915369    2.394040
     45          1           0       -0.271980   -5.628941    0.107650
     46          1           0       -1.047650   -5.200573    1.604050
     47          1           0       -0.102204   -3.281571   -3.086530
     48          1           0       -0.662241   -4.881802   -2.669500
     49          6           0        3.960485    2.367007    1.998140
     50          1           0        4.496726    1.987158    1.127800
     51          1           0        3.467983    3.298216    1.712280
     52          1           0        4.698575    2.604079    2.768750
     53          6           0       -1.361928   -1.217883    3.569260
     54          1           0       -1.122096   -2.100663    2.973740
     55          1           0       -0.437999   -0.661461    3.732380
     56          1           0       -1.729167   -1.556124    4.541520
     57          6           0       -3.891002    1.020002   -3.523700
     58          1           0       -3.240714    1.894563   -3.582790
     59          1           0       -3.448121    0.222073   -4.123280
     60          1           0       -4.844853    1.289940   -3.984400
     61         14           0       -2.653660   -0.148196    2.719360
     62         14           0       -4.171501    0.464241   -1.750960
     63         14           0        2.722797    1.115345    2.655270
     64          6           0        5.111721   -0.821491   -1.082800
     65          1           0        5.506080   -0.352310   -0.178940
     66          1           0        4.680503   -1.785032   -0.803850
     67          1           0        5.959692   -1.022559   -1.742630
     68          6           0        4.629976    1.974438   -2.338740
     69          1           0        5.001225    2.466799   -1.438230
     70          1           0        5.471746    1.856630   -3.026030
     71          1           0        3.905784    2.640267   -2.811370
     72          6           0        3.163971   -0.503694   -3.495010
     73          1           0        2.629682   -1.428905   -3.271820
     74          1           0        2.475559    0.167544   -4.012230
     75          1           0        3.970241   -0.747113   -4.191740
     76         14           0        3.875319    0.302047   -1.950030
     77          8           0        2.595938    0.620724   -0.852650
     78          8           0        1.536058    0.813882    1.452530
     79          8           0       -2.010411    0.401806    1.221600
     80          8           0       -2.664560   -0.168276   -1.198500
     81          7           0       -0.450065    2.552279   -0.054190
     82          1           0       -0.640075    2.457238    0.934690
     83         14           0       -0.238509    4.244109   -0.575940
     84          6           0       -1.408139    4.701777   -1.989310
     85          1           0       -2.447849    4.484655   -1.736080
     86          1           0       -1.335382    5.773607   -2.192670
     87          1           0       -1.167168    4.181897   -2.918490
     88          6           0       -0.675591    5.226798    0.975010
     89          1           0        0.004440    5.004159    1.800760
     90          1           0       -0.606533    6.298738    0.776730
     91          1           0       -1.695180    5.020666    1.308630
     92          6           0        1.536171    4.620702   -1.110750
     93          1           0        1.649109    5.691963   -1.297870
     94          1           0        2.255281    4.338134   -0.339770
     95          1           0        1.811242    4.102383   -2.031480
     96          6           0       -0.105013    1.354619   -2.184280
     97          1           0        0.724476    1.995011   -2.485310
     98          1           0        0.065849    0.364870   -2.611220
     99          1           0       -1.024914    1.748577   -2.613340
 ---------------------------------------------------------------------

 SCF Done:  E(RB3LYP) =  -3586.78758313     A.U. after   17 cycles

      1  P    Isotropic =   160.9625   Anisotropy =   188.4590

      2  P    Isotropic =   159.6040   Anisotropy =   165.6699

      3  C    Isotropic =    62.7226   Anisotropy =    80.7999

      4  C    Isotropic =   182.1197   Anisotropy =     9.2576

      5  C    Isotropic =   182.2296   Anisotropy =    14.2602

      6  C    Isotropic =   182.7886   Anisotropy =    13.5687

      7  C    Isotropic =   181.2096   Anisotropy =    12.0883

      8  C    Isotropic =   182.2493   Anisotropy =    11.0324

      9  C    Isotropic =   182.0176   Anisotropy =    13.1454

     10  H    Isotropic =    31.6797   Anisotropy =    11.8422

     11  H    Isotropic =    31.5754   Anisotropy =     7.5014

     12  H    Isotropic =    31.4040   Anisotropy =     8.5998

     13  H    Isotropic =    31.7429   Anisotropy =    12.0343

     14  H    Isotropic =    31.5413   Anisotropy =     7.6285

     15  H    Isotropic =    31.6740   Anisotropy =     7.5803

     16  H    Isotropic =    31.6945   Anisotropy =    11.7500

     17  H    Isotropic =    31.5034   Anisotropy =     7.7600

     18  H    Isotropic =    31.4290   Anisotropy =     7.8100

     19  H    Isotropic =    31.5958   Anisotropy =    11.5817

     20  H    Isotropic =    31.4533   Anisotropy =     7.9002

     21  H    Isotropic =    31.7953   Anisotropy =     5.8319

     22  H    Isotropic =    31.6681   Anisotropy =     7.0292

     23  H    Isotropic =    31.5866   Anisotropy =    11.8906

     24  H    Isotropic =    31.5164   Anisotropy =     7.0192

     25  H    Isotropic =    31.6419   Anisotropy =    11.8676

     26  H    Isotropic =    31.4194   Anisotropy =     7.1731

     27  H    Isotropic =    31.4346   Anisotropy =     8.0618

     28  Rh   Isotropic =  -282.8539   Anisotropy =   308.2193

     29  C    Isotropic =    73.4651   Anisotropy =   128.7978

     30  C    Isotropic =    74.9628   Anisotropy =   120.8624

     31  C    Isotropic =    84.2731   Anisotropy =   113.1331

     32  C    Isotropic =    71.9783   Anisotropy =   125.9065

     33  C    Isotropic =   153.9110   Anisotropy =    24.5941

     34  H    Isotropic =    26.7003   Anisotropy =     7.1722

     35  H    Isotropic =    26.2942   Anisotropy =     4.5658

     36  C    Isotropic =   148.1487   Anisotropy =    27.2104

     37  C    Isotropic =   154.1880   Anisotropy =    23.6863

     38  H    Isotropic =    27.2671   Anisotropy =     6.3984

     39  C    Isotropic =   147.3826   Anisotropy =    29.1613

     40  H    Isotropic =    26.2494   Anisotropy =     4.4846

     41  H    Isotropic =    29.9072   Anisotropy =    10.6591

     42  H    Isotropic =    29.7359   Anisotropy =     9.5327

     43  H    Isotropic =    29.1859   Anisotropy =    12.5048

     44  H    Isotropic =    29.3476   Anisotropy =     6.7548

     45  H    Isotropic =    29.7676   Anisotropy =     9.8725

     46  H    Isotropic =    29.9066   Anisotropy =    11.0005

     47  H    Isotropic =    29.2541   Anisotropy =     6.6626

     48  H    Isotropic =    29.1413   Anisotropy =    12.5753

     49  C    Isotropic =   181.0765   Anisotropy =    12.2019

     50  H    Isotropic =    31.5602   Anisotropy =     8.2908

     51  H    Isotropic =    31.3726   Anisotropy =     7.3254

     52  H    Isotropic =    31.6677   Anisotropy =    11.8591

     53  C    Isotropic =   181.0273   Anisotropy =    10.2975

     54  H    Isotropic =    31.1005   Anisotropy =     9.8653

     55  H    Isotropic =    31.3377   Anisotropy =     9.3466

     56  H    Isotropic =    31.5913   Anisotropy =    11.3212

     57  C    Isotropic =   181.8276   Anisotropy =    13.1939

     58  H    Isotropic =    31.5067   Anisotropy =     7.7236

     59  H    Isotropic =    31.5314   Anisotropy =     7.3882

     60  H    Isotropic =    31.7242   Anisotropy =    11.9023

     61  Si   Isotropic =   313.8161   Anisotropy =    29.6866

     62  Si   Isotropic =   311.8640   Anisotropy =    31.0842

     63  Si   Isotropic =   315.4995   Anisotropy =    31.3969

     64  C    Isotropic =   181.6480   Anisotropy =    12.8342

     65  H    Isotropic =    31.5063   Anisotropy =     7.2423

     66  H    Isotropic =    31.8150   Anisotropy =     7.4311

     67  H    Isotropic =    31.6847   Anisotropy =    11.9344

     68  C    Isotropic =   181.7872   Anisotropy =    13.2690

     69  H    Isotropic =    31.4763   Anisotropy =     7.1905

     70  H    Isotropic =    31.7533   Anisotropy =    11.9144

     71  H    Isotropic =    31.4502   Anisotropy =     7.6870

     72  C    Isotropic =   182.1426   Anisotropy =    10.4543

     73  H    Isotropic =    31.5789   Anisotropy =     9.0566

     74  H    Isotropic =    31.4347   Anisotropy =     6.4594

     75  H    Isotropic =    31.6812   Anisotropy =    11.8181

     76  Si   Isotropic =   315.8403   Anisotropy =    30.8370

     77  O    Isotropic =   202.2657   Anisotropy =   100.3342

     78  O    Isotropic =   186.9217   Anisotropy =   131.3802

     79  O    Isotropic =   178.2308   Anisotropy =   118.5804

     80  O    Isotropic =   202.8919   Anisotropy =    97.6496

     81  N    Isotropic =   189.7971   Anisotropy =    42.4960

     82  H    Isotropic =    29.5040   Anisotropy =     7.0497

     83  Si   Isotropic =   341.8214   Anisotropy =    17.8906

     84  C    Isotropic =   180.0292   Anisotropy =    13.8666

     85  H    Isotropic =    31.7172   Anisotropy =     7.8903

     86  H    Isotropic =    31.6295   Anisotropy =    11.8938

     87  H    Isotropic =    31.6135   Anisotropy =     5.0328

     88  C    Isotropic =   185.0185   Anisotropy =    12.0089

     89  H    Isotropic =    31.7504   Anisotropy =     7.5822

     90  H    Isotropic =    31.7412   Anisotropy =    12.2127

     91  H    Isotropic =    31.6724   Anisotropy =     7.7533

     92  C    Isotropic =   179.6858   Anisotropy =    12.3420

     93  H    Isotropic =    31.6099   Anisotropy =    11.6487

     94  H    Isotropic =    31.7599   Anisotropy =     7.8482

     95  H    Isotropic =    31.7140   Anisotropy =     6.3203

     96  C    Isotropic =   167.1272   Anisotropy =     6.4516

     97  H    Isotropic =    30.4412   Anisotropy =     6.4190

     98  H    Isotropic =    29.9807   Anisotropy =     4.9891

     99  H    Isotropic =    30.4831   Anisotropy =     8.7994

 The electronic state is 1-A.
 Alpha  occ. eigenvalues --  -77.29004 -77.28859 -66.25691 -66.25507 -66.25299
 Alpha  occ. eigenvalues --  -66.25298 -66.22562 -19.23491 -19.23457 -19.23440
 Alpha  occ. eigenvalues --  -19.23114 -14.38875 -10.32561 -10.29043 -10.28921
 Alpha  occ. eigenvalues --  -10.28896 -10.28493 -10.27499 -10.27465 -10.27375
 Alpha  occ. eigenvalues --  -10.27241 -10.27035 -10.24350 -10.24331 -10.24312
 Alpha  occ. eigenvalues --  -10.24230 -10.24150 -10.23873 -10.23870 -10.23810
 Alpha  occ. eigenvalues --  -10.23766 -10.23756 -10.23702 -10.23631 -10.22793
 Alpha  occ. eigenvalues --  -10.22687 -10.22685  -6.73915  -6.73739  -5.39172
 Alpha  occ. eigenvalues --   -5.39026  -5.38803  -5.38794  -5.36218  -4.90396
 Alpha  occ. eigenvalues --   -4.90224  -4.90152  -4.89979  -4.89775  -4.89590
 Alpha  occ. eigenvalues --   -3.75347  -3.75188  -3.74974  -3.74965  -3.74928
 Alpha  occ. eigenvalues --   -3.74912  -3.74784  -3.74771  -3.74559  -3.74551
 Alpha  occ. eigenvalues --   -3.74540  -3.74532  -3.72246  -3.72053  -3.72014
 Alpha  occ. eigenvalues --   -3.31248  -2.08229  -2.07400  -2.04724  -1.13241
 Alpha  occ. eigenvalues --   -1.12920  -1.08935  -1.08703  -0.98243  -0.94367
 Alpha  occ. eigenvalues --   -0.89111  -0.87962  -0.85201  -0.81517  -0.81423
 Alpha  occ. eigenvalues --   -0.80859  -0.80734  -0.80302  -0.79501  -0.77813
 Alpha  occ. eigenvalues --   -0.77752  -0.77712  -0.77493  -0.77467  -0.77328
 Alpha  occ. eigenvalues --   -0.77209  -0.77199  -0.77041  -0.76517  -0.76086
 Alpha  occ. eigenvalues --   -0.75970  -0.73265  -0.70535  -0.67821  -0.65791
 Alpha  occ. eigenvalues --   -0.64571  -0.64246  -0.62500  -0.61748  -0.59882
 Alpha  occ. eigenvalues --   -0.58717  -0.57214  -0.56681  -0.56195  -0.54847
 Alpha  occ. eigenvalues --   -0.54533  -0.53650  -0.53229  -0.52715  -0.52653
 Alpha  occ. eigenvalues --   -0.52471  -0.52307  -0.52183  -0.51947  -0.51598
 Alpha  occ. eigenvalues --   -0.51251  -0.51006  -0.50782  -0.50661  -0.50608
 Alpha  occ. eigenvalues --   -0.50393  -0.50087  -0.49886  -0.49858  -0.49682
 Alpha  occ. eigenvalues --   -0.49414  -0.49286  -0.49197  -0.49091  -0.48971
 Alpha  occ. eigenvalues --   -0.48822  -0.48626  -0.48464  -0.48357  -0.48260
 Alpha  occ. eigenvalues --   -0.48163  -0.48098  -0.48038  -0.47945  -0.47897
 Alpha  occ. eigenvalues --   -0.47818  -0.47762  -0.47657  -0.47492  -0.47348
 Alpha  occ. eigenvalues --   -0.46988  -0.46829  -0.46536  -0.46375  -0.45985
 Alpha  occ. eigenvalues --   -0.45981  -0.45775  -0.45517  -0.44898  -0.44596
 Alpha  occ. eigenvalues --   -0.44254  -0.43955  -0.43079  -0.42968  -0.41441
 Alpha  occ. eigenvalues --   -0.40924  -0.39789  -0.39693  -0.39606  -0.39474
 Alpha  occ. eigenvalues --   -0.39217  -0.39017  -0.38892  -0.38715  -0.38634
 Alpha  occ. eigenvalues --   -0.38428  -0.36487  -0.35662  -0.34969  -0.34379
 Alpha  occ. eigenvalues --   -0.33388  -0.30953  -0.30291
 Alpha virt. eigenvalues --   -0.16093  -0.13152  -0.09654  -0.09033  -0.07492
 Alpha virt. eigenvalues --   -0.07084  -0.06989  -0.06702  -0.06254  -0.05165
 Alpha virt. eigenvalues --   -0.04962  -0.04545  -0.04416  -0.04222  -0.03950

 Mulliken charges:
               1
     1  P    0.793364
     2  P    0.720198
     3  C   -0.313229
     4  C   -0.549730
     5  C   -0.537997
     6  C   -0.515993
     7  C   -0.582061
     8  C   -0.587360
     9  C   -0.541356
    10  H    0.150722
    11  H    0.133526
    12  H    0.141865
    13  H    0.145317
    14  H    0.139229
    15  H    0.139608
    16  H    0.143231
    17  H    0.140985
    18  H    0.147455
    19  H    0.156563
    20  H    0.143995
    21  H    0.135783
    22  H    0.134517
    23  H    0.155853
    24  H    0.138511
    25  H    0.147749
    26  H    0.138947
    27  H    0.142607
    28  Rh  -0.584517
    29  C   -0.025532
    30  C   -0.092080
    31  C   -0.057902
    32  C   -0.080325
    33  C   -0.359144
    34  H    0.143412
    35  H    0.185796
    36  C   -0.229419
    37  C   -0.358570
    38  H    0.177662
    39  C   -0.225890
    40  H    0.200389
    41  H    0.169555
    42  H    0.169412
    43  H    0.173023
    44  H    0.137439
    45  H    0.166552
    46  H    0.166698
    47  H    0.131407
    48  H    0.171793
    49  C   -0.521419
    50  H    0.122101
    51  H    0.136960
    52  H    0.149409
    53  C   -0.534146
    54  H    0.123480
    55  H    0.120765
    56  H    0.157259
    57  C   -0.539545
    58  H    0.140951
    59  H    0.141290
    60  H    0.148122
    61  Si   0.742274
    62  Si   0.735013
    63  Si   0.754107
    64  C   -0.593539
    65  H    0.146433
    66  H    0.151437
    67  H    0.153401
    68  C   -0.471050
    69  H    0.147719
    70  H    0.146088
    71  H    0.139080
    72  C   -0.571839
    73  H    0.134152
    74  H    0.144300
    75  H    0.153346
    76  Si   0.722990
    77  O   -0.481681
    78  O   -0.467070
    79  O   -0.488935
    80  O   -0.472141
    81  N   -0.366673
    82  H    0.255597
    83  Si   0.687053
    84  C   -0.568407
    85  H    0.134106
    86  H    0.146049
    87  H    0.131848
    88  C   -0.552204
    89  H    0.133759
    90  H    0.146639
    91  H    0.142008
    92  C   -0.530955
    93  H    0.142444
    94  H    0.129090
    95  H    0.116117
    96  C   -0.434387
    97  H    0.165682
    98  H    0.151505
    99  H    0.159356
 Sum of Mulliken charges =   1.00000

 Dipole moment (field-independent basis, Debye):
    X=              0.3514    Y=             -2.0693    Z=             -0.0275  Tot=              2.0991
 Quadrupole moment (field-independent basis, Debye-Ang):
   XX=           -246.5334   YY=           -258.5033   ZZ=           -266.2634
   XY=             -1.0471   XZ=             -1.7604   YZ=              0.5886

 Summary of Natural Population Analysis:

                                       Natural Population
                Natural  -----------------------------------------------
    Atom  No    Charge         Core      Valence    Rydberg      Total
 -----------------------------------------------------------------------
      P    1    1.76103      9.99594     3.14810    0.09493    13.23897
      P    2    1.72184      9.99612     3.19025    0.09179    13.27816
      C    3   -0.38225      1.99942     4.34962    0.03321     6.38225
      C    4   -1.11206      1.99943     5.10382    0.00881     7.11206
      C    5   -1.10848      1.99944     5.10098    0.00807     7.10848
      C    6   -1.10698      1.99943     5.09949    0.00806     7.10698
      C    7   -1.11243      1.99944     5.10433    0.00867     7.11243
      C    8   -1.11382      1.99944     5.10578    0.00860     7.11382
      C    9   -1.10376      1.99944     5.09619    0.00813     7.10376
      H   10    0.24306      0.00000     0.75605    0.00088     0.75694
      H   11    0.23302      0.00000     0.76579    0.00119     0.76698
      H   12    0.23953      0.00000     0.75907    0.00139     0.76047
      H   13    0.24258      0.00000     0.75660    0.00082     0.75742
      H   14    0.23835      0.00000     0.76075    0.00090     0.76165
      H   15    0.23611      0.00000     0.76286    0.00103     0.76389
      H   16    0.24209      0.00000     0.75708    0.00084     0.75791
      H   17    0.23773      0.00000     0.76127    0.00100     0.76227
      H   18    0.24103      0.00000     0.75798    0.00099     0.75897
      H   19    0.24495      0.00000     0.75418    0.00086     0.75505
      H   20    0.23617      0.00000     0.76266    0.00118     0.76383
      H   21    0.23075      0.00000     0.76815    0.00110     0.76925
      H   22    0.23173      0.00000     0.76716    0.00111     0.76827
      H   23    0.24502      0.00000     0.75411    0.00086     0.75498
      H   24    0.23476      0.00000     0.76420    0.00104     0.76524
      H   25    0.24250      0.00000     0.75668    0.00083     0.75750
      H   26    0.23674      0.00000     0.76217    0.00110     0.76326
      H   27    0.23283      0.00000     0.76604    0.00113     0.76717
     Rh   28   -0.53861     35.98524     9.52381    0.02956    45.53861
      C   29   -0.16773      1.99907     4.14756    0.02110     6.16773
      C   30   -0.17792      1.99908     4.15769    0.02114     6.17792
      C   31   -0.20057      1.99907     4.18071    0.02079     6.20057
      C   32   -0.15139      1.99909     4.13144    0.02087     6.15139
      C   33   -0.42691      1.99936     4.41541    0.01214     6.42691
      H   34    0.21952      0.00000     0.77806    0.00242     0.78048
      H   35    0.22914      0.00000     0.76882    0.00204     0.77086
      C   36   -0.42183      1.99936     4.41004    0.01243     6.42183
      C   37   -0.42275      1.99936     4.41145    0.01194     6.42275
      H   38    0.22171      0.00000     0.77586    0.00243     0.77829
      C   39   -0.42062      1.99935     4.40872    0.01254     6.42062
      H   40    0.23409      0.00000     0.76368    0.00223     0.76591
      H   41    0.22738      0.00000     0.77112    0.00150     0.77262
      H   42    0.21556      0.00000     0.78244    0.00199     0.78444
      H   43    0.23412      0.00000     0.76399    0.00190     0.76588
      H   44    0.21855      0.00000     0.77991    0.00154     0.78145
      H   45    0.21443      0.00000     0.78357    0.00200     0.78557
      H   46    0.22757      0.00000     0.77092    0.00151     0.77243
      H   47    0.21966      0.00000     0.77884    0.00150     0.78034
      H   48    0.23331      0.00000     0.76477    0.00193     0.76669
      C   49   -1.10722      1.99943     5.09910    0.00868     7.10722
      H   50    0.23275      0.00000     0.76602    0.00124     0.76725
      H   51    0.23762      0.00000     0.76117    0.00121     0.76238
      H   52    0.24140      0.00000     0.75772    0.00088     0.75860
      C   53   -1.10451      1.99943     5.09611    0.00898     7.10451
      H   54    0.23383      0.00000     0.76478    0.00139     0.76617
      H   55    0.23517      0.00000     0.76352    0.00131     0.76483
      H   56    0.24242      0.00000     0.75668    0.00090     0.75758
      C   57   -1.10890      1.99944     5.10134    0.00813     7.10890
      H   58    0.23383      0.00000     0.76509    0.00108     0.76617
      H   59    0.23929      0.00000     0.75982    0.00089     0.76071
      H   60    0.24353      0.00000     0.75564    0.00084     0.75647
     Si   61    1.86444      9.99788     2.10408    0.03359    12.13556
     Si   62    1.86117      9.99792     2.10799    0.03292    12.13883
     Si   63    1.86302      9.99793     2.10538    0.03366    12.13698
      C   64   -1.11215      1.99943     5.10425    0.00847     7.11215
      H   65    0.23734      0.00000     0.76158    0.00108     0.76266
      H   66    0.22997      0.00000     0.76889    0.00114     0.77003
      H   67    0.24514      0.00000     0.75401    0.00085     0.75486
      C   68   -1.10640      1.99943     5.09892    0.00805     7.10640
      H   69    0.24060      0.00000     0.75836    0.00104     0.75940
      H   70    0.24197      0.00000     0.75718    0.00085     0.75803
      H   71    0.23822      0.00000     0.76065    0.00113     0.76178
      C   72   -1.11076      1.99943     5.10279    0.00853     7.11076
      H   73    0.22987      0.00000     0.76897    0.00116     0.77013
      H   74    0.23771      0.00000     0.76121    0.00108     0.76229
      H   75    0.24445      0.00000     0.75469    0.00086     0.75555
     Si   76    1.86620      9.99789     2.10263    0.03328    12.13380
      O   77   -1.14889      1.99976     7.13925    0.00987     9.14889
      O   78   -1.13743      1.99977     7.12614    0.01152     9.13743
      O   79   -1.13972      1.99978     7.12904    0.01091     9.13972
      O   80   -1.14346      1.99977     7.13357    0.01012     9.14346
      N   81   -1.02553      1.99948     6.00538    0.02067     8.02553
      H   82    0.40282      0.00000     0.59408    0.00310     0.59718
     Si   83    1.75748      9.99809     2.21341    0.03102    12.24252
      C   84   -1.09985      1.99945     5.09153    0.00888     7.09985
      H   85    0.22981      0.00000     0.76904    0.00115     0.77019
      H   86    0.23930      0.00000     0.75980    0.00090     0.76070
      H   87    0.22769      0.00000     0.77128    0.00102     0.77231
      C   88   -1.09433      1.99945     5.08709    0.00778     7.09433
      H   89    0.22945      0.00000     0.76946    0.00110     0.77055
      H   90    0.24142      0.00000     0.75776    0.00082     0.75858
      H   91    0.23394      0.00000     0.76503    0.00103     0.76606
      C   92   -1.09885      1.99945     5.09021    0.00919     7.09885
      H   93    0.23815      0.00000     0.76092    0.00094     0.76185
      H   94    0.23054      0.00000     0.76822    0.00123     0.76946
      H   95    0.22381      0.00000     0.77487    0.00132     0.77619
      C   96   -0.62714      1.99935     4.61838    0.00941     6.62714
      H   97    0.22067      0.00000     0.77726    0.00207     0.77933
      H   98    0.22839      0.00000     0.77018    0.00143     0.77161
      H   99    0.22297      0.00000     0.77478    0.00224     0.77703
 =======================================================================
   * Total *    1.00000    165.94963   227.22544    0.82493   394.00000

 Normal termination of Gaussian 16 at Mon Jan 20 11:25:41 2025.
