 Gaussian 16, Revision B.01,
 Gaussian 16:  ES64L-G16RevB.01 20-Dec-2017

 ------------------------------------------
 # nmr=giao b3lyp/genecp pop=nbo scfcyc=200
 ------------------------------------------

 ---------
 DS-51_SPE
 ---------
 Symbolic Z-matrix:
 Charge =  1 Multiplicity = 1

                         Standard orientation:
 ---------------------------------------------------------------------
 Center     Atomic      Atomic             Coordinates (Angstroms)
 Number     Number       Type             X           Y           Z
 ---------------------------------------------------------------------
      1         15           0       -1.337710    0.034772   -0.207960
      2         15           0        1.397419    0.029338   -0.086140
      3          6           0        0.069431    1.172240   -0.903190
      4          6           0       -5.143658    1.358008   -1.130730
      5          6           0       -4.863623   -1.725772   -1.157930
      6          6           0       -2.711887    2.528715    3.213640
      7          6           0       -4.081201   -0.210173    2.704350
      8          6           0        4.101471    0.981444    3.050300
      9          6           0        1.654944    2.860338    3.224690
     10          1           0       -6.194199    1.256550   -1.415690
     11          1           0       -5.100048    1.411908   -0.041890
     12          1           0       -4.780357    2.304488   -1.532350
     13          1           0       -5.911693   -1.814530   -1.456210
     14          1           0       -4.336905   -2.589753   -1.567300
     15          1           0       -4.830973   -1.786042   -0.068380
     16          1           0       -3.100077    2.565295    4.234570
     17          1           0       -1.772786    3.083713    3.193530
     18          1           0       -3.426106    3.042116    2.566920
     19          1           0       -4.452661   -0.273463    3.730560
     20          1           0       -4.855470    0.274148    2.106770
     21          1           0       -3.959342   -1.232993    2.341010
     22          1           0        4.779620    0.422873    2.402970
     23          1           0        4.706732    1.664813    3.651570
     24          1           0        3.626010    0.273725    3.732850
     25          1           0        2.185345    3.681487    3.713720
     26          1           0        0.810245    3.281119    2.679810
     27          1           0        1.271703    2.204618    4.008510
     28         45           0        0.012717   -1.800840    0.256690
     29          6           0        1.533974   -3.538272    0.073410
     30          6           0        1.406875   -3.192342    1.397330
     31          6           0       -1.484616   -3.411487    0.929470
     32          6           0       -1.355896   -3.463728   -0.440520
     33          6           0        0.879332   -4.730071   -0.596830
     34          1           0        2.346915   -3.082653   -0.477710
     35          1           0        2.139556   -2.503353    1.806040
     36          6           0        0.549673   -3.881160    2.429940
     37          6           0       -0.829897   -4.357138    1.919320
     38          1           0       -2.313545   -2.830716    1.318710
     39          6           0       -0.491067   -4.411679   -1.233760
     40          1           0       -2.101865   -2.942156   -1.028430
     41          1           0        1.544782   -5.095972   -1.380780
     42          1           0        0.785041   -5.546351    0.118780
     43          1           0        1.098112   -4.732801    2.851500
     44          1           0        0.405025   -3.184700    3.258030
     45          1           0       -0.747589   -5.349698    1.477070
     46          1           0       -1.491747   -4.469497    2.779700
     47          1           0       -0.332487   -3.968699   -2.219140
     48          1           0       -1.039379   -5.345788   -1.410340
     49          6           0        3.613124    3.087545    0.813540
     50          1           0        4.307853    2.552764    0.165140
     51          1           0        2.864615    3.569286    0.183970
     52          1           0        4.176165    3.869924    1.328960
     53          6           0       -1.149781   -0.133508    3.685360
     54          1           0       -1.016222   -1.161008    3.342320
     55          1           0       -0.186410    0.371341    3.612410
     56          1           0       -1.441321   -0.163707    4.738360
     57          6           0       -4.080641   -0.081273   -3.674260
     58          1           0       -3.634059    0.843726   -4.044380
     59          1           0       -3.494242   -0.918744   -4.057600
     60          1           0       -5.084761   -0.157232   -4.099020
     61         14           0       -2.461839    0.751044    2.672630
     62         14           0       -4.165361   -0.099483   -1.798900
     63         14           0        2.814972    1.941206    2.070380
     64          6           0        5.134687   -1.337008   -0.369170
     65          1           0        5.423189   -0.604748    0.386680
     66          1           0        4.599266   -2.147407    0.130200
     67          1           0        6.054037   -1.759829   -0.782540
     68          6           0        5.001991    0.915863   -2.517700
     69          1           0        5.302132    1.653732   -1.772170
     70          1           0        5.904760    0.580531   -3.034780
     71          1           0        4.365902    1.415564   -3.251100
     72          6           0        3.663887   -1.815145   -3.060490
     73          1           0        3.063505   -2.636384   -2.665120
     74          1           0        3.111627   -1.357064   -3.882840
     75          1           0        4.576286   -2.248457   -3.478890
     76         14           0        4.121399   -0.549516   -1.744900
     77          8           0        2.677950    0.088536   -1.068440
     78          8           0        1.862161    0.756787    1.264560
     79          8           0       -1.927579    0.863403    1.043140
     80          8           0       -2.530360    0.038504   -1.289340
     81         14           0       -0.411884    4.002591   -0.952380
     82          6           0       -2.222844    3.946204   -1.470320
     83          1           0       -2.844565    3.555735   -0.663300
     84          1           0       -2.567763    4.958154   -1.699010
     85          1           0       -2.390085    3.336234   -2.359640
     86          6           0       -0.203313    5.115061    0.547140
     87          1           0        0.834997    5.162119    0.879190
     88          1           0       -0.515261    6.132601    0.298290
     89          1           0       -0.816473    4.776112    1.383770
     90          6           0        0.672207    4.616799   -2.369450
     91          1           0        0.457878    5.672180   -2.559050
     92          1           0        1.733726    4.537918   -2.124660
     93          1           0        0.497816    4.075560   -3.300510
     94          6           0        0.148761    1.136150   -2.444170
     95          1           0        1.071832    1.657149   -2.707490
     96          1           0       -0.676528    1.750471   -2.812230
     97          8           0        0.113033    2.465930   -0.403710
     98          6           0        0.104339   -0.208680   -3.177250
     99          1           0        0.235089   -0.030520   -4.246600
    100          1           0        0.895178   -0.884671   -2.859300
    101          1           0       -0.849182   -0.715548   -3.044630
 ---------------------------------------------------------------------

 SCF Done:  E(RB3LYP) =  -3645.99234345     A.U. after   17 cycles

      1  P    Isotropic =   165.7142   Anisotropy =   179.7402

      2  P    Isotropic =   169.5896   Anisotropy =   178.5837

      3  C    Isotropic =    43.8742   Anisotropy =    68.9702

      4  C    Isotropic =   181.4244   Anisotropy =    11.1636

      5  C    Isotropic =   181.5960   Anisotropy =    12.4758

      6  C    Isotropic =   182.2343   Anisotropy =    12.6094

      7  C    Isotropic =   180.4800   Anisotropy =    12.6207

      8  C    Isotropic =   180.8773   Anisotropy =    15.1108

      9  C    Isotropic =   181.0194   Anisotropy =    11.3289

     10  H    Isotropic =    31.7458   Anisotropy =    11.8850

     11  H    Isotropic =    31.5687   Anisotropy =     7.6256

     12  H    Isotropic =    31.2403   Anisotropy =     8.1381

     13  H    Isotropic =    31.6921   Anisotropy =    11.9528

     14  H    Isotropic =    31.6482   Anisotropy =     6.9946

     15  H    Isotropic =    31.7209   Anisotropy =     7.1266

     16  H    Isotropic =    31.6916   Anisotropy =    11.6806

     17  H    Isotropic =    31.2905   Anisotropy =     8.5290

     18  H    Isotropic =    31.3867   Anisotropy =     7.3834

     19  H    Isotropic =    31.5490   Anisotropy =    11.4520

     20  H    Isotropic =    31.3847   Anisotropy =     7.8965

     21  H    Isotropic =    31.7664   Anisotropy =     6.3897

     22  H    Isotropic =    31.5560   Anisotropy =     8.3422

     23  H    Isotropic =    31.6511   Anisotropy =    11.6810

     24  H    Isotropic =    31.4295   Anisotropy =     7.0997

     25  H    Isotropic =    31.7215   Anisotropy =    11.1185

     26  H    Isotropic =    31.2146   Anisotropy =     9.1915

     27  H    Isotropic =    31.3885   Anisotropy =     7.0139

     28  Rh   Isotropic =  -292.5144   Anisotropy =   321.3879

     29  C    Isotropic =    76.0404   Anisotropy =   125.4905

     30  C    Isotropic =    74.6659   Anisotropy =   121.4875

     31  C    Isotropic =    83.0123   Anisotropy =   115.1658

     32  C    Isotropic =    72.9531   Anisotropy =   122.7637

     33  C    Isotropic =   154.2382   Anisotropy =    24.0556

     34  H    Isotropic =    26.8917   Anisotropy =     7.5075

     35  H    Isotropic =    26.2545   Anisotropy =     4.0391

     36  C    Isotropic =   147.8544   Anisotropy =    27.0554

     37  C    Isotropic =   154.2497   Anisotropy =    23.7331

     38  H    Isotropic =    27.2763   Anisotropy =     6.1214

     39  C    Isotropic =   147.6430   Anisotropy =    28.6328

     40  H    Isotropic =    26.2892   Anisotropy =     6.0935

     41  H    Isotropic =    29.9234   Anisotropy =    10.7332

     42  H    Isotropic =    29.8038   Anisotropy =     9.5423

     43  H    Isotropic =    29.1809   Anisotropy =    12.6189

     44  H    Isotropic =    29.2522   Anisotropy =     6.8671

     45  H    Isotropic =    29.8128   Anisotropy =     9.8414

     46  H    Isotropic =    29.9001   Anisotropy =    10.8338

     47  H    Isotropic =    29.2981   Anisotropy =     6.2563

     48  H    Isotropic =    29.1788   Anisotropy =    12.4497

     49  C    Isotropic =   181.9568   Anisotropy =     9.7953

     50  H    Isotropic =    31.5218   Anisotropy =     9.1162

     51  H    Isotropic =    31.3430   Anisotropy =     8.8337

     52  H    Isotropic =    31.6795   Anisotropy =    11.5428

     53  C    Isotropic =   180.7843   Anisotropy =     9.4840

     54  H    Isotropic =    31.0097   Anisotropy =    10.1092

     55  H    Isotropic =    31.1515   Anisotropy =     9.7414

     56  H    Isotropic =    31.5928   Anisotropy =    11.2016

     57  C    Isotropic =   182.4088   Anisotropy =    13.7491

     58  H    Isotropic =    31.4800   Anisotropy =     7.0131

     59  H    Isotropic =    31.5083   Anisotropy =     6.9798

     60  H    Isotropic =    31.7286   Anisotropy =    12.0066

     61  Si   Isotropic =   314.7365   Anisotropy =    29.3123

     62  Si   Isotropic =   315.2728   Anisotropy =    31.7703

     63  Si   Isotropic =   313.2451   Anisotropy =    31.9003

     64  C    Isotropic =   181.7055   Anisotropy =    11.7896

     65  H    Isotropic =    31.4356   Anisotropy =     8.2275

     66  H    Isotropic =    31.8080   Anisotropy =     7.2272

     67  H    Isotropic =    31.6609   Anisotropy =    11.9063

     68  C    Isotropic =   181.9903   Anisotropy =    13.8430

     69  H    Isotropic =    31.4345   Anisotropy =     7.7918

     70  H    Isotropic =    31.7198   Anisotropy =    11.9234

     71  H    Isotropic =    31.4357   Anisotropy =     7.1421

     72  C    Isotropic =   181.4824   Anisotropy =    10.0596

     73  H    Isotropic =    31.6241   Anisotropy =     8.4404

     74  H    Isotropic =    31.3440   Anisotropy =     6.7662

     75  H    Isotropic =    31.7130   Anisotropy =    11.7571

     76  Si   Isotropic =   315.5593   Anisotropy =    33.9198

     77  O    Isotropic =   197.4185   Anisotropy =   111.0861

     78  O    Isotropic =   192.7294   Anisotropy =   136.8652

     79  O    Isotropic =   179.9106   Anisotropy =   126.1100

     80  O    Isotropic =   197.9578   Anisotropy =   115.6462

     81  Si   Isotropic =   321.7070   Anisotropy =    38.3276

     82  C    Isotropic =   180.8614   Anisotropy =    12.6676

     83  H    Isotropic =    31.5103   Anisotropy =     7.3837

     84  H    Isotropic =    31.6535   Anisotropy =    11.4243

     85  H    Isotropic =    31.7499   Anisotropy =     6.2901

     86  C    Isotropic =   181.6401   Anisotropy =    10.7084

     87  H    Isotropic =    31.4976   Anisotropy =     7.4062

     88  H    Isotropic =    31.8145   Anisotropy =    11.8064

     89  H    Isotropic =    31.4575   Anisotropy =     7.5638

     90  C    Isotropic =   179.9102   Anisotropy =    15.0855

     91  H    Isotropic =    31.7124   Anisotropy =    11.9421

     92  H    Isotropic =    31.5180   Anisotropy =     6.9488

     93  H    Isotropic =    31.6680   Anisotropy =     5.8379

     94  C    Isotropic =   149.3248   Anisotropy =    17.7231

     95  H    Isotropic =    29.8240   Anisotropy =     5.2031

     96  H    Isotropic =    29.9268   Anisotropy =     6.7743

     97  O    Isotropic =   209.8269   Anisotropy =    81.6186

     98  C    Isotropic =   171.4827   Anisotropy =     9.5925

     99  H    Isotropic =    30.6841   Anisotropy =    10.3559

    100  H    Isotropic =    30.3685   Anisotropy =     7.9833

    101  H    Isotropic =    30.3574   Anisotropy =     6.9306

 The electronic state is 1-A.
 Alpha  occ. eigenvalues --  -77.29191 -77.29185 -66.25693 -66.25479 -66.25331
 Alpha  occ. eigenvalues --  -66.24964 -66.24045 -19.23441 -19.23283 -19.23278
 Alpha  occ. eigenvalues --  -19.22982 -19.21731 -10.34642 -10.29055 -10.29020
 Alpha  occ. eigenvalues --  -10.28946 -10.28646 -10.27554 -10.27487 -10.27442
 Alpha  occ. eigenvalues --  -10.27403 -10.27313 -10.25330 -10.24287 -10.24226
 Alpha  occ. eigenvalues --  -10.24191 -10.24105 -10.23889 -10.23817 -10.23734
 Alpha  occ. eigenvalues --  -10.23698 -10.23629 -10.23556 -10.23408 -10.23324
 Alpha  occ. eigenvalues --  -10.23273 -10.23007 -10.22913  -6.74049  -6.74032
 Alpha  occ. eigenvalues --   -5.39171  -5.38951  -5.38835  -5.38452  -5.37571
 Alpha  occ. eigenvalues --   -4.90533  -4.90520  -4.90295  -4.90286  -4.89911
 Alpha  occ. eigenvalues --   -4.89885  -3.75346  -3.75130  -3.75000  -3.74927
 Alpha  occ. eigenvalues --   -3.74912  -3.74702  -3.74690  -3.74624  -3.74595
 Alpha  occ. eigenvalues --   -3.74577  -3.74201  -3.74196  -3.73691  -3.73352
 Alpha  occ. eigenvalues --   -3.73339  -3.31269  -2.08263  -2.07439  -2.04707
 Alpha  occ. eigenvalues --   -1.13401  -1.12924  -1.10721  -1.08770  -1.08688
 Alpha  occ. eigenvalues --   -0.94436  -0.89198  -0.88249  -0.88013  -0.82123
 Alpha  occ. eigenvalues --   -0.81398  -0.80769  -0.80703  -0.80364  -0.80313
 Alpha  occ. eigenvalues --   -0.78882  -0.77871  -0.77680  -0.77523  -0.77392
 Alpha  occ. eigenvalues --   -0.77379  -0.77216  -0.77142  -0.76955  -0.76817
 Alpha  occ. eigenvalues --   -0.76559  -0.76346  -0.73611  -0.73453  -0.70595
 Alpha  occ. eigenvalues --   -0.68309  -0.65875  -0.64766  -0.64284  -0.62606
 Alpha  occ. eigenvalues --   -0.62482  -0.59993  -0.58084  -0.57250  -0.56363
 Alpha  occ. eigenvalues --   -0.56127  -0.54648  -0.54113  -0.53702  -0.53314
 Alpha  occ. eigenvalues --   -0.52908  -0.52693  -0.52514  -0.52436  -0.52241
 Alpha  occ. eigenvalues --   -0.52026  -0.51746  -0.51565  -0.51152  -0.50999
 Alpha  occ. eigenvalues --   -0.50757  -0.50496  -0.50460  -0.50367  -0.50088
 Alpha  occ. eigenvalues --   -0.49958  -0.49776  -0.49653  -0.49437  -0.49292
 Alpha  occ. eigenvalues --   -0.49175  -0.49015  -0.48747  -0.48602  -0.48445
 Alpha  occ. eigenvalues --   -0.48333  -0.48207  -0.48173  -0.48115  -0.48043
 Alpha  occ. eigenvalues --   -0.47979  -0.47873  -0.47742  -0.47670  -0.47625
 Alpha  occ. eigenvalues --   -0.47418  -0.47371  -0.47057  -0.46950  -0.46815
 Alpha  occ. eigenvalues --   -0.46698  -0.46237  -0.46022  -0.45952  -0.45563
 Alpha  occ. eigenvalues --   -0.45537  -0.45157  -0.44367  -0.44054  -0.43665
 Alpha  occ. eigenvalues --   -0.43523  -0.43221  -0.42944  -0.42242  -0.40472
 Alpha  occ. eigenvalues --   -0.40104  -0.39564  -0.39504  -0.39364  -0.39289
 Alpha  occ. eigenvalues --   -0.39027  -0.38628  -0.38484  -0.38275  -0.37874
 Alpha  occ. eigenvalues --   -0.37317  -0.35169  -0.34907  -0.34568  -0.33417
 Alpha  occ. eigenvalues --   -0.33298  -0.30163
 Alpha virt. eigenvalues --   -0.16231  -0.13156  -0.09555  -0.09003  -0.07542
 Alpha virt. eigenvalues --   -0.07186  -0.07023  -0.06507  -0.06238  -0.04970
 Alpha virt. eigenvalues --   -0.04852  -0.04367  -0.04346  -0.03976  -0.03754

 Mulliken charges:
               1
     1  P    0.717571
     2  P    0.690280
     3  C   -0.175921
     4  C   -0.544662
     5  C   -0.573883
     6  C   -0.515896
     7  C   -0.580471
     8  C   -0.535772
     9  C   -0.556710
    10  H    0.147618
    11  H    0.127973
    12  H    0.153289
    13  H    0.155200
    14  H    0.141056
    15  H    0.138311
    16  H    0.145360
    17  H    0.139484
    18  H    0.143343
    19  H    0.155337
    20  H    0.145757
    21  H    0.125215
    22  H    0.128483
    23  H    0.143955
    24  H    0.137906
    25  H    0.147433
    26  H    0.139301
    27  H    0.142278
    28  Rh  -0.596236
    29  C   -0.005271
    30  C   -0.074109
    31  C   -0.038935
    32  C   -0.043511
    33  C   -0.366729
    34  H    0.150764
    35  H    0.177657
    36  C   -0.241229
    37  C   -0.359124
    38  H    0.168669
    39  C   -0.229425
    40  H    0.157423
    41  H    0.169808
    42  H    0.170357
    43  H    0.174035
    44  H    0.144367
    45  H    0.167613
    46  H    0.167116
    47  H    0.137203
    48  H    0.172865
    49  C   -0.547616
    50  H    0.119032
    51  H    0.137485
    52  H    0.149293
    53  C   -0.546536
    54  H    0.118663
    55  H    0.137281
    56  H    0.155849
    57  C   -0.525609
    58  H    0.139528
    59  H    0.137103
    60  H    0.146180
    61  Si   0.761545
    62  Si   0.741009
    63  Si   0.767229
    64  C   -0.586991
    65  H    0.135456
    66  H    0.146731
    67  H    0.153484
    68  C   -0.477612
    69  H    0.147590
    70  H    0.147026
    71  H    0.143655
    72  C   -0.589371
    73  H    0.143061
    74  H    0.150186
    75  H    0.157454
    76  Si   0.734161
    77  O   -0.472940
    78  O   -0.446532
    79  O   -0.465524
    80  O   -0.463733
    81  Si   0.741959
    82  C   -0.569972
    83  H    0.146046
    84  H    0.149767
    85  H    0.134005
    86  C   -0.531824
    87  H    0.145938
    88  H    0.148309
    89  H    0.136930
    90  C   -0.576769
    91  H    0.145266
    92  H    0.143480
    93  H    0.137405
    94  C   -0.207176
    95  H    0.163813
    96  H    0.138796
    97  O   -0.364898
    98  C   -0.462808
    99  H    0.148294
   100  H    0.152365
   101  H    0.149394
 Sum of Mulliken charges =   1.00000

 Dipole moment (field-independent basis, Debye):
    X=             -0.0380    Y=             -2.0899    Z=             -0.2877  Tot=              2.1099
 Quadrupole moment (field-independent basis, Debye-Ang):
   XX=           -250.0482   YY=           -259.7150   ZZ=           -274.9073
   XY=             -0.6733   XZ=             -1.5756   YZ=             -0.1133

 Summary of Natural Population Analysis:

                                       Natural Population
                Natural  -----------------------------------------------
    Atom  No    Charge         Core      Valence    Rydberg      Total
 -----------------------------------------------------------------------
      P    1    1.72978      9.99605     3.17887    0.09529    13.27022
      P    2    1.74579      9.99603     3.16262    0.09555    13.25421
      C    3   -0.24041      1.99930     4.20439    0.03672     6.24041
      C    4   -1.11039      1.99943     5.10250    0.00846     7.11039
      C    5   -1.11339      1.99944     5.10538    0.00857     7.11339
      C    6   -1.10549      1.99943     5.09795    0.00811     7.10549
      C    7   -1.11009      1.99944     5.10202    0.00863     7.11009
      C    8   -1.10745      1.99944     5.09985    0.00816     7.10745
      C    9   -1.10932      1.99943     5.10144    0.00845     7.10932
      H   10    0.24236      0.00000     0.75677    0.00087     0.75764
      H   11    0.23281      0.00000     0.76600    0.00119     0.76719
      H   12    0.24199      0.00000     0.75705    0.00096     0.75801
      H   13    0.24606      0.00000     0.75309    0.00085     0.75394
      H   14    0.23220      0.00000     0.76677    0.00102     0.76780
      H   15    0.23367      0.00000     0.76524    0.00110     0.76633
      H   16    0.24107      0.00000     0.75809    0.00084     0.75893
      H   17    0.23821      0.00000     0.76060    0.00119     0.76179
      H   18    0.23948      0.00000     0.75954    0.00098     0.76052
      H   19    0.24468      0.00000     0.75445    0.00087     0.75532
      H   20    0.23569      0.00000     0.76316    0.00115     0.76431
      H   21    0.22601      0.00000     0.77286    0.00113     0.77399
      H   22    0.23026      0.00000     0.76858    0.00116     0.76974
      H   23    0.24130      0.00000     0.75786    0.00084     0.75870
      H   24    0.23707      0.00000     0.76202    0.00091     0.76293
      H   25    0.24091      0.00000     0.75823    0.00086     0.75909
      H   26    0.24054      0.00000     0.75831    0.00114     0.75946
      H   27    0.23356      0.00000     0.76535    0.00109     0.76644
     Rh   28   -0.51785     35.98560     9.50441    0.02784    45.51785
      C   29   -0.17485      1.99907     4.15456    0.02121     6.17485
      C   30   -0.17067      1.99909     4.15058    0.02100     6.17067
      C   31   -0.19806      1.99908     4.17809    0.02089     6.19806
      C   32   -0.15629      1.99909     4.13602    0.02118     6.15629
      C   33   -0.42538      1.99936     4.41393    0.01209     6.42538
      H   34    0.21952      0.00000     0.77808    0.00240     0.78048
      H   35    0.23079      0.00000     0.76714    0.00207     0.76921
      C   36   -0.42057      1.99935     4.40843    0.01278     6.42057
      C   37   -0.42300      1.99936     4.41167    0.01197     6.42300
      H   38    0.22170      0.00000     0.77592    0.00239     0.77830
      C   39   -0.41928      1.99935     4.40709    0.01284     6.41928
      H   40    0.22665      0.00000     0.77107    0.00228     0.77335
      H   41    0.22749      0.00000     0.77101    0.00150     0.77251
      H   42    0.21560      0.00000     0.78240    0.00200     0.78440
      H   43    0.23443      0.00000     0.76369    0.00188     0.76557
      H   44    0.21747      0.00000     0.78082    0.00172     0.78253
      H   45    0.21488      0.00000     0.78309    0.00202     0.78512
      H   46    0.22788      0.00000     0.77061    0.00151     0.77212
      H   47    0.21779      0.00000     0.78060    0.00161     0.78221
      H   48    0.23323      0.00000     0.76483    0.00194     0.76677
      C   49   -1.11054      1.99943     5.10222    0.00889     7.11054
      H   50    0.23163      0.00000     0.76715    0.00122     0.76837
      H   51    0.23779      0.00000     0.76104    0.00118     0.76221
      H   52    0.24141      0.00000     0.75768    0.00091     0.75859
      C   53   -1.10485      1.99943     5.09649    0.00893     7.10485
      H   54    0.23246      0.00000     0.76617    0.00137     0.76754
      H   55    0.24066      0.00000     0.75816    0.00118     0.75934
      H   56    0.24152      0.00000     0.75757    0.00091     0.75848
      C   57   -1.10698      1.99944     5.09951    0.00803     7.10698
      H   58    0.23764      0.00000     0.76140    0.00096     0.76236
      H   59    0.23650      0.00000     0.76251    0.00099     0.76350
      H   60    0.24281      0.00000     0.75636    0.00082     0.75719
     Si   61    1.86668      9.99783     2.10224    0.03325    12.13332
     Si   62    1.86736      9.99787     2.10219    0.03258    12.13264
     Si   63    1.87134      9.99789     2.09798    0.03278    12.12866
      C   64   -1.11184      1.99943     5.10395    0.00846     7.11184
      H   65    0.23515      0.00000     0.76364    0.00121     0.76485
      H   66    0.23189      0.00000     0.76698    0.00114     0.76811
      H   67    0.24544      0.00000     0.75370    0.00085     0.75456
      C   68   -1.10586      1.99943     5.09841    0.00802     7.10586
      H   69    0.23658      0.00000     0.76230    0.00112     0.76342
      H   70    0.24255      0.00000     0.75660    0.00085     0.75745
      H   71    0.24017      0.00000     0.75892    0.00091     0.75983
      C   72   -1.11142      1.99943     5.10335    0.00864     7.11142
      H   73    0.22848      0.00000     0.77036    0.00116     0.77152
      H   74    0.24027      0.00000     0.75867    0.00106     0.75973
      H   75    0.24463      0.00000     0.75450    0.00086     0.75537
     Si   76    1.86715      9.99787     2.10211    0.03286    12.13285
      O   77   -1.14941      1.99976     7.13974    0.00991     9.14941
      O   78   -1.13397      1.99976     7.12341    0.01079     9.13397
      O   79   -1.12826      1.99977     7.11744    0.01105     9.12826
      O   80   -1.15110      1.99976     7.14122    0.01012     9.15110
     Si   81    1.85684      9.99787     2.10822    0.03707    12.14316
      C   82   -1.12231      1.99944     5.11284    0.01003     7.12231
      H   83    0.23749      0.00000     0.76133    0.00118     0.76251
      H   84    0.24249      0.00000     0.75656    0.00095     0.75751
      H   85    0.22737      0.00000     0.77139    0.00124     0.77263
      C   86   -1.10839      1.99944     5.10001    0.00894     7.10839
      H   87    0.23497      0.00000     0.76401    0.00102     0.76503
      H   88    0.23989      0.00000     0.75920    0.00091     0.76011
      H   89    0.23446      0.00000     0.76437    0.00116     0.76554
      C   90   -1.11863      1.99944     5.10964    0.00955     7.11863
      H   91    0.24126      0.00000     0.75782    0.00092     0.75874
      H   92    0.23516      0.00000     0.76373    0.00111     0.76484
      H   93    0.23241      0.00000     0.76659    0.00100     0.76759
      C   94   -0.43338      1.99935     4.42161    0.01243     6.43338
      H   95    0.21970      0.00000     0.77782    0.00248     0.78030
      H   96    0.21155      0.00000     0.78606    0.00239     0.78845
      O   97   -0.86085      1.99974     6.84474    0.01637     8.86085
      C   98   -0.59474      1.99943     4.58863    0.00668     6.59474
      H   99    0.21852      0.00000     0.78024    0.00124     0.78148
      H  100    0.20874      0.00000     0.78971    0.00155     0.79126
      H  101    0.21318      0.00000     0.78523    0.00159     0.78682
 =======================================================================
   * Total *    1.00000    167.94916   233.20678    0.84406   402.00000

 Normal termination of Gaussian 16 at Thu Jan 30 11:06:43 2025.
