 Gaussian 16, Revision B.01,
 Gaussian 16:  ES64L-G16RevB.01 20-Dec-2017

 ------------------------------------------
 # nmr=giao b3lyp/genecp pop=nbo scfcyc=200
 ------------------------------------------

 ---------
 DS-56_SPE
 ---------
 Symbolic Z-matrix:
 Charge =  1 Multiplicity = 1

                         Standard orientation:
 ---------------------------------------------------------------------
 Center     Atomic      Atomic             Coordinates (Angstroms)
 Number     Number       Type             X           Y           Z
 ---------------------------------------------------------------------
      1         15           0        1.438701    0.056520    0.113670
      2         15           0       -1.301589    0.139799    0.169130
      3          6           0        0.047031   -1.271401   -0.241640
      4          6           0        5.587371    0.003193   -0.875390
      5          6           0        3.907151   -0.798608   -3.353820
      6          6           0        4.128982   -1.475958    3.069060
      7          6           0        3.849160    1.591852    2.615390
      8          6           0       -3.674090    1.695247    2.685190
      9          6           0       -2.077869   -0.218402    4.519350
     10          1           0        6.497941   -0.378777   -1.344290
     11          1           0        5.508680    1.063263   -1.126130
     12          1           0        5.715471   -0.083907    0.205110
     13          1           0        4.756581   -1.264918   -3.859670
     14          1           0        2.996531   -1.285059   -3.705800
     15          1           0        3.874751    0.249602   -3.658290
     16          1           0        4.748521   -1.369628    3.963260
     17          1           0        3.589732   -2.421928    3.150910
     18          1           0        4.798942   -1.540968    2.210230
     19          1           0        4.585110    1.757812    3.406450
     20          1           0        4.385760    1.589552    1.665010
     21          1           0        3.162619    2.440301    2.626060
     22          1           0       -4.072420    1.872967    1.684660
     23          1           0       -4.499490    1.819217    3.390980
     24          1           0       -2.936491    2.467818    2.910770
     25          1           0       -2.805549   -0.135122    5.330780
     26          1           0       -1.589169   -1.189672    4.611870
     27          1           0       -1.324160    0.556249    4.667140
     28         45           0        0.146290    1.955630   -0.081430
     29          6           0       -1.281081    3.571649   -0.933940
     30          6           0       -1.154662    3.761769    0.420070
     31          6           0        1.733819    3.621000   -0.075810
     32          6           0        1.590159    3.143450   -1.360000
     33          6           0       -0.576412    4.369499   -2.013600
     34          1           0       -2.121681    2.976838   -1.266210
     35          1           0       -1.922231    3.327958    1.051160
     36          6           0       -0.241132    4.736379    1.120110
     37          6           0        1.145718    4.911290    0.462710
     38          1           0        2.533439    3.190941    0.515560
     39          6           0        0.769808    3.761350   -2.464980
     40          1           0        2.297499    2.391391   -1.691880
     41          1           0       -1.234342    4.429999   -2.882400
     42          1           0       -0.434283    5.395339   -1.675080
     43          1           0       -0.737043    5.711759    1.201870
     44          1           0       -0.107442    4.386429    2.146400
     45          1           0        1.097557    5.655410   -0.331950
     46          1           0        1.829328    5.318371    1.209790
     47          1           0        0.581299    2.986270   -3.210560
     48          1           0        1.365098    4.528180   -2.976790
     49          6           0       -4.263619   -1.349743    2.636450
     50          1           0       -4.727949   -1.290933    1.651560
     51          1           0       -3.855498   -2.353893    2.760450
     52          1           0       -5.051199   -1.218534    3.383170
     53          6           0        1.839841    0.103681    4.442930
     54          1           0        1.132620    0.928930    4.343920
     55          1           0        1.271611   -0.813390    4.607110
     56          1           0        2.443661    0.285441    5.335640
     57          6           0        4.141182   -2.747908   -0.926460
     58          1           0        4.141772   -2.828588    0.161690
     59          1           0        3.289243   -3.310219   -1.309230
     60          1           0        5.051603   -3.227428   -1.295990
     61         14           0        2.942471   -0.026079    2.931230
     62         14           0        4.094191   -0.958458   -1.495260
     63         14           0       -2.944089   -0.031572    2.865440
     64          6           0       -5.496500    0.374266   -0.945400
     65          1           0       -5.758059   -0.407254   -0.230400
     66          1           0       -5.440020    1.324066   -0.409680
     67          1           0       -6.319140    0.450716   -1.661500
     68          6           0       -3.977758   -1.687223   -2.700050
     69          1           0       -4.235478   -2.478283   -1.995140
     70          1           0       -4.747488   -1.668903   -3.476420
     71          1           0       -3.029648   -1.944412   -3.174260
     72          6           0       -3.541920    1.348077   -3.116170
     73          1           0       -3.646441    2.346177   -2.687320
     74          1           0       -2.548600    1.259068   -3.557630
     75          1           0       -4.267980    1.272067   -3.930310
     76         14           0       -3.900809   -0.011753   -1.861650
     77          8           0       -2.657729   -0.057462   -0.680070
     78          8           0       -1.728649   -0.268992    1.672660
     79          8           0        1.897751   -0.375779    1.607020
     80          8           0        2.717301   -0.174579   -0.818150
     81          7           0        0.117292   -2.377241    0.645610
     82          1           0        0.506502   -2.072590    1.529610
     83          6           0        0.075042   -1.611691   -1.724690
     84          6           0        0.494312   -2.875190   -2.148920
     85          6           0       -0.235249   -0.668141   -2.714890
     86          1           0        0.792533   -3.606300   -1.415720
     87          6           0       -0.161809   -0.988671   -4.064740
     88          1           0       -0.523520    0.337249   -2.436710
     89          6           0        0.219872   -2.264540   -4.467220
     90          1           0       -0.407909   -0.238781   -4.806770
     91          1           0        0.264862   -2.517720   -5.518840
     92         14           0       -0.776247   -3.913961    0.874570
     93          6           0        0.210304   -5.428310    0.303690
     94          1           0        1.259304   -5.358800    0.600960
     95          1           0       -0.204996   -6.320641    0.780410
     96          1           0        0.170444   -5.595140   -0.773650
     97          6           0       -2.447327   -3.896202    0.006010
     98          1           0       -2.331207   -3.844232   -1.077330
     99          1           0       -2.987186   -4.818722    0.235170
    100          1           0       -3.063928   -3.056052    0.326180
    101          6           0       -0.952607   -4.056191    2.752100
    102          1           0       -1.460706   -4.986051    3.017940
    103          1           0        0.025363   -4.075141    3.241040
    104          1           0       -1.524387   -3.229091    3.174020
    105          6           0        0.553193   -3.204130   -3.499840
    106          1           0        0.868453   -4.198060   -3.793270
 ---------------------------------------------------------------------

 SCF Done:  E(RB3LYP) =  -3778.56525713     A.U. after   18 cycles

      1  P    Isotropic =   173.1550   Anisotropy =   207.1716

      2  P    Isotropic =   161.5137   Anisotropy =   168.7838

      3  C    Isotropic =    43.8652   Anisotropy =    97.6218

      4  C    Isotropic =   181.2990   Anisotropy =    14.0691

      5  C    Isotropic =   183.6331   Anisotropy =    12.1145

      6  C    Isotropic =   181.6148   Anisotropy =    12.5250

      7  C    Isotropic =   182.2820   Anisotropy =    10.0215

      8  C    Isotropic =   181.7920   Anisotropy =    10.8355

      9  C    Isotropic =   180.8441   Anisotropy =    12.3396

     10  H    Isotropic =    31.8855   Anisotropy =    12.1789

     11  H    Isotropic =    31.7952   Anisotropy =     6.7221

     12  H    Isotropic =    31.7774   Anisotropy =     7.3532

     13  H    Isotropic =    32.3903   Anisotropy =    12.2500

     14  H    Isotropic =    33.2572   Anisotropy =    13.7033

     15  H    Isotropic =    32.2589   Anisotropy =     6.9531

     16  H    Isotropic =    31.6648   Anisotropy =    12.0189

     17  H    Isotropic =    31.3639   Anisotropy =     6.9396

     18  H    Isotropic =    31.5390   Anisotropy =     7.7640

     19  H    Isotropic =    31.5937   Anisotropy =    11.8496

     20  H    Isotropic =    31.6559   Anisotropy =     7.2418

     21  H    Isotropic =    31.5400   Anisotropy =     7.8599

     22  H    Isotropic =    31.6449   Anisotropy =     7.1560

     23  H    Isotropic =    31.5860   Anisotropy =    11.6745

     24  H    Isotropic =    31.5207   Anisotropy =     7.1995

     25  H    Isotropic =    31.6419   Anisotropy =    11.5647

     26  H    Isotropic =    31.2816   Anisotropy =     7.0129

     27  H    Isotropic =    31.4290   Anisotropy =     8.0373

     28  Rh   Isotropic =  -294.4183   Anisotropy =   316.9010

     29  C    Isotropic =    74.2419   Anisotropy =   128.7543

     30  C    Isotropic =    74.6023   Anisotropy =   120.9447

     31  C    Isotropic =    83.2318   Anisotropy =   115.7305

     32  C    Isotropic =    71.1020   Anisotropy =   126.4715

     33  C    Isotropic =   154.0247   Anisotropy =    24.1414

     34  H    Isotropic =    26.6430   Anisotropy =     7.7087

     35  H    Isotropic =    26.2013   Anisotropy =     5.7229

     36  C    Isotropic =   148.3893   Anisotropy =    28.5313

     37  C    Isotropic =   154.8245   Anisotropy =    23.2125

     38  H    Isotropic =    27.3128   Anisotropy =     7.4315

     39  C    Isotropic =   147.1915   Anisotropy =    28.1499

     40  H    Isotropic =    26.2446   Anisotropy =     3.3634

     41  H    Isotropic =    29.8011   Anisotropy =    10.2192

     42  H    Isotropic =    29.6878   Anisotropy =     9.6772

     43  H    Isotropic =    29.1213   Anisotropy =    12.5408

     44  H    Isotropic =    29.3135   Anisotropy =     7.1164

     45  H    Isotropic =    29.8052   Anisotropy =     9.8049

     46  H    Isotropic =    29.9275   Anisotropy =    11.1977

     47  H    Isotropic =    29.1292   Anisotropy =     6.6655

     48  H    Isotropic =    29.1281   Anisotropy =    12.4274

     49  C    Isotropic =   180.4876   Anisotropy =    10.6323

     50  H    Isotropic =    31.5760   Anisotropy =     8.0179

     51  H    Isotropic =    31.3503   Anisotropy =     7.5072

     52  H    Isotropic =    31.7377   Anisotropy =    11.9121

     53  C    Isotropic =   180.2775   Anisotropy =    13.6436

     54  H    Isotropic =    31.4601   Anisotropy =     7.1862

     55  H    Isotropic =    31.3407   Anisotropy =     7.3496

     56  H    Isotropic =    31.5661   Anisotropy =    11.4790

     57  C    Isotropic =   182.3904   Anisotropy =    10.2616

     58  H    Isotropic =    31.7044   Anisotropy =     7.2814

     59  H    Isotropic =    31.6377   Anisotropy =     8.9360

     60  H    Isotropic =    31.9647   Anisotropy =    12.2337

     61  Si   Isotropic =   313.0780   Anisotropy =    31.4102

     62  Si   Isotropic =   311.7270   Anisotropy =    31.7071

     63  Si   Isotropic =   315.3286   Anisotropy =    33.8902

     64  C    Isotropic =   180.5351   Anisotropy =    13.8402

     65  H    Isotropic =    31.5351   Anisotropy =     7.3985

     66  H    Isotropic =    31.6624   Anisotropy =     6.4751

     67  H    Isotropic =    31.8085   Anisotropy =    11.8875

     68  C    Isotropic =   181.8766   Anisotropy =     9.6265

     69  H    Isotropic =    31.9691   Anisotropy =     7.1302

     70  H    Isotropic =    32.3010   Anisotropy =    12.1341

     71  H    Isotropic =    32.7772   Anisotropy =    11.1948

     72  C    Isotropic =   181.4761   Anisotropy =    10.5975

     73  H    Isotropic =    31.5437   Anisotropy =     6.4934

     74  H    Isotropic =    31.2186   Anisotropy =     6.7017

     75  H    Isotropic =    31.7321   Anisotropy =    11.7007

     76  Si   Isotropic =   316.0191   Anisotropy =    36.5809

     77  O    Isotropic =   205.5377   Anisotropy =    93.8957

     78  O    Isotropic =   186.7735   Anisotropy =   138.4335

     79  O    Isotropic =   177.5253   Anisotropy =   112.0429

     80  O    Isotropic =   200.5442   Anisotropy =    88.1047

     81  N    Isotropic =   194.0054   Anisotropy =    55.0736

     82  H    Isotropic =    29.0998   Anisotropy =    11.8686

     83  C    Isotropic =    40.1845   Anisotropy =   181.0107

     84  C    Isotropic =    51.7442   Anisotropy =   189.0309

     85  C    Isotropic =    51.2615   Anisotropy =   182.0411

     86  H    Isotropic =    23.8783   Anisotropy =     6.9354

     87  C    Isotropic =    51.1930   Anisotropy =   187.2956

     88  H    Isotropic =    22.8205   Anisotropy =     6.2957

     89  C    Isotropic =    49.3235   Anisotropy =   192.0676

     90  H    Isotropic =    24.2239   Anisotropy =     6.6439

     91  H    Isotropic =    24.1496   Anisotropy =     3.1771

     92  Si   Isotropic =   337.4296   Anisotropy =    36.3854

     93  C    Isotropic =   179.0688   Anisotropy =    17.2071

     94  H    Isotropic =    31.4077   Anisotropy =     6.8370

     95  H    Isotropic =    31.5734   Anisotropy =    11.5903

     96  H    Isotropic =    31.2022   Anisotropy =     7.7796

     97  C    Isotropic =   183.0570   Anisotropy =     9.1857

     98  H    Isotropic =    32.1356   Anisotropy =     6.0316

     99  H    Isotropic =    31.8602   Anisotropy =    11.6146

    100  H    Isotropic =    32.1059   Anisotropy =     8.7154

    101  C    Isotropic =   182.3169   Anisotropy =    11.8575

    102  H    Isotropic =    31.6299   Anisotropy =    11.8808

    103  H    Isotropic =    31.4436   Anisotropy =     7.1092

    104  H    Isotropic =    31.5583   Anisotropy =     9.8273

    105  C    Isotropic =    49.1148   Anisotropy =   191.0048

    106  H    Isotropic =    24.0669   Anisotropy =     5.7481

 The electronic state is 1-A.
 Alpha  occ. eigenvalues --  -77.29420 -77.28919 -66.25556 -66.25419 -66.25155
 Alpha  occ. eigenvalues --  -66.25138 -66.22561 -19.23561 -19.23313 -19.23154
 Alpha  occ. eigenvalues --  -19.22960 -14.38658 -10.33190 -10.28749 -10.28745
 Alpha  occ. eigenvalues --  -10.28682 -10.28530 -10.28176 -10.27351 -10.27339
 Alpha  occ. eigenvalues --  -10.27185 -10.27043 -10.26862 -10.26683 -10.26495
 Alpha  occ. eigenvalues --  -10.26384 -10.26367 -10.24380 -10.24118 -10.24069
 Alpha  occ. eigenvalues --  -10.23961 -10.23902 -10.23665 -10.23653 -10.23542
 Alpha  occ. eigenvalues --  -10.23533 -10.23457 -10.23143 -10.23121 -10.22779
 Alpha  occ. eigenvalues --  -10.22623 -10.22305  -6.74239  -6.73723  -5.39063
 Alpha  occ. eigenvalues --   -5.38850  -5.38639  -5.38628  -5.36199  -4.90722
 Alpha  occ. eigenvalues --   -4.90485  -4.90214  -4.90098  -4.89963  -4.89579
 Alpha  occ. eigenvalues --   -3.75231  -3.75033  -3.74822  -3.74820  -3.74801
 Alpha  occ. eigenvalues --   -3.74797  -3.74610  -3.74580  -3.74403  -3.74383
 Alpha  occ. eigenvalues --   -3.74373  -3.74357  -3.72229  -3.72036  -3.71990
 Alpha  occ. eigenvalues --   -3.31139  -2.08118  -2.07279  -2.04622  -1.13237
 Alpha  occ. eigenvalues --   -1.12699  -1.08938  -1.08408  -0.98533  -0.94762
 Alpha  occ. eigenvalues --   -0.94189  -0.88918  -0.87792  -0.85816  -0.84117
 Alpha  occ. eigenvalues --   -0.81756  -0.81274  -0.80628  -0.80588  -0.80143
 Alpha  occ. eigenvalues --   -0.79767  -0.78026  -0.77712  -0.77617  -0.77426
 Alpha  occ. eigenvalues --   -0.77332  -0.77269  -0.76969  -0.76958  -0.76817
 Alpha  occ. eigenvalues --   -0.76704  -0.76131  -0.75719  -0.73301  -0.72125
 Alpha  occ. eigenvalues --   -0.70363  -0.70065  -0.67114  -0.65599  -0.65042
 Alpha  occ. eigenvalues --   -0.64269  -0.62276  -0.61349  -0.60632  -0.59705
 Alpha  occ. eigenvalues --   -0.58121  -0.56922  -0.56148  -0.55863  -0.55285
 Alpha  occ. eigenvalues --   -0.54118  -0.53935  -0.53484  -0.53416  -0.52935
 Alpha  occ. eigenvalues --   -0.52633  -0.52566  -0.52211  -0.52060  -0.52037
 Alpha  occ. eigenvalues --   -0.51820  -0.51565  -0.51387  -0.51100  -0.50893
 Alpha  occ. eigenvalues --   -0.50659  -0.50409  -0.50243  -0.50097  -0.49924
 Alpha  occ. eigenvalues --   -0.49721  -0.49564  -0.49425  -0.49130  -0.48973
 Alpha  occ. eigenvalues --   -0.48783  -0.48723  -0.48569  -0.48390  -0.48245
 Alpha  occ. eigenvalues --   -0.48192  -0.48050  -0.48029  -0.47907  -0.47872
 Alpha  occ. eigenvalues --   -0.47777  -0.47618  -0.47574  -0.47418  -0.47161
 Alpha  occ. eigenvalues --   -0.47119  -0.46960  -0.46868  -0.46656  -0.46310
 Alpha  occ. eigenvalues --   -0.46161  -0.45902  -0.45842  -0.45761  -0.45356
 Alpha  occ. eigenvalues --   -0.44876  -0.44723  -0.44408  -0.44055  -0.43868
 Alpha  occ. eigenvalues --   -0.43497  -0.42821  -0.42755  -0.41436  -0.40738
 Alpha  occ. eigenvalues --   -0.39707  -0.39430  -0.39334  -0.39271  -0.38942
 Alpha  occ. eigenvalues --   -0.38808  -0.38593  -0.38516  -0.38462  -0.38100
 Alpha  occ. eigenvalues --   -0.36599  -0.35988  -0.34955  -0.34855  -0.34206
 Alpha  occ. eigenvalues --   -0.33997  -0.33152  -0.30891  -0.29841
 Alpha virt. eigenvalues --   -0.16027  -0.13485  -0.10905  -0.10639  -0.09375
 Alpha virt. eigenvalues --   -0.08629  -0.07389  -0.06982  -0.06693  -0.06488
 Alpha virt. eigenvalues --   -0.05893  -0.04881  -0.04388  -0.04235  -0.04119

 Mulliken charges:
               1
     1  P    0.813203
     2  P    0.703211
     3  C   -0.366216
     4  C   -0.550267
     5  C   -0.539168
     6  C   -0.542622
     7  C   -0.599633
     8  C   -0.588517
     9  C   -0.533671
    10  H    0.151739
    11  H    0.140225
    12  H    0.137996
    13  H    0.143618
    14  H    0.155034
    15  H    0.132602
    16  H    0.151175
    17  H    0.143301
    18  H    0.137975
    19  H    0.160288
    20  H    0.149634
    21  H    0.137333
    22  H    0.134151
    23  H    0.160518
    24  H    0.137342
    25  H    0.144157
    26  H    0.146298
    27  H    0.132799
    28  Rh  -0.596151
    29  C    0.014232
    30  C   -0.101581
    31  C   -0.060829
    32  C   -0.070377
    33  C   -0.365634
    34  H    0.143292
    35  H    0.182432
    36  C   -0.215746
    37  C   -0.352867
    38  H    0.185429
    39  C   -0.231657
    40  H    0.198551
    41  H    0.168472
    42  H    0.168699
    43  H    0.172708
    44  H    0.125466
    45  H    0.165770
    46  H    0.167751
    47  H    0.135837
    48  H    0.172400
    49  C   -0.569464
    50  H    0.126469
    51  H    0.156584
    52  H    0.150429
    53  C   -0.514887
    54  H    0.124087
    55  H    0.140393
    56  H    0.146930
    57  C   -0.558717
    58  H    0.143185
    59  H    0.146707
    60  H    0.145906
    61  Si   0.745661
    62  Si   0.752531
    63  Si   0.783543
    64  C   -0.529983
    65  H    0.146451
    66  H    0.136531
    67  H    0.151346
    68  C   -0.569640
    69  H    0.150471
    70  H    0.142746
    71  H    0.162603
    72  C   -0.613235
    73  H    0.144843
    74  H    0.137066
    75  H    0.156798
    76  Si   0.784636
    77  O   -0.454443
    78  O   -0.467169
    79  O   -0.512433
    80  O   -0.453987
    81  N   -0.399219
    82  H    0.255598
    83  C   -0.028502
    84  C   -0.161855
    85  C   -0.176270
    86  H    0.190603
    87  C   -0.124963
    88  H    0.193303
    89  C   -0.091599
    90  H    0.117616
    91  H    0.128887
    92  Si   0.701385
    93  C   -0.577015
    94  H    0.137125
    95  H    0.148953
    96  H    0.139260
    97  C   -0.569919
    98  H    0.155193
    99  H    0.146960
   100  H    0.130849
   101  C   -0.571450
   102  H    0.149633
   103  H    0.140058
   104  H    0.118110
   105  C   -0.108492
   106  H    0.125096
 Sum of Mulliken charges =   1.00000

 Dipole moment (field-independent basis, Debye):
    X=              0.4486    Y=              2.4204    Z=              0.1033  Tot=              2.4638
 Quadrupole moment (field-independent basis, Debye-Ang):
   XX=           -274.4927   YY=           -284.0442   ZZ=           -285.1748
   XY=             -2.6230   XZ=              2.2558   YZ=              0.5202

 Summary of Natural Population Analysis:

                                       Natural Population
                Natural  -----------------------------------------------
    Atom  No    Charge         Core      Valence    Rydberg      Total
 -----------------------------------------------------------------------
      P    1    1.78028      9.99589     3.12864    0.09519    13.21972
      P    2    1.71797      9.99607     3.19339    0.09258    13.28203
      C    3   -0.35445      1.99929     4.31756    0.03761     6.35445
      C    4   -1.10958      1.99944     5.10193    0.00821     7.10958
      C    5   -1.10888      1.99943     5.10146    0.00800     7.10888
      C    6   -1.10829      1.99943     5.10050    0.00836     7.10829
      C    7   -1.11514      1.99944     5.10709    0.00862     7.11514
      C    8   -1.11384      1.99944     5.10571    0.00870     7.11384
      C    9   -1.10545      1.99943     5.09785    0.00817     7.10545
      H   10    0.24351      0.00000     0.75566    0.00083     0.75649
      H   11    0.23696      0.00000     0.76210    0.00094     0.76304
      H   12    0.23049      0.00000     0.76838    0.00113     0.76951
      H   13    0.24040      0.00000     0.75878    0.00082     0.75960
      H   14    0.24624      0.00000     0.75264    0.00112     0.75376
      H   15    0.23571      0.00000     0.76339    0.00090     0.76429
      H   16    0.24315      0.00000     0.75600    0.00086     0.75685
      H   17    0.23974      0.00000     0.75929    0.00097     0.76026
      H   18    0.23322      0.00000     0.76560    0.00119     0.76678
      H   19    0.24694      0.00000     0.75219    0.00087     0.75306
      H   20    0.23728      0.00000     0.76163    0.00109     0.76272
      H   21    0.23269      0.00000     0.76622    0.00109     0.76731
      H   22    0.23240      0.00000     0.76639    0.00120     0.76760
      H   23    0.24619      0.00000     0.75292    0.00089     0.75381
      H   24    0.23027      0.00000     0.76869    0.00104     0.76973
      H   25    0.24142      0.00000     0.75774    0.00084     0.75858
      H   26    0.23747      0.00000     0.76136    0.00117     0.76253
      H   27    0.23530      0.00000     0.76368    0.00102     0.76470
     Rh   28   -0.53573     35.98460     9.52417    0.02696    45.53573
      C   29   -0.16969      1.99909     4.14989    0.02071     6.16969
      C   30   -0.17388      1.99910     4.15382    0.02096     6.17388
      C   31   -0.20071      1.99907     4.18116    0.02048     6.20071
      C   32   -0.14899      1.99908     4.12913    0.02078     6.14899
      C   33   -0.42623      1.99936     4.41425    0.01263     6.42623
      H   34    0.22489      0.00000     0.77276    0.00235     0.77511
      H   35    0.22943      0.00000     0.76839    0.00218     0.77057
      C   36   -0.41997      1.99936     4.40748    0.01313     6.41997
      C   37   -0.42196      1.99936     4.41077    0.01183     6.42196
      H   38    0.22702      0.00000     0.77097    0.00201     0.77298
      C   39   -0.41948      1.99935     4.40735    0.01279     6.41948
      H   40    0.23286      0.00000     0.76493    0.00222     0.76714
      H   41    0.22758      0.00000     0.77092    0.00150     0.77242
      H   42    0.21500      0.00000     0.78301    0.00199     0.78500
      H   43    0.23409      0.00000     0.76407    0.00183     0.76591
      H   44    0.21471      0.00000     0.78376    0.00152     0.78529
      H   45    0.21348      0.00000     0.78448    0.00203     0.78652
      H   46    0.22717      0.00000     0.77134    0.00149     0.77283
      H   47    0.21477      0.00000     0.78352    0.00171     0.78523
      H   48    0.23284      0.00000     0.76521    0.00196     0.76716
      C   49   -1.11015      1.99943     5.10205    0.00867     7.11015
      H   50    0.23332      0.00000     0.76543    0.00125     0.76668
      H   51    0.23876      0.00000     0.76025    0.00099     0.76124
      H   52    0.24192      0.00000     0.75720    0.00088     0.75808
      C   53   -1.10540      1.99944     5.09775    0.00821     7.10540
      H   54    0.23435      0.00000     0.76461    0.00104     0.76565
      H   55    0.23929      0.00000     0.75969    0.00102     0.76071
      H   56    0.24198      0.00000     0.75717    0.00086     0.75802
      C   57   -1.11279      1.99942     5.10471    0.00866     7.11279
      H   58    0.23665      0.00000     0.76228    0.00107     0.76335
      H   59    0.24011      0.00000     0.75876    0.00113     0.75989
      H   60    0.24222      0.00000     0.75691    0.00088     0.75778
     Si   61    1.86431      9.99790     2.10487    0.03293    12.13569
     Si   62    1.86850      9.99787     2.10170    0.03194    12.13150
     Si   63    1.86678      9.99790     2.10213    0.03319    12.13322
      C   64   -1.10941      1.99943     5.10174    0.00824     7.10941
      H   65    0.23518      0.00000     0.76369    0.00113     0.76482
      H   66    0.23261      0.00000     0.76631    0.00108     0.76739
      H   67    0.24341      0.00000     0.75575    0.00084     0.75659
      C   68   -1.11470      1.99942     5.10691    0.00837     7.11470
      H   69    0.24158      0.00000     0.75746    0.00097     0.75842
      H   70    0.24031      0.00000     0.75882    0.00087     0.75969
      H   71    0.24474      0.00000     0.75424    0.00103     0.75526
      C   72   -1.11200      1.99943     5.10380    0.00877     7.11200
      H   73    0.22855      0.00000     0.77038    0.00107     0.77145
      H   74    0.23178      0.00000     0.76712    0.00110     0.76822
      H   75    0.24564      0.00000     0.75349    0.00087     0.75436
     Si   76    1.88083      9.99780     2.08923    0.03213    12.11917
      O   77   -1.16211      1.99974     7.15230    0.01006     9.16211
      O   78   -1.13496      1.99977     7.12370    0.01148     9.13496
      O   79   -1.15187      1.99977     7.14136    0.01074     9.15187
      O   80   -1.14967      1.99975     7.14014    0.00978     9.14967
      N   81   -1.03224      1.99950     6.01149    0.02125     8.03224
      H   82    0.40502      0.00000     0.59143    0.00355     0.59498
      C   83   -0.07105      1.99898     4.04872    0.02335     6.07105
      C   84   -0.21198      1.99908     4.19636    0.01654     6.21198
      C   85   -0.21094      1.99908     4.19593    0.01593     6.21094
      H   86    0.22558      0.00000     0.77170    0.00273     0.77442
      C   87   -0.20232      1.99920     4.18752    0.01561     6.20232
      H   88    0.21559      0.00000     0.78158    0.00283     0.78441
      C   89   -0.20108      1.99919     4.18654    0.01536     6.20108
      H   90    0.21481      0.00000     0.78374    0.00145     0.78519
      H   91    0.22103      0.00000     0.77781    0.00116     0.77897
     Si   92    1.77155      9.99803     2.19800    0.03242    12.22845
      C   93   -1.10648      1.99944     5.09767    0.00937     7.10648
      H   94    0.23435      0.00000     0.76463    0.00102     0.76565
      H   95    0.23933      0.00000     0.75970    0.00096     0.76067
      H   96    0.22912      0.00000     0.76979    0.00109     0.77088
      C   97   -1.11016      1.99944     5.10124    0.00949     7.11016
      H   98    0.23894      0.00000     0.75998    0.00108     0.76106
      H   99    0.24011      0.00000     0.75895    0.00094     0.75989
      H  100    0.23115      0.00000     0.76755    0.00129     0.76885
      C  101   -1.09595      1.99945     5.08743    0.00906     7.09595
      H  102    0.23939      0.00000     0.75966    0.00095     0.76061
      H  103    0.23004      0.00000     0.76887    0.00109     0.76996
      H  104    0.22414      0.00000     0.77448    0.00137     0.77586
      C  105   -0.19579      1.99919     4.18144    0.01517     6.19579
      H  106    0.21891      0.00000     0.77977    0.00132     0.78109
 =======================================================================
   * Total *    1.00000    175.94388   249.13202    0.92410   426.00000

 Normal termination of Gaussian 16 at Mon Jan 20 18:45:16 2025.
