 Gaussian 16, Revision B.01,
 Gaussian 16:  ES64L-G16RevB.01 20-Dec-2017

 ------------------------------------------
 # nmr=giao b3lyp/genecp pop=nbo scfcyc=200
 ------------------------------------------

 ---------
 DS-59_SPE
 ---------
 Symbolic Z-matrix:
 Charge =  1 Multiplicity = 1

                         Standard orientation:
 ---------------------------------------------------------------------
 Center     Atomic      Atomic             Coordinates (Angstroms)
 Number     Number       Type             X           Y           Z
 ---------------------------------------------------------------------
      1         15           0       -0.950368    1.446260   -0.051930
      2         15           0       -0.059940   -1.211000    0.216830
      3          8           0        1.767321    1.029899    0.055170
      4          8           0        3.617931   -0.408802   -0.658190
      5          8           0        4.038452    1.606677    0.367710
      6          6           0       -1.122447    2.905440   -1.171270
      7          6           0        0.481479   -2.630691   -0.836100
      8          6           0       -0.610478    2.223990    1.591120
      9          6           0        1.274371   -0.578691    2.676220
     10          1           0        1.341261    0.444739    2.342410
     11          6           0        0.632171    0.456359   -0.543150
     12          6           0        1.756400   -0.912251    3.938980
     13          1           0        2.192741   -0.139881    4.559880
     14          6           0       -2.407287    3.366021   -1.472130
     15          1           0       -3.276558    2.854362   -1.080240
     16          6           0        1.678210   -2.219661    4.403060
     17          1           0        2.053269   -2.472591    5.386800
     18          6           0       -0.016837    3.600260   -1.674410
     19          1           0        0.988763    3.277629   -1.441480
     20          6           0        0.718120   -1.563531    1.854850
     21          6           0        0.548503    3.815339    2.994070
     22          1           0        1.298933    4.587759    3.106490
     23          5           0        3.100901    0.727688   -0.095410
     24          6           0        0.352903    3.226460    1.751320
     25          1           0        0.956753    3.549269    0.916350
     26          6           0       -0.423631   -3.240730   -1.709510
     27          1           0       -1.438971   -2.874999   -1.775730
     28          6           0        5.600741    0.363407    1.705790
     29          1           0        5.580172    1.184617    2.422640
     30          1           0        6.579661   -0.113994    1.762720
     31          1           0        4.843261   -0.363213    2.003070
     32          6           0        5.773200   -1.519804   -0.520040
     33          1           0        5.489620   -1.950843    0.438230
     34          1           0        6.856580   -1.386474   -0.531800
     35          1           0        5.516930   -2.230683   -1.306730
     36          6           0       -1.178418    2.428100    3.936780
     37          1           0       -1.778788    2.117641    4.782830
     38          6           0        5.069851   -0.196063   -0.777220
     39          6           0        0.638129   -2.880101    2.331620
     40          1           0        0.217349   -3.662520    1.713030
     41          6           0       -0.217597    3.420750    4.088010
     42          1           0       -0.066797    3.889080    5.052690
     43          6           0       -1.482446    5.171691   -2.771830
     44          1           0       -1.620746    6.048161   -3.392130
     45          6           0       -2.585987    4.494001   -2.265620
     46          1           0       -3.587136    4.842082   -2.486870
     47          6           0       -0.199576    4.723510   -2.473400
     48          1           0        0.663474    5.252439   -2.858190
     49          6           0        6.397802    1.942186   -0.065620
     50          1           0        6.152772    2.465366   -0.987780
     51          1           0        7.369562    1.459146   -0.185500
     52          1           0        6.487112    2.683096    0.729440
     53          6           0       -1.373218    1.832701    2.694900
     54          1           0       -2.115059    1.053491    2.578000
     55          6           0        1.115049   -3.203301    3.595500
     56          1           0        1.049068   -4.225601    3.946510
     57          6           0        1.275348   -4.790151   -2.426480
     58          1           0        1.582868   -5.629321   -3.037810
     59          6           0        1.794429   -3.110961   -0.772670
     60          1           0        2.514419   -2.642752   -0.117290
     61          6           0        5.327221    0.272147   -2.209090
     62          1           0        4.944731   -0.477053   -2.902980
     63          1           0        6.393531    0.398576   -2.398890
     64          1           0        4.827482    1.218517   -2.419970
     65          6           0        5.331871    0.923017    0.308410
     66          6           0       -0.029172   -4.314930   -2.500030
     67          1           0       -0.741902   -4.781290   -3.168620
     68          6           0        2.184658   -4.184111   -1.564490
     69          1           0        3.202608   -4.548812   -1.506410
     70         45           0       -2.312149   -0.491479    0.218800
     71          6           0       -3.389441   -2.497758    0.328140
     72          6           0       -3.186680   -2.005618    1.604010
     73          6           0       -4.361319    0.466932    0.615250
     74          6           0       -4.280439    0.075892   -0.704290
     75          6           0       -4.699821   -2.445438   -0.435900
     76          1           0       -2.671471   -3.226499   -0.026950
     77          1           0       -2.329741   -2.385689    2.151200
     78          6           0       -4.201300   -1.293428    2.464830
     79          6           0       -5.093929   -0.284807    1.709800
     80          1           0       -4.119318    1.499262    0.841700
     81          6           0       -4.853700   -1.182077   -1.309890
     82          1           0       -3.997859    0.828472   -1.432980
     83          1           0       -4.761841   -3.321898   -1.083100
     84          1           0       -5.534841   -2.530787    0.259780
     85          1           0       -4.828980   -2.035897    2.973810
     86          1           0       -3.660190   -0.773488    3.258190
     87          1           0       -5.964090   -0.788447    1.289090
     88          1           0       -5.484649    0.438043    2.427780
     89          1           0       -4.352440   -1.345678   -2.266190
     90          1           0       -5.911930   -1.022277   -1.552220
     91          6           0        0.832091    0.317779   -2.069740
     92          1           0        1.563841   -0.478651   -2.220220
     93          1           0        1.319302    1.241329   -2.392150
     94          6           0       -0.380789    0.073950   -2.975610
     95          1           0       -0.972980   -0.770040   -2.617990
     96          1           0       -1.041929    0.942900   -2.957940
     97          6           0        0.046111   -0.194020   -4.423300
     98          1           0        0.686530   -1.081251   -4.450870
     99          1           0        0.661611    0.639789   -4.777020
    100          6           0       -1.139209   -0.387440   -5.368390
    101          1           0       -1.778019    0.499011   -5.390750
    102          1           0       -0.803359   -0.577750   -6.389130
    103          1           0       -1.757020   -1.235589   -5.061480
 ---------------------------------------------------------------------

 SCF Done:  E(RB3LYP) =  -2715.00930093     A.U. after   17 cycles

      1  P    Isotropic =   279.4104   Anisotropy =   100.2465

      2  P    Isotropic =   257.5804   Anisotropy =    65.5457

      3  O    Isotropic =   183.8652   Anisotropy =    85.5962

      4  O    Isotropic =   159.5751   Anisotropy =    55.7998

      5  O    Isotropic =   163.3310   Anisotropy =    75.7644

      6  C    Isotropic =    41.0641   Anisotropy =   170.3045

      7  C    Isotropic =    47.8440   Anisotropy =   167.9102

      8  C    Isotropic =    46.0099   Anisotropy =   167.4342

      9  C    Isotropic =    46.1255   Anisotropy =   198.7382

     10  H    Isotropic =    25.0942   Anisotropy =     5.8371

     11  C    Isotropic =    66.5852   Anisotropy =    37.7848

     12  C    Isotropic =    50.4202   Anisotropy =   188.5941

     13  H    Isotropic =    24.8591   Anisotropy =     7.6747

     14  C    Isotropic =    48.2895   Anisotropy =   177.4590

     15  H    Isotropic =    24.7692   Anisotropy =    11.0900

     16  C    Isotropic =    47.7935   Anisotropy =   194.4142

     17  H    Isotropic =    24.3781   Anisotropy =     3.7984

     18  C    Isotropic =    47.6780   Anisotropy =   177.7470

     19  H    Isotropic =    23.7266   Anisotropy =    10.3484

     20  C    Isotropic =    44.2453   Anisotropy =   164.9204

     21  C    Isotropic =    49.1625   Anisotropy =   187.9303

     22  H    Isotropic =    24.0748   Anisotropy =     6.5140

     23  B    Isotropic =    83.0363   Anisotropy =     7.2055

     24  C    Isotropic =    41.0137   Anisotropy =   197.5274

     25  H    Isotropic =    23.6935   Anisotropy =    10.3343

     26  C    Isotropic =    40.6922   Anisotropy =   184.3016

     27  H    Isotropic =    23.4574   Anisotropy =     8.8546

     28  C    Isotropic =   157.9641   Anisotropy =    31.6406

     29  H    Isotropic =    30.8682   Anisotropy =     6.9751

     30  H    Isotropic =    31.0372   Anisotropy =     9.6180

     31  H    Isotropic =    31.1759   Anisotropy =     6.8569

     32  C    Isotropic =   160.3543   Anisotropy =    33.1505

     33  H    Isotropic =    30.8180   Anisotropy =     4.0810

     34  H    Isotropic =    30.9769   Anisotropy =    10.8097

     35  H    Isotropic =    30.7188   Anisotropy =     7.4889

     36  C    Isotropic =    50.7889   Anisotropy =   184.9553

     37  H    Isotropic =    24.3250   Anisotropy =     6.9284

     38  C    Isotropic =    90.9703   Anisotropy =    71.1476

     39  C    Isotropic =    46.5667   Anisotropy =   188.8699

     40  H    Isotropic =    25.1560   Anisotropy =    11.7823

     41  C    Isotropic =    45.8151   Anisotropy =   196.7583

     42  H    Isotropic =    24.0287   Anisotropy =     3.2179

     43  C    Isotropic =    46.2418   Anisotropy =   196.7218

     44  H    Isotropic =    24.1008   Anisotropy =     3.5362

     45  C    Isotropic =    48.6197   Anisotropy =   190.0125

     46  H    Isotropic =    24.2677   Anisotropy =     6.8915

     47  C    Isotropic =    49.0036   Anisotropy =   188.8906

     48  H    Isotropic =    24.1112   Anisotropy =     7.1897

     49  C    Isotropic =   160.3484   Anisotropy =    35.8767

     50  H    Isotropic =    30.4898   Anisotropy =     7.1320

     51  H    Isotropic =    30.9765   Anisotropy =    10.6620

     52  H    Isotropic =    30.4992   Anisotropy =     9.0331

     53  C    Isotropic =    40.0754   Anisotropy =   175.2687

     54  H    Isotropic =    22.8354   Anisotropy =     8.9371

     55  C    Isotropic =    49.8167   Anisotropy =   188.6146

     56  H    Isotropic =    24.4757   Anisotropy =     6.2175

     57  C    Isotropic =    45.2481   Anisotropy =   197.4347

     58  H    Isotropic =    24.0069   Anisotropy =     3.6419

     59  C    Isotropic =    39.7918   Anisotropy =   200.2465

     60  H    Isotropic =    24.0572   Anisotropy =     9.2189

     61  C    Isotropic =   157.6704   Anisotropy =    33.0136

     62  H    Isotropic =    30.9592   Anisotropy =     5.6992

     63  H    Isotropic =    30.8379   Anisotropy =    10.5598

     64  H    Isotropic =    30.6099   Anisotropy =     5.2213

     65  C    Isotropic =    94.1611   Anisotropy =    63.4911

     66  C    Isotropic =    51.0258   Anisotropy =   184.4727

     67  H    Isotropic =    24.1215   Anisotropy =     6.8707

     68  C    Isotropic =    49.6363   Anisotropy =   187.2750

     69  H    Isotropic =    24.2802   Anisotropy =     6.9880

     70  Rh   Isotropic =  -308.7321   Anisotropy =   349.2452

     71  C    Isotropic =    84.6479   Anisotropy =   113.5195

     72  C    Isotropic =    73.6052   Anisotropy =   122.2205

     73  C    Isotropic =    82.0483   Anisotropy =   120.5834

     74  C    Isotropic =    74.6302   Anisotropy =   120.8420

     75  C    Isotropic =   154.5867   Anisotropy =    23.8646

     76  H    Isotropic =    26.8438   Anisotropy =     5.6192

     77  H    Isotropic =    26.6639   Anisotropy =     3.8206

     78  C    Isotropic =   146.9218   Anisotropy =    29.8352

     79  C    Isotropic =   153.8969   Anisotropy =    25.6285

     80  H    Isotropic =    26.3711   Anisotropy =     6.2984

     81  C    Isotropic =   146.8161   Anisotropy =    28.8443

     82  H    Isotropic =    25.6187   Anisotropy =     5.1515

     83  H    Isotropic =    29.6515   Anisotropy =    11.4315

     84  H    Isotropic =    29.6877   Anisotropy =    10.1575

     85  H    Isotropic =    29.1689   Anisotropy =    12.8887

     86  H    Isotropic =    29.1685   Anisotropy =     7.1948

     87  H    Isotropic =    29.6852   Anisotropy =    10.2089

     88  H    Isotropic =    29.7354   Anisotropy =    11.6027

     89  H    Isotropic =    28.8426   Anisotropy =     7.2155

     90  H    Isotropic =    28.9358   Anisotropy =    13.0460

     91  C    Isotropic =   141.0996   Anisotropy =    35.9666

     92  H    Isotropic =    29.6065   Anisotropy =     4.8028

     93  H    Isotropic =    29.9635   Anisotropy =     5.2952

     94  C    Isotropic =   153.0735   Anisotropy =    30.6152

     95  H    Isotropic =    30.0081   Anisotropy =     6.5363

     96  H    Isotropic =    31.1341   Anisotropy =     8.7047

     97  C    Isotropic =   157.3094   Anisotropy =    26.7558

     98  H    Isotropic =    31.5368   Anisotropy =     4.7658

     99  H    Isotropic =    31.2813   Anisotropy =     7.1337

    100  C    Isotropic =   169.3379   Anisotropy =    29.0392

    101  H    Isotropic =    31.4843   Anisotropy =     7.5528

    102  H    Isotropic =    30.9347   Anisotropy =    12.8583

    103  H    Isotropic =    31.2954   Anisotropy =     6.7846

 The electronic state is 1-A.
 Alpha  occ. eigenvalues --  -77.23164 -77.22749 -19.24218 -19.21978 -19.21286
 Alpha  occ. eigenvalues --  -10.36775 -10.32602 -10.32249 -10.29056 -10.29021
 Alpha  occ. eigenvalues --  -10.29008 -10.28881 -10.28805 -10.28576 -10.28534
 Alpha  occ. eigenvalues --  -10.28185 -10.27869 -10.27772 -10.27668 -10.27455
 Alpha  occ. eigenvalues --  -10.27441 -10.27248 -10.27245 -10.27228 -10.27199
 Alpha  occ. eigenvalues --  -10.27197 -10.27076 -10.27072 -10.27054 -10.27040
 Alpha  occ. eigenvalues --  -10.27009 -10.26984 -10.26970 -10.26942 -10.26919
 Alpha  occ. eigenvalues --  -10.26752 -10.26728 -10.26681 -10.26587 -10.26561
 Alpha  occ. eigenvalues --  -10.26469 -10.25559 -10.24712 -10.24619 -10.24440
 Alpha  occ. eigenvalues --  -10.24075 -10.24024 -10.23383  -6.89302  -6.69104
 Alpha  occ. eigenvalues --   -6.68721  -4.85372  -4.85328  -4.85020  -4.84991
 Alpha  occ. eigenvalues --   -4.84930  -4.84643  -3.31240  -2.08123  -2.07452
 Alpha  occ. eigenvalues --   -2.04725  -1.16019  -1.13376  -1.08309  -0.96136
 Alpha  occ. eigenvalues --   -0.95969  -0.95360  -0.95213  -0.94142  -0.90448
 Alpha  occ. eigenvalues --   -0.89276  -0.88839  -0.87716  -0.87225  -0.86573
 Alpha  occ. eigenvalues --   -0.84757  -0.84740  -0.84465  -0.84258  -0.84236
 Alpha  occ. eigenvalues --   -0.84097  -0.84035  -0.83748  -0.80053  -0.79187
 Alpha  occ. eigenvalues --   -0.79044  -0.77512  -0.76286  -0.75017  -0.74325
 Alpha  occ. eigenvalues --   -0.71653  -0.70729  -0.70650  -0.70368  -0.70228
 Alpha  occ. eigenvalues --   -0.69957  -0.69651  -0.69572  -0.69323  -0.67590
 Alpha  occ. eigenvalues --   -0.66668  -0.66281  -0.65601  -0.64569  -0.63018
 Alpha  occ. eigenvalues --   -0.62149  -0.61686  -0.61592  -0.60990  -0.59973
 Alpha  occ. eigenvalues --   -0.59651  -0.58083  -0.57149  -0.56766  -0.56517
 Alpha  occ. eigenvalues --   -0.56085  -0.55756  -0.55604  -0.55435  -0.55235
 Alpha  occ. eigenvalues --   -0.55095  -0.54996  -0.54764  -0.54422  -0.54370
 Alpha  occ. eigenvalues --   -0.53775  -0.53355  -0.53305  -0.52719  -0.52489
 Alpha  occ. eigenvalues --   -0.52426  -0.52353  -0.52053  -0.51934  -0.51647
 Alpha  occ. eigenvalues --   -0.51621  -0.51151  -0.50499  -0.50068  -0.49277
 Alpha  occ. eigenvalues --   -0.48882  -0.48653  -0.48418  -0.48292  -0.47794
 Alpha  occ. eigenvalues --   -0.47719  -0.47536  -0.47451  -0.47199  -0.46748
 Alpha  occ. eigenvalues --   -0.46625  -0.46380  -0.46180  -0.45960  -0.45694
 Alpha  occ. eigenvalues --   -0.45587  -0.45389  -0.45220  -0.45122  -0.44656
 Alpha  occ. eigenvalues --   -0.44640  -0.44244  -0.44025  -0.43842  -0.43698
 Alpha  occ. eigenvalues --   -0.43176  -0.43001  -0.42918  -0.42672  -0.42575
 Alpha  occ. eigenvalues --   -0.42401  -0.42080  -0.41825  -0.41188  -0.40830
 Alpha  occ. eigenvalues --   -0.39859  -0.39461  -0.38720  -0.37662  -0.36752
 Alpha  occ. eigenvalues --   -0.36478  -0.36339  -0.35668  -0.35476  -0.35364
 Alpha  occ. eigenvalues --   -0.35210  -0.34867  -0.34560  -0.34455  -0.34193
 Alpha  occ. eigenvalues --   -0.33493  -0.33127  -0.30443
 Alpha virt. eigenvalues --   -0.15908  -0.14375  -0.13493  -0.12893  -0.11635
 Alpha virt. eigenvalues --   -0.11466  -0.10900  -0.10387  -0.10257  -0.09714
 Alpha virt. eigenvalues --   -0.08914  -0.07482  -0.06361  -0.06215  -0.05853

 Mulliken charges:
               1
     1  P    0.255922
     2  P    0.410358
     3  O   -0.256434
     4  O   -0.264531
     5  O   -0.234058
     6  C   -0.206382
     7  C   -0.310126
     8  C   -0.305952
     9  C   -0.058066
    10  H    0.219779
    11  C   -0.192844
    12  C   -0.127445
    13  H    0.129825
    14  C   -0.050045
    15  H    0.154702
    16  C   -0.100012
    17  H    0.131228
    18  C   -0.030152
    19  H    0.180804
    20  C   -0.184171
    21  C   -0.123124
    22  H    0.129605
    23  B    0.400645
    24  C    0.064131
    25  H    0.128907
    26  C   -0.067943
    27  H    0.195052
    28  C   -0.387098
    29  H    0.148013
    30  H    0.145886
    31  H    0.139900
    32  C   -0.355000
    33  H    0.140256
    34  H    0.142952
    35  H    0.137780
    36  C   -0.147507
    37  H    0.123601
    38  C    0.051997
    39  C   -0.115327
    40  H    0.163708
    41  C   -0.074931
    42  H    0.133476
    43  C   -0.072346
    44  H    0.137283
    45  C   -0.132006
    46  H    0.127440
    47  C   -0.121481
    48  H    0.128542
    49  C   -0.333949
    50  H    0.138061
    51  H    0.135332
    52  H    0.143737
    53  C    0.078075
    54  H    0.163410
    55  C   -0.078369
    56  H    0.131615
    57  C   -0.076099
    58  H    0.135277
    59  C    0.026873
    60  H    0.173557
    61  C   -0.372747
    62  H    0.145137
    63  H    0.148567
    64  H    0.128633
    65  C    0.045487
    66  C   -0.128265
    67  H    0.126376
    68  C   -0.123563
    69  H    0.129482
    70  Rh  -0.666722
    71  C   -0.060568
    72  C   -0.104151
    73  C   -0.045891
    74  C   -0.038644
    75  C   -0.348442
    76  H    0.207962
    77  H    0.214492
    78  C   -0.221660
    79  C   -0.385600
    80  H    0.195097
    81  C   -0.245918
    82  H    0.173000
    83  H    0.166403
    84  H    0.167346
    85  H    0.174664
    86  H    0.141640
    87  H    0.168954
    88  H    0.170999
    89  H    0.135451
    90  H    0.172259
    91  C   -0.352225
    92  H    0.199963
    93  H    0.148504
    94  C   -0.168718
    95  H    0.090081
    96  H    0.149141
    97  C   -0.218567
    98  H    0.123975
    99  H    0.116116
   100  C   -0.363062
   101  H    0.117088
   102  H    0.140390
   103  H    0.105199
 Sum of Mulliken charges =   1.00000

 Dipole moment (field-independent basis, Debye):
    X=             -0.7229    Y=             -1.1188    Z=              0.0086  Tot=              1.3321
 Quadrupole moment (field-independent basis, Debye-Ang):
   XX=           -244.8907   YY=           -276.1977   ZZ=           -281.8366
   XY=             -0.2970   XZ=             -0.8341   YZ=             -1.7515

 Summary of Natural Population Analysis:

                                       Natural Population
                Natural  -----------------------------------------------
    Atom  No    Charge         Core      Valence    Rydberg      Total
 -----------------------------------------------------------------------
      P    1    1.06741      9.99639     3.88402    0.05217    13.93259
      P    2    1.07612      9.99630     3.87669    0.05090    13.92388
      O    3   -0.72660      1.99964     6.70773    0.01923     8.72660
      O    4   -0.71824      1.99970     6.70901    0.00953     8.71824
      O    5   -0.68694      1.99970     6.67673    0.01051     8.68694
      C    6   -0.33685      1.99898     4.31407    0.02380     6.33685
      C    7   -0.35032      1.99897     4.32696    0.02440     6.35032
      C    8   -0.34059      1.99896     4.31649    0.02514     6.34059
      C    9   -0.19741      1.99909     4.18096    0.01736     6.19741
      H   10    0.23501      0.00000     0.76202    0.00297     0.76499
      C   11   -0.13287      1.99923     4.10003    0.03361     6.13287
      C   12   -0.19430      1.99920     4.17962    0.01548     6.19430
      H   13    0.22018      0.00000     0.77842    0.00140     0.77982
      C   14   -0.18988      1.99909     4.17544    0.01535     6.18988
      H   15    0.20917      0.00000     0.78878    0.00205     0.79083
      C   16   -0.18458      1.99920     4.17056    0.01483     6.18458
      H   17    0.22046      0.00000     0.77839    0.00115     0.77954
      C   18   -0.20268      1.99908     4.18717    0.01643     6.20268
      H   19    0.21617      0.00000     0.78127    0.00257     0.78383
      C   20   -0.34062      1.99897     4.31714    0.02451     6.34062
      C   21   -0.19669      1.99919     4.18306    0.01444     6.19669
      H   22    0.22159      0.00000     0.77715    0.00126     0.77841
      B   23    1.23015      1.99899     1.72913    0.04173     3.76985
      C   24   -0.17216      1.99908     4.15736    0.01573     6.17216
      H   25    0.22274      0.00000     0.77517    0.00209     0.77726
      C   26   -0.19047      1.99909     4.17503    0.01635     6.19047
      H   27    0.21762      0.00000     0.77991    0.00247     0.78238
      C   28   -0.62144      1.99936     4.61345    0.00863     6.62144
      H   29    0.22249      0.00000     0.77598    0.00153     0.77751
      H   30    0.21511      0.00000     0.78367    0.00122     0.78489
      H   31    0.21007      0.00000     0.78867    0.00127     0.78993
      C   32   -0.61568      1.99935     4.60886    0.00747     6.61568
      H   33    0.21690      0.00000     0.78173    0.00137     0.78310
      H   34    0.21821      0.00000     0.78063    0.00116     0.78179
      H   35    0.21651      0.00000     0.78185    0.00164     0.78349
      C   36   -0.20323      1.99919     4.18915    0.01489     6.20323
      H   37    0.21834      0.00000     0.78036    0.00130     0.78166
      C   38    0.24922      1.99924     3.73289    0.01865     5.75078
      C   39   -0.20053      1.99910     4.18629    0.01514     6.20053
      H   40    0.21937      0.00000     0.77889    0.00174     0.78063
      C   41   -0.17628      1.99920     4.16249    0.01459     6.17628
      H   42    0.22024      0.00000     0.77857    0.00118     0.77976
      C   43   -0.17962      1.99920     4.16592    0.01450     6.17962
      H   44    0.22241      0.00000     0.77642    0.00117     0.77759
      C   45   -0.19090      1.99919     4.17723    0.01448     6.19090
      H   46    0.22135      0.00000     0.77740    0.00124     0.77865
      C   47   -0.19073      1.99919     4.17662    0.01491     6.19073
      H   48    0.22123      0.00000     0.77750    0.00127     0.77877
      C   49   -0.61330      1.99936     4.60537    0.00857     6.61330
      H   50    0.21718      0.00000     0.78148    0.00134     0.78282
      H   51    0.21346      0.00000     0.78539    0.00114     0.78654
      H   52    0.22226      0.00000     0.77627    0.00147     0.77774
      C   53   -0.17847      1.99909     4.16298    0.01639     6.17847
      H   54    0.21919      0.00000     0.77767    0.00314     0.78081
      C   55   -0.19577      1.99919     4.18184    0.01474     6.19577
      H   56    0.22093      0.00000     0.77785    0.00123     0.77907
      C   57   -0.17339      1.99920     4.15972    0.01446     6.17339
      H   58    0.22161      0.00000     0.77723    0.00116     0.77839
      C   59   -0.17867      1.99908     4.16276    0.01683     6.17867
      H   60    0.23453      0.00000     0.76288    0.00259     0.76547
      C   61   -0.61998      1.99936     4.61304    0.00758     6.61998
      H   62    0.21926      0.00000     0.77923    0.00151     0.78074
      H   63    0.21858      0.00000     0.78017    0.00125     0.78142
      H   64    0.20963      0.00000     0.78906    0.00130     0.79037
      C   65    0.24244      1.99923     3.73913    0.01919     5.75756
      C   66   -0.20326      1.99919     4.18902    0.01506     6.20326
      H   67    0.22034      0.00000     0.77837    0.00129     0.77966
      C   68   -0.19783      1.99919     4.18369    0.01495     6.19783
      H   69    0.21997      0.00000     0.77867    0.00136     0.78003
     Rh   70   -0.37007     35.98570     9.35683    0.02754    45.37007
      C   71   -0.19760      1.99907     4.17923    0.01930     6.19760
      C   72   -0.14750      1.99908     4.12876    0.01966     6.14750
      C   73   -0.18250      1.99907     4.16387    0.01956     6.18250
      C   74   -0.16095      1.99908     4.14198    0.01989     6.16095
      C   75   -0.42170      1.99936     4.41056    0.01179     6.42170
      H   76    0.22565      0.00000     0.77224    0.00211     0.77435
      H   77    0.23102      0.00000     0.76671    0.00226     0.76898
      C   78   -0.41747      1.99935     4.40567    0.01246     6.41747
      C   79   -0.42438      1.99936     4.41303    0.01200     6.42438
      H   80    0.22606      0.00000     0.77184    0.00211     0.77394
      C   81   -0.41714      1.99935     4.40519    0.01259     6.41714
      H   82    0.22584      0.00000     0.77191    0.00225     0.77416
      H   83    0.22642      0.00000     0.77205    0.00153     0.77358
      H   84    0.21499      0.00000     0.78300    0.00201     0.78501
      H   85    0.23446      0.00000     0.76362    0.00191     0.76554
      H   86    0.21449      0.00000     0.78388    0.00163     0.78551
      H   87    0.21593      0.00000     0.78208    0.00199     0.78407
      H   88    0.22855      0.00000     0.76994    0.00151     0.77145
      H   89    0.21636      0.00000     0.78201    0.00162     0.78364
      H   90    0.23338      0.00000     0.76470    0.00192     0.76662
      C   91   -0.45429      1.99931     4.44040    0.01458     6.45429
      H   92    0.23650      0.00000     0.76064    0.00286     0.76350
      H   93    0.21894      0.00000     0.77816    0.00291     0.78106
      C   94   -0.38598      1.99941     4.37550    0.01107     6.38598
      H   95    0.20281      0.00000     0.79457    0.00262     0.79719
      H   96    0.20595      0.00000     0.79168    0.00237     0.79405
      C   97   -0.37616      1.99944     4.36628    0.01044     6.37616
      H   98    0.19452      0.00000     0.80358    0.00190     0.80548
      H   99    0.19617      0.00000     0.80215    0.00168     0.80383
      C  100   -0.58658      1.99947     4.58098    0.00613     6.58658
      H  101    0.19913      0.00000     0.79953    0.00134     0.80087
      H  102    0.21394      0.00000     0.78501    0.00105     0.78606
      H  103    0.19407      0.00000     0.80454    0.00139     0.80593
 =======================================================================
   * Total *    1.00000    149.94180   263.07681    0.98138   414.00000

 Normal termination of Gaussian 16 at Tue Jan 21 00:27:46 2025.
