 Gaussian 16, Revision B.01,
 Gaussian 16:  ES64L-G16RevB.01 20-Dec-2017

 ------------------------------------------
 # nmr=giao b3lyp/genecp pop=nbo scfcyc=200
 ------------------------------------------

 --------
 DS-5_SPE
 --------
 Symbolic Z-matrix:
 Charge =  1 Multiplicity = 1

                         Standard orientation:
 ---------------------------------------------------------------------
 Center     Atomic      Atomic             Coordinates (Angstroms)
 Number     Number       Type             X           Y           Z
 ---------------------------------------------------------------------
      1         15           0       -1.389470    0.072831   -0.528620
      2         15           0        1.424950   -0.043292   -0.573160
      3          6           0        2.041912    2.551997   -1.539240
      4          6           0        2.850564    3.678727   -1.656510
      5          6           0        4.120944    3.691825   -1.092030
      6          6           0        4.584503    2.572495   -0.406090
      7          6           0        3.780771    1.445625   -0.284340
      8          6           0        2.503681    1.422927   -0.858810
      9          1           0        1.054773    2.557959   -1.981880
     10          1           0        2.485305    4.545767   -2.192600
     11          1           0        4.748995    4.568524   -1.186990
     12          1           0        5.574213    2.575153    0.033190
     13          1           0        4.160720    0.578955    0.243360
     14          6           0        3.427988   -1.446714   -2.023250
     15          6           0        4.120577   -2.594815   -2.391290
     16          6           0        3.831825   -3.812965   -1.782750
     17          6           0        2.848085   -3.882943   -0.801710
     18          6           0        2.154497   -2.736873   -0.427870
     19          6           0        2.437648   -1.510993   -1.037480
     20          1           0        3.671579   -0.503514   -2.495170
     21          1           0        4.889127   -2.536606   -3.151880
     22          1           0        4.376104   -4.703875   -2.069680
     23          1           0        2.624694   -4.827943   -0.322500
     24          1           0        1.390197   -2.791822    0.338180
     25          6           0       -2.130833   -2.447168   -1.577920
     26          6           0       -2.982914   -3.536747   -1.725070
     27          6           0       -4.252444   -3.515796   -1.157500
     28          6           0       -4.669113   -2.400255   -0.437320
     29          6           0       -3.821592   -1.308766   -0.286280
     30          6           0       -2.547212   -1.318907   -0.866380
     31          1           0       -1.143483   -2.480509   -2.019900
     32          1           0       -2.652665   -4.402507   -2.285390
     33          1           0       -4.914525   -4.364205   -1.275260
     34          1           0       -5.656083   -2.377424    0.007480
     35          1           0       -4.164051   -0.446606    0.272880
     36          6           0       -1.904847    2.778982   -0.106060
     37          6           0       -2.547176    3.997163   -0.299190
     38          6           0       -3.635306    4.081854   -1.161400
     39          6           0       -4.078327    2.945774   -1.832390
     40          6           0       -3.433848    1.727624   -1.648730
     41          6           0       -2.338719    1.635202   -0.784110
     42          1           0       -1.064367    2.711991    0.574680
     43          1           0       -2.203095    4.876742    0.230400
     44          1           0       -4.140785    5.028274   -1.306470
     45          1           0       -4.929037    3.006345   -2.499580
     46          1           0       -3.798029    0.852434   -2.170400
     47          6           0        0.000720    0.030780   -1.756390
     48         45           0        0.047350   -0.083020    1.332390
     49          6           0       -1.369310    0.465981    3.045140
     50          6           0       -1.425191   -0.895009    2.832780
     51          6           0        1.500389   -0.797172    2.950910
     52          6           0        1.552390    0.578258    2.874340
     53          6           0       -0.601599    1.154180    4.158400
     54          1           0       -2.127749    1.070202    2.559330
     55          1           0       -2.238142   -1.270398    2.219860
     56          6           0       -0.688903   -1.963250    3.603600
     57          6           0        0.755658   -1.594081    4.005950
     58          1           0        2.249698   -1.347523    2.392660
     59          6           0        0.834091    1.563439    3.763480
     60          1           0        2.352391    1.014127    2.284940
     61          1           0       -1.147178    2.052921    4.450780
     62          1           0       -0.584960    0.514930    5.040930
     63          1           0       -1.264423   -2.232459    4.498270
     64          1           0       -0.669304   -2.862020    2.983350
     65          1           0        0.759328   -1.046431    4.948100
     66          1           0        1.306307   -2.517082    4.195180
     67          1           0        0.801752    2.519679    3.236730
     68          1           0        1.429362    1.742818    4.667700
     69          6           0        0.046040    0.016350   -3.091680
     70          1           0        1.032710   -0.017081   -3.552670
     71          6           0       -1.091420    0.036101   -4.054930
     72          1           0       -1.022101   -0.821729   -4.730360
     73          1           0       -2.063560    0.020202   -3.570250
     74          1           0       -1.027809    0.928561   -4.685270
 ---------------------------------------------------------------------

 SCF Done:  E(RB3LYP) =  -2149.03679928     A.U. after   16 cycles

      1  P    Isotropic =   296.0940   Anisotropy =    70.0129

      2  P    Isotropic =   298.5013   Anisotropy =    75.1309

      3  C    Isotropic =    48.2969   Anisotropy =   189.8464

      4  C    Isotropic =    49.1146   Anisotropy =   189.3586

      5  C    Isotropic =    46.5454   Anisotropy =   195.7971

      6  C    Isotropic =    48.2692   Anisotropy =   191.1641

      7  C    Isotropic =    47.6879   Anisotropy =   189.3074

      8  C    Isotropic =    44.9853   Anisotropy =   170.3336

      9  H    Isotropic =    24.4408   Anisotropy =     9.7558

     10  H    Isotropic =    24.2282   Anisotropy =     6.8148

     11  H    Isotropic =    24.0361   Anisotropy =     3.5940

     12  H    Isotropic =    24.1437   Anisotropy =     6.1111

     13  H    Isotropic =    24.6130   Anisotropy =    10.9396

     14  C    Isotropic =    46.7179   Anisotropy =   188.4694

     15  C    Isotropic =    48.3025   Anisotropy =   189.6577

     16  C    Isotropic =    45.1086   Anisotropy =   197.3296

     17  C    Isotropic =    48.9957   Anisotropy =   187.9543

     18  C    Isotropic =    43.1414   Anisotropy =   180.2934

     19  C    Isotropic =    43.3094   Anisotropy =   173.1547

     20  H    Isotropic =    24.5144   Anisotropy =    12.0704

     21  H    Isotropic =    24.2127   Anisotropy =     6.2954

     22  H    Isotropic =    23.9693   Anisotropy =     3.9154

     23  H    Isotropic =    24.0437   Anisotropy =     7.0386

     24  H    Isotropic =    23.4377   Anisotropy =    10.0858

     25  C    Isotropic =    48.6782   Anisotropy =   188.7844

     26  C    Isotropic =    48.6801   Anisotropy =   190.0629

     27  C    Isotropic =    46.4258   Anisotropy =   196.1068

     28  C    Isotropic =    48.2779   Anisotropy =   191.2075

     29  C    Isotropic =    48.3211   Anisotropy =   189.5796

     30  C    Isotropic =    47.1251   Anisotropy =   168.2339

     31  H    Isotropic =    24.3836   Anisotropy =     9.5382

     32  H    Isotropic =    24.1862   Anisotropy =     6.7853

     33  H    Isotropic =    24.0201   Anisotropy =     3.5888

     34  H    Isotropic =    24.1015   Anisotropy =     6.0979

     35  H    Isotropic =    24.5137   Anisotropy =    10.8776

     36  C    Isotropic =    41.6349   Anisotropy =   181.6537

     37  C    Isotropic =    48.8759   Anisotropy =   187.9633

     38  C    Isotropic =    45.2103   Anisotropy =   197.4062

     39  C    Isotropic =    48.7832   Anisotropy =   188.7619

     40  C    Isotropic =    46.2684   Anisotropy =   189.0850

     41  C    Isotropic =    45.6808   Anisotropy =   168.6327

     42  H    Isotropic =    23.3062   Anisotropy =     9.7356

     43  H    Isotropic =    24.0443   Anisotropy =     7.1163

     44  H    Isotropic =    23.9559   Anisotropy =     3.8734

     45  H    Isotropic =    24.1595   Anisotropy =     6.2525

     46  H    Isotropic =    24.2297   Anisotropy =    11.7451

     47  C    Isotropic =    27.5078   Anisotropy =    59.0060

     48  Rh   Isotropic =  -305.0655   Anisotropy =   334.4366

     49  C    Isotropic =    78.6360   Anisotropy =   121.5229

     50  C    Isotropic =    72.6907   Anisotropy =   122.0729

     51  C    Isotropic =    78.9252   Anisotropy =   121.4173

     52  C    Isotropic =    72.9452   Anisotropy =   121.9591

     53  C    Isotropic =   154.0768   Anisotropy =    24.7296

     54  H    Isotropic =    26.9668   Anisotropy =     5.3048

     55  H    Isotropic =    26.7427   Anisotropy =     5.0015

     56  C    Isotropic =   148.3261   Anisotropy =    29.0488

     57  C    Isotropic =   153.9816   Anisotropy =    24.7847

     58  H    Isotropic =    26.7962   Anisotropy =     5.7436

     59  C    Isotropic =   148.1391   Anisotropy =    28.9362

     60  H    Isotropic =    26.5572   Anisotropy =     4.8252

     61  H    Isotropic =    29.9074   Anisotropy =    11.2903

     62  H    Isotropic =    29.8319   Anisotropy =     9.6644

     63  H    Isotropic =    29.2654   Anisotropy =    12.4393

     64  H    Isotropic =    29.3105   Anisotropy =     7.1006

     65  H    Isotropic =    29.7996   Anisotropy =     9.6396

     66  H    Isotropic =    29.8513   Anisotropy =    11.4123

     67  H    Isotropic =    29.3250   Anisotropy =     7.1234

     68  H    Isotropic =    29.2402   Anisotropy =    12.5016

     69  C    Isotropic =    13.4260   Anisotropy =   204.1877

     70  H    Isotropic =    24.8961   Anisotropy =     8.9507

     71  C    Isotropic =   163.2687   Anisotropy =    21.3430

     72  H    Isotropic =    30.2011   Anisotropy =     9.1156

     73  H    Isotropic =    29.9813   Anisotropy =     4.9416

     74  H    Isotropic =    30.1972   Anisotropy =     9.4941

 The electronic state is 1-A.
 Alpha  occ. eigenvalues --  -77.23795 -77.23512 -10.31222 -10.30089 -10.29679
 Alpha  occ. eigenvalues --  -10.29608 -10.29489 -10.29403 -10.28843 -10.28824
 Alpha  occ. eigenvalues --  -10.28619 -10.28618 -10.28294 -10.28285 -10.28258
 Alpha  occ. eigenvalues --  -10.28203 -10.28162 -10.28140 -10.28134 -10.28050
 Alpha  occ. eigenvalues --  -10.27685 -10.27634 -10.27567 -10.27564 -10.27541
 Alpha  occ. eigenvalues --  -10.27533 -10.27524 -10.27466 -10.27435 -10.27432
 Alpha  occ. eigenvalues --  -10.27428 -10.27396 -10.27321 -10.27310 -10.27306
 Alpha  occ. eigenvalues --  -10.27100 -10.27097  -6.69740  -6.69483  -4.86029
 Alpha  occ. eigenvalues --   -4.85963  -4.85767  -4.85704  -4.85642  -4.85388
 Alpha  occ. eigenvalues --   -3.31294  -2.08190  -2.07523  -2.04762  -0.96852
 Alpha  occ. eigenvalues --   -0.96595  -0.96106  -0.95960  -0.94208  -0.92307
 Alpha  occ. eigenvalues --   -0.88948  -0.87793  -0.87403  -0.87257  -0.85345
 Alpha  occ. eigenvalues --   -0.85262  -0.85192  -0.85106  -0.84902  -0.84761
 Alpha  occ. eigenvalues --   -0.82233  -0.80112  -0.77611  -0.76078  -0.75329
 Alpha  occ. eigenvalues --   -0.71437  -0.71172  -0.71053  -0.70861  -0.70355
 Alpha  occ. eigenvalues --   -0.70233  -0.70096  -0.69532  -0.67090  -0.65625
 Alpha  occ. eigenvalues --   -0.64013  -0.62420  -0.62298  -0.62053  -0.61011
 Alpha  occ. eigenvalues --   -0.60529  -0.59773  -0.57452  -0.56842  -0.56275
 Alpha  occ. eigenvalues --   -0.56092  -0.56034  -0.55972  -0.55599  -0.55534
 Alpha  occ. eigenvalues --   -0.55440  -0.54947  -0.54110  -0.53525  -0.53427
 Alpha  occ. eigenvalues --   -0.53211  -0.52705  -0.52614  -0.52537  -0.52406
 Alpha  occ. eigenvalues --   -0.52385  -0.52217  -0.51646  -0.51240  -0.49351
 Alpha  occ. eigenvalues --   -0.48614  -0.48359  -0.48000  -0.47689  -0.47635
 Alpha  occ. eigenvalues --   -0.47290  -0.47175  -0.46274  -0.45936  -0.45771
 Alpha  occ. eigenvalues --   -0.45100  -0.45075  -0.44981  -0.44889  -0.44397
 Alpha  occ. eigenvalues --   -0.43643  -0.43263  -0.43179  -0.42784  -0.42498
 Alpha  occ. eigenvalues --   -0.41250  -0.38971  -0.38024  -0.37532  -0.36779
 Alpha  occ. eigenvalues --   -0.36239  -0.36159  -0.35873  -0.35818  -0.35766
 Alpha  occ. eigenvalues --   -0.35560  -0.34800  -0.34277  -0.33972  -0.33503
 Alpha  occ. eigenvalues --   -0.30443
 Alpha virt. eigenvalues --   -0.17632  -0.14800  -0.13934  -0.13632  -0.12690
 Alpha virt. eigenvalues --   -0.12176  -0.12009  -0.11570  -0.10846  -0.10577
 Alpha virt. eigenvalues --   -0.10004  -0.09053  -0.07395  -0.06314  -0.05990

 Mulliken charges:
               1
     1  P    0.428250
     2  P    0.440712
     3  C   -0.101463
     4  C   -0.095371
     5  C   -0.103975
     6  C   -0.080107
     7  C   -0.159056
     8  C   -0.101634
     9  H    0.164626
    10  H    0.132462
    11  H    0.137820
    12  H    0.136046
    13  H    0.163137
    14  C   -0.064874
    15  C   -0.097501
    16  C   -0.087678
    17  C   -0.107181
    18  C   -0.071156
    19  C   -0.240907
    20  H    0.160471
    21  H    0.136118
    22  H    0.139237
    23  H    0.130280
    24  H    0.178345
    25  C   -0.086145
    26  C   -0.099662
    27  C   -0.100121
    28  C   -0.085433
    29  C   -0.149561
    30  C   -0.122692
    31  H    0.162369
    32  H    0.132871
    33  H    0.138925
    34  H    0.136123
    35  H    0.164587
    36  C   -0.068436
    37  C   -0.102867
    38  C   -0.089350
    39  C   -0.101752
    40  C   -0.074226
    41  C   -0.226005
    42  H    0.185284
    43  H    0.131037
    44  H    0.138951
    45  H    0.136367
    46  H    0.167197
    47  C   -0.592336
    48  Rh  -0.693677
    49  C   -0.030353
    50  C   -0.105509
    51  C   -0.036175
    52  C   -0.099461
    53  C   -0.348701
    54  H    0.196381
    55  H    0.207505
    56  C   -0.226937
    57  C   -0.347109
    58  H    0.197327
    59  C   -0.230850
    60  H    0.203358
    61  H    0.168587
    62  H    0.167257
    63  H    0.171724
    64  H    0.132420
    65  H    0.167020
    66  H    0.168418
    67  H    0.134371
    68  H    0.171804
    69  C    0.152529
    70  H    0.159594
    71  C   -0.372218
    72  H    0.155786
    73  H    0.146376
    74  H    0.158805
 Sum of Mulliken charges =   1.00000

 Dipole moment (field-independent basis, Debye):
    X=             -0.2368    Y=              0.0054    Z=             -1.2667  Tot=              1.2886
 Quadrupole moment (field-independent basis, Debye-Ang):
   XX=           -197.2511   YY=           -202.3852   ZZ=           -209.6191
   XY=             -0.2418   XZ=              0.5330   YZ=              0.3619

 Summary of Natural Population Analysis:

                                       Natural Population
                Natural  -----------------------------------------------
    Atom  No    Charge         Core      Valence    Rydberg      Total
 -----------------------------------------------------------------------
      P    1    1.11374      9.99622     3.83568    0.05436    13.88626
      P    2    1.12452      9.99623     3.82513    0.05413    13.87548
      C    3   -0.19797      1.99910     4.18337    0.01550     6.19797
      C    4   -0.19091      1.99920     4.17711    0.01460     6.19091
      C    5   -0.18289      1.99920     4.16899    0.01470     6.18289
      C    6   -0.19039      1.99920     4.17651    0.01469     6.19039
      C    7   -0.20301      1.99909     4.18861    0.01531     6.20301
      C    8   -0.33788      1.99899     4.31495    0.02394     6.33788
      H    9    0.21900      0.00000     0.77886    0.00213     0.78100
      H   10    0.22098      0.00000     0.77780    0.00123     0.77902
      H   11    0.22274      0.00000     0.77609    0.00117     0.77726
      H   12    0.22272      0.00000     0.77606    0.00122     0.77728
      H   13    0.21800      0.00000     0.78016    0.00184     0.78200
      C   14   -0.19472      1.99910     4.17977    0.01586     6.19472
      C   15   -0.19197      1.99920     4.17815    0.01461     6.19197
      C   16   -0.17699      1.99921     4.16321    0.01457     6.17699
      C   17   -0.19570      1.99920     4.18196    0.01454     6.19570
      C   18   -0.18879      1.99910     4.17428    0.01542     6.18879
      C   19   -0.34170      1.99899     4.31841    0.02430     6.34170
      H   20    0.22107      0.00000     0.77707    0.00186     0.77893
      H   21    0.22287      0.00000     0.77590    0.00123     0.77713
      H   22    0.22279      0.00000     0.77604    0.00118     0.77721
      H   23    0.22093      0.00000     0.77784    0.00123     0.77907
      H   24    0.22192      0.00000     0.77619    0.00189     0.77808
      C   25   -0.19669      1.99909     4.18218    0.01542     6.19669
      C   26   -0.19051      1.99920     4.17674    0.01456     6.19051
      C   27   -0.18258      1.99920     4.16870    0.01468     6.18258
      C   28   -0.19055      1.99920     4.17665    0.01470     6.19055
      C   29   -0.20507      1.99909     4.19080    0.01518     6.20507
      C   30   -0.34069      1.99899     4.31827    0.02344     6.34069
      H   31    0.21865      0.00000     0.77915    0.00220     0.78135
      H   32    0.22137      0.00000     0.77741    0.00122     0.77863
      H   33    0.22309      0.00000     0.77573    0.00117     0.77691
      H   34    0.22302      0.00000     0.77576    0.00122     0.77698
      H   35    0.21923      0.00000     0.77888    0.00189     0.78077
      C   36   -0.18732      1.99910     4.17279    0.01543     6.18732
      C   37   -0.19616      1.99920     4.18246    0.01451     6.19616
      C   38   -0.17601      1.99921     4.16226    0.01454     6.17601
      C   39   -0.19280      1.99920     4.17900    0.01460     6.19280
      C   40   -0.19340      1.99909     4.17865    0.01566     6.19340
      C   41   -0.34172      1.99897     4.31862    0.02413     6.34172
      H   42    0.22363      0.00000     0.77442    0.00195     0.77637
      H   43    0.22124      0.00000     0.77753    0.00123     0.77876
      H   44    0.22301      0.00000     0.77582    0.00117     0.77699
      H   45    0.22297      0.00000     0.77580    0.00123     0.77703
      H   46    0.21935      0.00000     0.77871    0.00194     0.78065
      C   47   -0.63053      1.99898     4.60431    0.02724     6.63053
     Rh   48   -0.39640     35.98601     9.38128    0.02912    45.39640
      C   49   -0.17663      1.99907     4.15797    0.01960     6.17663
      C   50   -0.15782      1.99907     4.13890    0.01984     6.15782
      C   51   -0.17713      1.99906     4.15834    0.01973     6.17713
      C   52   -0.15727      1.99907     4.13830    0.01989     6.15727
      C   53   -0.42355      1.99936     4.41237    0.01181     6.42355
      H   54    0.22708      0.00000     0.77094    0.00198     0.77292
      H   55    0.22980      0.00000     0.76799    0.00220     0.77020
      C   56   -0.41853      1.99935     4.40653    0.01264     6.41853
      C   57   -0.42359      1.99936     4.41241    0.01182     6.42359
      H   58    0.22673      0.00000     0.77121    0.00206     0.77327
      C   59   -0.41854      1.99935     4.40654    0.01264     6.41854
      H   60    0.22913      0.00000     0.76865    0.00222     0.77087
      H   61    0.22811      0.00000     0.77041    0.00148     0.77189
      H   62    0.21450      0.00000     0.78351    0.00199     0.78550
      H   63    0.23352      0.00000     0.76457    0.00191     0.76648
      H   64    0.21654      0.00000     0.78193    0.00153     0.78346
      H   65    0.21455      0.00000     0.78345    0.00200     0.78545
      H   66    0.22792      0.00000     0.77058    0.00150     0.77208
      H   67    0.21626      0.00000     0.78219    0.00155     0.78374
      H   68    0.23361      0.00000     0.76448    0.00191     0.76639
      C   69   -0.06125      1.99899     4.04494    0.01732     6.06125
      H   70    0.20982      0.00000     0.78730    0.00288     0.79018
      C   71   -0.64435      1.99940     4.63593    0.00901     6.64435
      H   72    0.23899      0.00000     0.75974    0.00127     0.76101
      H   73    0.21768      0.00000     0.78036    0.00196     0.78232
      H   74    0.24096      0.00000     0.75776    0.00129     0.75904
 =======================================================================
   * Total *    1.00000    125.94863   193.27734    0.77403   320.00000

 Normal termination of Gaussian 16 at Sun Jan 19 21:19:13 2025.
