 Gaussian 16, Revision B.01,
 Gaussian 16:  ES64L-G16RevB.01 20-Dec-2017

 ------------------------------------------
 # nmr=giao b3lyp/genecp pop=nbo scfcyc=200
 ------------------------------------------

 ---------
 DS-58_SPE
 ---------
 Symbolic Z-matrix:
 Charge =  1 Multiplicity = 1

                         Standard orientation:
 ---------------------------------------------------------------------
 Center     Atomic      Atomic             Coordinates (Angstroms)
 Number     Number       Type             X           Y           Z
 ---------------------------------------------------------------------
      1         15           0       -0.349870   -0.025870   -0.126941
      2         45           0        1.683439   -0.527191    1.092669
      3          6           0        3.788379   -1.129272    1.686629
      4          6           0        3.332119   -0.152582    2.552809
      5          6           0        0.985299   -1.842390    2.834349
      6          6           0        1.315558   -2.652511    1.770429
      7          1           0        4.401479   -0.800072    0.855049
      8          6           0        3.870178   -2.611992    1.998589
      9          1           0        3.642710    0.868808    2.355479
     10          6           0        2.765939   -0.366831    3.934589
     11          6           0        1.842309   -1.596921    4.061349
     12          1           0       -0.060411   -1.586390    2.939559
     13          1           0        0.498638   -2.991520    1.143509
     14          6           0        2.612598   -3.397521    1.574289
     15          1           0        4.067258   -2.752252    3.061279
     16          1           0        4.732638   -3.030302    1.477179
     17          1           0        3.584539   -0.439082    4.661679
     18          1           0        2.205910    0.530499    4.205869
     19          1           0        1.183929   -1.447761    4.918649
     20          1           0        2.426128   -2.489731    4.284839
     21          1           0        2.570637   -4.353441    2.111479
     22          1           0        2.693938   -3.654541    0.516549
     23          7           0       -1.116401   -1.258379   -1.053171
     24          7           0       -1.558660    0.941091    0.608499
     25          6           0        0.598480    1.120630   -1.227321
     26          7           0        0.254620    1.608790   -2.379521
     27          7           0       -0.076489    1.986900   -3.391691
     28          6           0       -1.856139    2.334461    0.155579
     29          6           0       -3.153129    2.483682   -0.664941
     30          6           0       -1.787739    3.405031    1.258369
     31          1           0       -1.041699    2.586141   -0.521751
     32          6           0       -3.283138    3.899302   -1.246591
     33          1           0       -4.023129    2.268642   -0.041731
     34          1           0       -3.160670    1.757292   -1.479821
     35          6           0       -1.912068    4.814281    0.660209
     36          1           0       -2.594349    3.264161    1.981179
     37          1           0       -0.846089    3.312620    1.803459
     38          6           0       -3.194348    4.972462   -0.159771
     39          1           0       -4.226538    3.983472   -1.791251
     40          1           0       -2.487598    4.063401   -1.982931
     41          1           0       -1.878328    5.553161    1.464499
     42          1           0       -1.045698    5.015951    0.018749
     43          1           0       -3.237397    5.968492   -0.606681
     44          1           0       -4.062078    4.892232    0.504669
     45          6           0       -2.553511   -1.189309   -1.436181
     46          6           0       -2.828071   -1.146949   -2.949731
     47          6           0       -3.433092   -2.261288   -0.759421
     48          1           0       -2.892201   -0.236048   -1.033361
     49          6           0       -4.318551   -0.909218   -3.234501
     50          1           0       -2.535562   -2.093329   -3.411401
     51          1           0       -2.226731   -0.364329   -3.419181
     52          6           0       -4.921501   -2.020287   -1.050861
     53          1           0       -3.167442   -3.255988   -1.116991
     54          1           0       -3.249932   -2.255458    0.317779
     55          6           0       -5.199351   -1.960757   -2.555201
     56          1           0       -4.486361   -0.910108   -4.314171
     57          1           0       -4.604840    0.087152   -2.879011
     58          1           0       -5.516812   -2.808347   -0.583251
     59          1           0       -5.241701   -1.078477   -0.591011
     60          1           0       -6.254711   -1.743887   -2.736621
     61          1           0       -5.002702   -2.942507   -3.000821
     62          6           0       -0.163692   -2.261080   -1.609961
     63          6           0       -0.635542   -3.720840   -1.514551
     64          6           0        0.349589   -1.967210   -3.036681
     65          1           0        0.718348   -2.178330   -0.960611
     66          6           0        0.484127   -4.693760   -1.912771
     67          1           0       -1.484812   -3.880269   -2.183081
     68          1           0       -0.983752   -3.938139   -0.502451
     69          6           0        1.479368   -2.932361   -3.422371
     70          1           0       -0.461501   -2.066130   -3.758601
     71          1           0        0.702469   -0.936850   -3.100391
     72          6           0        1.033157   -4.392361   -3.309551
     73          1           0        0.108007   -5.718420   -1.864391
     74          1           0        1.299377   -4.631041   -1.183011
     75          1           0        1.816738   -2.715241   -4.438891
     76          1           0        2.342578   -2.765861   -2.766201
     77          1           0        1.863767   -5.063171   -3.541881
     78          1           0        0.255817   -4.591160   -4.055631
     79          6           0        2.749381    2.889199   -0.149831
     80          6           0        3.510260    0.927718   -1.825161
     81          6           0        3.532561    3.316148   -1.375451
     82          1           0        3.363511    2.938008    0.755919
     83          1           0        1.867511    3.506379    0.034779
     84          6           0        3.912761    2.337538   -2.211061
     85          1           0        4.364000    0.353908   -1.449551
     86          1           0        3.093730    0.355828   -2.657501
     87         15           0        2.246260    1.123539   -0.470651
     88          6           0        4.725411    2.479298   -3.463581
     89          1           0        4.176961    2.092518   -4.327841
     90          1           0        4.997511    3.511077   -3.675391
     91          1           0        5.649501    1.897147   -3.392321
     92          6           0        3.831432    4.780498   -1.500191
     93          1           0        4.410952    5.018898   -2.389481
     94          1           0        2.906032    5.363359   -1.536041
     95          1           0        4.392052    5.135618   -0.629861
     96          6           0       -2.143440    0.345131    1.850209
     97          6           0       -1.491810    0.816031    3.165869
     98          6           0       -3.673520    0.458712    1.945409
     99          1           0       -1.931361   -0.727689    1.767369
    100          6           0       -2.029150    0.021601    4.365149
    101          1           0       -1.701099    1.872231    3.330539
    102          1           0       -0.406230    0.719300    3.085519
    103          6           0       -4.211161   -0.331098    3.147339
    104          1           0       -3.961060    1.506752    2.057659
    105          1           0       -4.133850    0.098592    1.025419
    106          6           0       -3.555350    0.109262    4.458329
    107          1           0       -1.569740    0.391271    5.285389
    108          1           0       -1.740531   -1.032709    4.276879
    109          1           0       -5.295451   -0.210347    3.204439
    110          1           0       -4.028201   -1.400528    2.990599
    111          1           0       -3.919611   -0.502088    5.287269
    112          1           0       -3.846210    1.141702    4.681899
 ---------------------------------------------------------------------

 SCF Done:  E(RB3LYP) =  -2538.65290282     A.U. after   17 cycles

      1  P    Isotropic =   205.8235   Anisotropy =    70.7556

      2  Rh   Isotropic =  -332.4049   Anisotropy =   366.0070

      3  C    Isotropic =    83.8011   Anisotropy =   115.4547

      4  C    Isotropic =    80.6770   Anisotropy =   112.1443

      5  C    Isotropic =    78.7505   Anisotropy =   120.7953

      6  C    Isotropic =    73.5709   Anisotropy =   120.5614

      7  H    Isotropic =    27.5330   Anisotropy =     7.4277

      8  C    Isotropic =   154.0829   Anisotropy =    24.8646

      9  H    Isotropic =    26.9241   Anisotropy =     5.7392

     10  C    Isotropic =   146.7837   Anisotropy =    28.8436

     11  C    Isotropic =   154.7882   Anisotropy =    23.3992

     12  H    Isotropic =    27.1463   Anisotropy =     7.9754

     13  H    Isotropic =    26.5881   Anisotropy =     3.8325

     14  C    Isotropic =   147.1214   Anisotropy =    27.9473

     15  H    Isotropic =    29.8682   Anisotropy =     9.7304

     16  H    Isotropic =    29.8752   Anisotropy =    11.5718

     17  H    Isotropic =    29.1615   Anisotropy =    12.9715

     18  H    Isotropic =    29.1252   Anisotropy =     6.7648

     19  H    Isotropic =    29.9312   Anisotropy =     9.8927

     20  H    Isotropic =    29.9066   Anisotropy =     9.6134

     21  H    Isotropic =    29.2294   Anisotropy =    11.8532

     22  H    Isotropic =    28.9483   Anisotropy =     7.9478

     23  N    Isotropic =   149.7641   Anisotropy =    29.8127

     24  N    Isotropic =   148.4793   Anisotropy =    36.8301

     25  C    Isotropic =   129.6278   Anisotropy =    53.8655

     26  N    Isotropic =   -19.0991   Anisotropy =   389.8530

     27  N    Isotropic =  -129.9378   Anisotropy =   131.2229

     28  C    Isotropic =   115.9896   Anisotropy =    52.7605

     29  C    Isotropic =   144.4083   Anisotropy =    21.5163

     30  C    Isotropic =   143.8416   Anisotropy =    15.8789

     31  H    Isotropic =    28.6251   Anisotropy =     8.5407

     32  C    Isotropic =   152.8409   Anisotropy =    10.9456

     33  H    Isotropic =    30.0225   Anisotropy =     4.3300

     34  H    Isotropic =    30.3039   Anisotropy =     8.6967

     35  C    Isotropic =   152.7238   Anisotropy =     9.9786

     36  H    Isotropic =    29.9084   Anisotropy =     5.6974

     37  H    Isotropic =    30.0531   Anisotropy =     4.6541

     38  C    Isotropic =   156.2283   Anisotropy =     3.1144

     39  H    Isotropic =    30.0233   Anisotropy =    10.5361

     40  H    Isotropic =    30.7076   Anisotropy =     6.4431

     41  H    Isotropic =    29.8733   Anisotropy =    10.5472

     42  H    Isotropic =    30.6577   Anisotropy =     7.2915

     43  H    Isotropic =    30.2008   Anisotropy =    11.8641

     44  H    Isotropic =    30.6229   Anisotropy =     9.2762

     45  C    Isotropic =   125.3563   Anisotropy =    45.0007

     46  C    Isotropic =   142.7931   Anisotropy =    18.3671

     47  C    Isotropic =   144.1976   Anisotropy =    24.2790

     48  H    Isotropic =    28.5370   Anisotropy =     8.8012

     49  C    Isotropic =   154.0555   Anisotropy =     9.6433

     50  H    Isotropic =    30.0374   Anisotropy =     6.0319

     51  H    Isotropic =    30.6572   Anisotropy =     4.2129

     52  C    Isotropic =   153.6210   Anisotropy =    10.6947

     53  H    Isotropic =    30.1059   Anisotropy =     6.3868

     54  H    Isotropic =    30.7558   Anisotropy =     4.8808

     55  C    Isotropic =   156.0585   Anisotropy =     3.4326

     56  H    Isotropic =    30.0584   Anisotropy =    11.0103

     57  H    Isotropic =    30.6907   Anisotropy =     6.5592

     58  H    Isotropic =    30.1662   Anisotropy =    10.4691

     59  H    Isotropic =    30.6852   Anisotropy =     6.4203

     60  H    Isotropic =    30.2795   Anisotropy =    11.7841

     61  H    Isotropic =    30.7344   Anisotropy =     9.6827

     62  C    Isotropic =   120.0952   Anisotropy =    41.9325

     63  C    Isotropic =   144.7471   Anisotropy =    12.7082

     64  C    Isotropic =   146.4724   Anisotropy =    19.9129

     65  H    Isotropic =    27.9960   Anisotropy =     8.3986

     66  C    Isotropic =   152.8073   Anisotropy =     8.7698

     67  H    Isotropic =    29.9609   Anisotropy =     6.6167

     68  H    Isotropic =    30.2518   Anisotropy =     3.3499

     69  C    Isotropic =   153.4220   Anisotropy =    10.1091

     70  H    Isotropic =    30.0333   Anisotropy =     5.9277

     71  H    Isotropic =    30.5006   Anisotropy =     6.5517

     72  C    Isotropic =   155.6660   Anisotropy =     3.0722

     73  H    Isotropic =    29.8685   Anisotropy =    10.8012

     74  H    Isotropic =    30.4788   Anisotropy =     7.1216

     75  H    Isotropic =    29.9338   Anisotropy =    10.2937

     76  H    Isotropic =    30.4405   Anisotropy =     6.0406

     77  H    Isotropic =    30.1199   Anisotropy =    11.3821

     78  H    Isotropic =    30.5537   Anisotropy =     9.7304

     79  C    Isotropic =   136.9362   Anisotropy =    50.6316

     80  C    Isotropic =   139.2487   Anisotropy =    52.9216

     81  C    Isotropic =    44.1840   Anisotropy =   125.4481

     82  H    Isotropic =    29.1036   Anisotropy =     5.4958

     83  H    Isotropic =    29.3308   Anisotropy =     5.4703

     84  C    Isotropic =    44.2464   Anisotropy =   125.4996

     85  H    Isotropic =    29.0086   Anisotropy =     4.9469

     86  H    Isotropic =    29.2500   Anisotropy =     5.3659

     87  P    Isotropic =   288.3590   Anisotropy =    46.1612

     88  C    Isotropic =   167.5044   Anisotropy =    30.8265

     89  H    Isotropic =    30.2512   Anisotropy =     7.8858

     90  H    Isotropic =    29.5976   Anisotropy =     8.5698

     91  H    Isotropic =    30.3213   Anisotropy =     9.7205

     92  C    Isotropic =   167.2157   Anisotropy =    31.0310

     93  H    Isotropic =    29.5751   Anisotropy =     8.5067

     94  H    Isotropic =    30.2437   Anisotropy =     7.9331

     95  H    Isotropic =    30.3040   Anisotropy =     9.7470

     96  C    Isotropic =   118.4050   Anisotropy =    43.7641

     97  C    Isotropic =   143.8116   Anisotropy =    23.1582

     98  C    Isotropic =   146.6704   Anisotropy =    13.4362

     99  H    Isotropic =    29.4742   Anisotropy =     5.8260

    100  C    Isotropic =   153.4496   Anisotropy =    12.1060

    101  H    Isotropic =    29.7690   Anisotropy =     5.6824

    102  H    Isotropic =    29.3949   Anisotropy =     9.1249

    103  C    Isotropic =   153.5890   Anisotropy =     9.7162

    104  H    Isotropic =    29.9838   Anisotropy =     5.2699

    105  H    Isotropic =    30.0875   Anisotropy =     7.4996

    106  C    Isotropic =   155.9100   Anisotropy =     2.5678

    107  H    Isotropic =    30.0338   Anisotropy =     9.6723

    108  H    Isotropic =    30.7742   Anisotropy =     6.2095

    109  H    Isotropic =    29.9868   Anisotropy =    10.7862

    110  H    Isotropic =    30.7561   Anisotropy =     6.2771

    111  H    Isotropic =    30.2236   Anisotropy =    11.7123

    112  H    Isotropic =    30.6053   Anisotropy =     9.4956

 The electronic state is 1-A.
 Alpha  occ. eigenvalues --  -77.27268 -77.23903 -14.57361 -14.50927 -14.42508
 Alpha  occ. eigenvalues --  -14.42183 -10.32415 -10.30573 -10.30153 -10.30129
 Alpha  occ. eigenvalues --  -10.29453 -10.29211 -10.29151 -10.29134 -10.29024
 Alpha  occ. eigenvalues --  -10.29017 -10.28724 -10.28138 -10.28055 -10.27555
 Alpha  occ. eigenvalues --  -10.27530 -10.27349 -10.27296 -10.25767 -10.25753
 Alpha  occ. eigenvalues --  -10.25471 -10.25465 -10.25445 -10.25242 -10.25231
 Alpha  occ. eigenvalues --  -10.25149 -10.25106 -10.25007 -10.24984 -10.24983
 Alpha  occ. eigenvalues --  -10.24869 -10.24846 -10.24679 -10.24575 -10.24458
 Alpha  occ. eigenvalues --  -10.24454 -10.24317 -10.24305 -10.24191 -10.23840
 Alpha  occ. eigenvalues --   -6.72411  -6.69859  -4.88782  -4.88692  -4.88319
 Alpha  occ. eigenvalues --   -4.86194  -4.86019  -4.85764  -3.31651  -2.08507
 Alpha  occ. eigenvalues --   -2.07905  -2.05084  -1.23684  -1.02851  -0.99990
 Alpha  occ. eigenvalues --   -0.97293  -0.94673  -0.94522  -0.92214  -0.91961
 Alpha  occ. eigenvalues --   -0.90871  -0.90022  -0.89239  -0.88077  -0.85425
 Alpha  occ. eigenvalues --   -0.84237  -0.83563  -0.83404  -0.83253  -0.83222
 Alpha  occ. eigenvalues --   -0.82912  -0.82494  -0.82144  -0.80419  -0.79891
 Alpha  occ. eigenvalues --   -0.78201  -0.77868  -0.76490  -0.73737  -0.71390
 Alpha  occ. eigenvalues --   -0.71112  -0.70670  -0.70508  -0.70481  -0.70259
 Alpha  occ. eigenvalues --   -0.69304  -0.68932  -0.67001  -0.66056  -0.65799
 Alpha  occ. eigenvalues --   -0.65167  -0.64761  -0.64373  -0.63988  -0.62577
 Alpha  occ. eigenvalues --   -0.61454  -0.61105  -0.60689  -0.60137  -0.59755
 Alpha  occ. eigenvalues --   -0.58415  -0.58066  -0.57500  -0.57363  -0.56803
 Alpha  occ. eigenvalues --   -0.56440  -0.56278  -0.56182  -0.55733  -0.55375
 Alpha  occ. eigenvalues --   -0.53938  -0.53787  -0.53673  -0.53598  -0.53261
 Alpha  occ. eigenvalues --   -0.53239  -0.53032  -0.52894  -0.52767  -0.52575
 Alpha  occ. eigenvalues --   -0.52293  -0.52202  -0.52108  -0.51688  -0.51351
 Alpha  occ. eigenvalues --   -0.50271  -0.49542  -0.49387  -0.49001  -0.48932
 Alpha  occ. eigenvalues --   -0.48843  -0.48662  -0.48205  -0.48184  -0.48126
 Alpha  occ. eigenvalues --   -0.47793  -0.47062  -0.46929  -0.46764  -0.46580
 Alpha  occ. eigenvalues --   -0.46421  -0.46370  -0.46230  -0.46208  -0.46062
 Alpha  occ. eigenvalues --   -0.45887  -0.45509  -0.44522  -0.44197  -0.44068
 Alpha  occ. eigenvalues --   -0.43884  -0.43770  -0.43732  -0.43291  -0.43119
 Alpha  occ. eigenvalues --   -0.42910  -0.42833  -0.42460  -0.42277  -0.41924
 Alpha  occ. eigenvalues --   -0.41207  -0.40981  -0.40501  -0.40364  -0.40202
 Alpha  occ. eigenvalues --   -0.39939  -0.39873  -0.39500  -0.39340  -0.39068
 Alpha  occ. eigenvalues --   -0.38915  -0.38656  -0.37651  -0.37221  -0.35800
 Alpha  occ. eigenvalues --   -0.35204  -0.34197  -0.33866  -0.33755  -0.32877
 Alpha  occ. eigenvalues --   -0.31803  -0.30250
 Alpha virt. eigenvalues --   -0.17585  -0.16595  -0.13706  -0.11638  -0.09461
 Alpha virt. eigenvalues --   -0.08897  -0.08502  -0.07464  -0.07201  -0.06644
 Alpha virt. eigenvalues --   -0.06316  -0.05913  -0.04979  -0.04763  -0.04544

 Mulliken charges:
               1
     1  P    0.616103
     2  Rh  -0.596358
     3  C   -0.033495
     4  C   -0.088511
     5  C    0.012512
     6  C   -0.127078
     7  H    0.173829
     8  C   -0.364238
     9  H    0.174959
    10  C   -0.212788
    11  C   -0.365817
    12  H    0.161730
    13  H    0.204740
    14  C   -0.209339
    15  H    0.168217
    16  H    0.168334
    17  H    0.170781
    18  H    0.135427
    19  H    0.168938
    20  H    0.170368
    21  H    0.171597
    22  H    0.127175
    23  N   -0.220829
    24  N   -0.241628
    25  C   -0.749090
    26  N    0.441788
    27  N   -0.126433
    28  C   -0.059417
    29  C   -0.207139
    30  C   -0.285140
    31  H    0.119995
    32  C   -0.262827
    33  H    0.139927
    34  H    0.128490
    35  C   -0.252388
    36  H    0.127658
    37  H    0.149665
    38  C   -0.219888
    39  H    0.144714
    40  H    0.121551
    41  H    0.144830
    42  H    0.110969
    43  H    0.144908
    44  H    0.116330
    45  C   -0.048600
    46  C   -0.233653
    47  C   -0.247637
    48  H    0.102866
    49  C   -0.256190
    50  H    0.122170
    51  H    0.137741
    52  C   -0.235995
    53  H    0.138237
    54  H    0.136488
    55  C   -0.235962
    56  H    0.145818
    57  H    0.120974
    58  H    0.143622
    59  H    0.112447
    60  H    0.144431
    61  H    0.115664
    62  C   -0.111595
    63  C   -0.255797
    64  C   -0.230556
    65  H    0.126499
    66  C   -0.260309
    67  H    0.135235
    68  H    0.154059
    69  C   -0.249155
    70  H    0.142977
    71  H    0.125014
    72  C   -0.227800
    73  H    0.148376
    74  H    0.108176
    75  H    0.145035
    76  H    0.103785
    77  H    0.143740
    78  H    0.119941
    79  C   -0.362260
    80  C   -0.378856
    81  C    0.009774
    82  H    0.175053
    83  H    0.169466
    84  C   -0.006687
    85  H    0.175054
    86  H    0.171861
    87  P    0.620225
    88  C   -0.378276
    89  H    0.141610
    90  H    0.139358
    91  H    0.139524
    92  C   -0.381286
    93  H    0.139629
    94  H    0.139685
    95  H    0.140568
    96  C   -0.105817
    97  C   -0.255501
    98  C   -0.256553
    99  H    0.131661
   100  C   -0.247458
   101  H    0.151045
   102  H    0.170675
   103  C   -0.252159
   104  H    0.130365
   105  H    0.150055
   106  C   -0.234614
   107  H    0.141691
   108  H    0.119227
   109  H    0.147442
   110  H    0.116621
   111  H    0.147300
   112  H    0.118404
 Sum of Mulliken charges =   1.00000

 Dipole moment (field-independent basis, Debye):
    X=              3.7257    Y=              0.4194    Z=              1.4270  Tot=              4.0116
 Quadrupole moment (field-independent basis, Debye-Ang):
   XX=           -257.9950   YY=           -272.9676   ZZ=           -281.0799
   XY=              2.8491   XZ=             -1.8103   YZ=             -1.0152

 Summary of Natural Population Analysis:

                                       Natural Population
                Natural  -----------------------------------------------
    Atom  No    Charge         Core      Valence    Rydberg      Total
 -----------------------------------------------------------------------
      P    1    1.55097      9.99604     3.38032    0.07266    13.44903
     Rh    2   -0.40013     35.98502     9.38388    0.03123    45.40013
      C    3   -0.17254      1.99907     4.15358    0.01989     6.17254
      C    4   -0.16071      1.99907     4.14134    0.02030     6.16071
      C    5   -0.18241      1.99907     4.16346    0.01988     6.18241
      C    6   -0.15674      1.99908     4.13745    0.02022     6.15674
      H    7    0.21856      0.00000     0.77926    0.00218     0.78144
      C    8   -0.42240      1.99936     4.41112    0.01191     6.42240
      H    9    0.21995      0.00000     0.77791    0.00214     0.78005
      C   10   -0.41720      1.99935     4.40515    0.01271     6.41720
      C   11   -0.42481      1.99936     4.41286    0.01259     6.42481
      H   12    0.22577      0.00000     0.77162    0.00261     0.77423
      H   13    0.22797      0.00000     0.76953    0.00249     0.77203
      C   14   -0.41985      1.99935     4.40720    0.01330     6.41985
      H   15    0.21519      0.00000     0.78281    0.00200     0.78481
      H   16    0.22778      0.00000     0.77074    0.00148     0.77222
      H   17    0.23278      0.00000     0.76528    0.00193     0.76722
      H   18    0.21640      0.00000     0.78197    0.00164     0.78360
      H   19    0.22901      0.00000     0.76945    0.00154     0.77099
      H   20    0.21502      0.00000     0.78297    0.00202     0.78498
      H   21    0.23348      0.00000     0.76464    0.00188     0.76652
      H   22    0.21469      0.00000     0.78327    0.00204     0.78531
      N   23   -0.74902      1.99950     5.72188    0.02765     7.74902
      N   24   -0.75253      1.99950     5.72931    0.02372     7.75253
      C   25   -0.72705      1.99900     4.69900    0.02906     6.72705
      N   26    0.05295      1.99940     4.91452    0.03313     6.94705
      N   27    0.04674      1.99968     4.92863    0.02495     6.95326
      C   28   -0.02644      1.99923     4.00742    0.01979     6.02644
      C   29   -0.40239      1.99937     4.39308    0.00994     6.40239
      C   30   -0.39996      1.99937     4.39061    0.00997     6.39996
      H   31    0.19374      0.00000     0.80115    0.00511     0.80626
      C   32   -0.38487      1.99942     4.37555    0.00990     6.38487
      H   33    0.19910      0.00000     0.79872    0.00219     0.80090
      H   34    0.19874      0.00000     0.79884    0.00243     0.80126
      C   35   -0.38241      1.99942     4.37354    0.00946     6.38241
      H   36    0.19378      0.00000     0.80391    0.00231     0.80622
      H   37    0.20514      0.00000     0.79313    0.00173     0.79486
      C   38   -0.38924      1.99942     4.38017    0.00965     6.38924
      H   39    0.21445      0.00000     0.78413    0.00143     0.78555
      H   40    0.18805      0.00000     0.80980    0.00215     0.81195
      H   41    0.21341      0.00000     0.78522    0.00138     0.78659
      H   42    0.18577      0.00000     0.81246    0.00177     0.81423
      H   43    0.21339      0.00000     0.78524    0.00137     0.78661
      H   44    0.19376      0.00000     0.80449    0.00175     0.80624
      C   45   -0.04576      1.99925     4.02601    0.02050     6.04576
      C   46   -0.40128      1.99937     4.39202    0.00989     6.40128
      C   47   -0.39867      1.99936     4.38843    0.01088     6.39867
      H   48    0.21140      0.00000     0.78443    0.00416     0.78860
      C   49   -0.38394      1.99941     4.37500    0.00952     6.38394
      H   50    0.19213      0.00000     0.80562    0.00225     0.80787
      H   51    0.20344      0.00000     0.79460    0.00196     0.79656
      C   52   -0.38539      1.99941     4.37649    0.00949     6.38539
      H   53    0.20107      0.00000     0.79695    0.00198     0.79893
      H   54    0.19901      0.00000     0.79874    0.00225     0.80099
      C   55   -0.38858      1.99942     4.37959    0.00957     6.38858
      H   56    0.21365      0.00000     0.78495    0.00140     0.78635
      H   57    0.18964      0.00000     0.80857    0.00179     0.81036
      H   58    0.21316      0.00000     0.78542    0.00142     0.78684
      H   59    0.18671      0.00000     0.81136    0.00193     0.81329
      H   60    0.21271      0.00000     0.78591    0.00139     0.78729
      H   61    0.19259      0.00000     0.80552    0.00190     0.80741
      C   62   -0.03112      1.99926     4.01280    0.01906     6.03112
      C   63   -0.40149      1.99937     4.39179    0.01033     6.40149
      C   64   -0.40228      1.99937     4.39286    0.01005     6.40228
      H   65    0.20829      0.00000     0.78795    0.00377     0.79171
      C   66   -0.38121      1.99941     4.37200    0.00980     6.38121
      H   67    0.19829      0.00000     0.79922    0.00249     0.80171
      H   68    0.20608      0.00000     0.79210    0.00182     0.79392
      C   69   -0.38472      1.99942     4.37589    0.00941     6.38472
      H   70    0.20289      0.00000     0.79503    0.00208     0.79711
      H   71    0.19344      0.00000     0.80411    0.00245     0.80656
      C   72   -0.38895      1.99942     4.37988    0.00965     6.38895
      H   73    0.21488      0.00000     0.78370    0.00142     0.78512
      H   74    0.18225      0.00000     0.81541    0.00234     0.81775
      H   75    0.21269      0.00000     0.78587    0.00144     0.78731
      H   76    0.18582      0.00000     0.81243    0.00175     0.81418
      H   77    0.21191      0.00000     0.78669    0.00140     0.78809
      H   78    0.19566      0.00000     0.80259    0.00174     0.80434
      C   79   -0.69504      1.99934     4.68325    0.01245     6.69504
      C   80   -0.69495      1.99934     4.68324    0.01237     6.69495
      C   81    0.00390      1.99892     3.98367    0.01350     5.99610
      H   82    0.23699      0.00000     0.76111    0.00190     0.76301
      H   83    0.23687      0.00000     0.76043    0.00270     0.76313
      C   84    0.00221      1.99892     3.98529    0.01358     5.99779
      H   85    0.23906      0.00000     0.75902    0.00191     0.76094
      H   86    0.23712      0.00000     0.76046    0.00242     0.76288
      P   87    1.13075      9.99659     3.82216    0.05050    13.86925
      C   88   -0.62021      1.99938     4.61370    0.00714     6.62021
      H   89    0.21944      0.00000     0.77901    0.00155     0.78056
      H   90    0.22156      0.00000     0.77701    0.00142     0.77844
      H   91    0.22048      0.00000     0.77781    0.00171     0.77952
      C   92   -0.61986      1.99938     4.61336    0.00712     6.61986
      H   93    0.22143      0.00000     0.77714    0.00143     0.77857
      H   94    0.21851      0.00000     0.77992    0.00156     0.78149
      H   95    0.22060      0.00000     0.77769    0.00171     0.77940
      C   96   -0.02311      1.99927     4.00469    0.01915     6.02311
      C   97   -0.40595      1.99936     4.39636    0.01022     6.40595
      C   98   -0.40131      1.99936     4.39165    0.01030     6.40131
      H   99    0.19276      0.00000     0.80395    0.00330     0.80724
      C  100   -0.38609      1.99942     4.37658    0.01010     6.38609
      H  101    0.20413      0.00000     0.79380    0.00207     0.79587
      H  102    0.21074      0.00000     0.78712    0.00214     0.78926
      C  103   -0.38415      1.99941     4.37524    0.00949     6.38415
      H  104    0.19538      0.00000     0.80242    0.00220     0.80462
      H  105    0.20905      0.00000     0.78842    0.00253     0.79095
      C  106   -0.38744      1.99942     4.37842    0.00961     6.38744
      H  107    0.21212      0.00000     0.78638    0.00150     0.78788
      H  108    0.18159      0.00000     0.81601    0.00241     0.81841
      H  109    0.21539      0.00000     0.78323    0.00139     0.78461
      H  110    0.19042      0.00000     0.80780    0.00179     0.80958
      H  111    0.21324      0.00000     0.78536    0.00140     0.78676
      H  112    0.19420      0.00000     0.80405    0.00174     0.80580
 =======================================================================
   * Total *    1.00000    141.94868   259.15228    0.89904   402.00000

 Normal termination of Gaussian 16 at Mon Jan 20 23:51:30 2025.
