 Gaussian 16, Revision B.01,
 Gaussian 16:  ES64L-G16RevB.01 20-Dec-2017

 ------------------------------------------
 # nmr=giao b3lyp/genecp pop=nbo scfcyc=200
 ------------------------------------------

 ---------
 DS-64_SPE
 ---------
 Symbolic Z-matrix:
 Charge =  1 Multiplicity = 1

                         Standard orientation:
 ---------------------------------------------------------------------
 Center     Atomic      Atomic             Coordinates (Angstroms)
 Number     Number       Type             X           Y           Z
 ---------------------------------------------------------------------
      1         45           0       -0.553020   -0.028470    1.337220
      2          6           0       -1.940180   -1.409930    2.535340
      3          6           0       -0.651140   -1.562560    2.994260
      4          6           0       -0.645360    1.319830    3.173560
      5          6           0       -1.819460    1.459400    2.463240
      6          1           0       -2.278240   -2.082390    1.760000
      7          6           0       -3.038640   -0.642830    3.239650
      8          1           0       -0.076710   -2.383550    2.589310
      9          6           0       -0.051780   -0.933480    4.226480
     10          6           0       -0.476250    0.531120    4.457790
     11          1           0        0.130810    2.046320    2.971410
     12          1           0       -1.888560    2.296950    1.787570
     13          6           0       -3.147190    0.813480    2.757330
     14          1           0       -2.882210   -0.680900    4.317610
     15          1           0       -3.987500   -1.148220    3.051750
     16          1           0       -0.295120   -1.537430    5.109520
     17          1           0        1.034670   -0.976790    4.125700
     18          1           0        0.283080    1.021440    5.069070
     19          1           0       -1.399900    0.573180    5.035330
     20          1           0       -3.691890    1.417120    3.494280
     21          1           0       -3.741200    0.850130    1.842490
     22          6           0        0.291010    0.055700   -1.561740
     23          7           0        0.466040    0.097150   -2.847050
     24          7           0        0.591950    0.122160   -3.969420
     25          6           0        1.093360    3.896870   -1.011790
     26          6           0       -0.262680    3.791640   -1.676810
     27          1           0        1.054360    4.525900   -0.116670
     28          1           0        1.838500    4.318460   -1.683440
     29          1           0       -0.828150    4.718510   -1.616870
     30          1           0       -0.161940    3.529270   -2.735620
     31         15           0        0.089310    1.485510   -0.408960
     32          7           0        1.463360    2.510240   -0.668970
     33          7           0       -0.975320    2.730040   -0.937310
     34          6           0        0.003960   -3.598580   -2.081410
     35          6           0        1.309600   -3.735420   -1.319070
     36          1           0       -0.514080   -4.552430   -2.174090
     37          1           0        0.177960   -3.208470   -3.090260
     38          1           0        1.249010   -4.530630   -0.568000
     39          1           0        2.141180   -3.968210   -1.986610
     40         15           0        0.119830   -1.465230   -0.507260
     41          7           0        1.541570   -2.429050   -0.676960
     42          7           0       -0.823090   -2.673970   -1.283090
     43          6           0       -2.363850    2.953820   -0.628220
     44          6           0       -2.721140    3.971300    0.282090
     45          6           0       -3.366440    2.250180   -1.313380
     46          6           0       -4.072490    4.222760    0.514960
     47          6           0       -4.704540    2.533220   -1.040410
     48          6           0       -5.083760    3.512940   -0.127770
     49          1           0       -4.339820    5.004450    1.217840
     50          1           0       -5.470460    1.986250   -1.579160
     51          6           0        2.871770    2.238330   -0.559670
     52          6           0        3.479120    2.063230    0.698600
     53          6           0        3.675510    2.312750   -1.714830
     54          6           0        4.864980    1.956100    0.775460
     55          6           0        5.060270    2.205220   -1.583580
     56          6           0        5.679770    2.038100   -0.350820
     57          1           0        5.321250    1.828590    1.750900
     58          1           0        5.670290    2.268890   -2.478770
     59          6           0        2.864780   -2.220860   -0.146270
     60          6           0        3.214940   -2.712050    1.123820
     61          6           0        3.863810   -1.696870   -0.990530
     62          6           0        4.532940   -2.578470    1.561840
     63          6           0        5.169190   -1.604070   -0.516040
     64          6           0        5.525600   -2.022410    0.763940
     65          1           0        4.794170   -2.960780    2.543510
     66          1           0        5.933350   -1.207820   -1.174530
     67          6           0       -2.236630   -2.918050   -1.197360
     68          6           0       -2.744290   -3.707530   -0.147220
     69          6           0       -3.091480   -2.510530   -2.237570
     70          6           0       -4.118740   -3.931620   -0.074450
     71          6           0       -4.458170   -2.764560   -2.125410
     72          6           0       -4.999440   -3.445950   -1.038310
     73          1           0       -4.506420   -4.530090    0.743030
     74          1           0       -5.114240   -2.438720   -2.925340
     75          6           0       -1.702760    4.814650    1.009060
     76          1           0       -2.133370    5.230690    1.919610
     77          1           0       -0.812780    4.248700    1.284010
     78          1           0       -1.370860    5.659850    0.399230
     79          6           0       -3.030790    1.220340   -2.353440
     80          1           0       -2.263430    1.579940   -3.040860
     81          1           0       -2.662130    0.302340   -1.896980
     82          1           0       -3.914580    0.965850   -2.937090
     83          6           0       -6.535590    3.790570    0.162770
     84          1           0       -6.884590    3.197900    1.013660
     85          1           0       -6.699130    4.840490    0.409230
     86          1           0       -7.167050    3.539490   -0.690290
     87          6           0        2.672930    2.026310    1.966350
     88          1           0        1.997210    2.882400    2.029180
     89          1           0        2.061210    1.122390    2.027770
     90          1           0        3.327200    2.048880    2.837590
     91          6           0        3.119070    2.555380   -3.096140
     92          1           0        2.058000    2.333200   -3.166500
     93          1           0        3.255970    3.598530   -3.397150
     94          1           0        3.641680    1.945550   -3.834320
     95          6           0        7.180930    1.991610   -0.233560
     96          1           0        7.590290    2.997090   -0.099290
     97          1           0        7.498270    1.395300    0.622590
     98          1           0        7.639970    1.572910   -1.130400
     99          6           0        2.255990   -3.461170    2.012880
    100          1           0        2.125470   -2.955590    2.972060
    101          1           0        1.280490   -3.584770    1.551810
    102          1           0        2.645990   -4.457850    2.231800
    103          6           0        3.571500   -1.277630   -2.406970
    104          1           0        2.933860   -1.994590   -2.925240
    105          1           0        3.073560   -0.309450   -2.436770
    106          1           0        4.497710   -1.184070   -2.973180
    107          6           0        6.940610   -1.893460    1.264010
    108          1           0        7.057310   -0.996550    1.879470
    109          1           0        7.224240   -2.747200    1.881610
    110          1           0        7.650300   -1.820660    0.439370
    111          6           0       -1.842070   -4.424420    0.826510
    112          1           0       -0.955420   -3.852040    1.086210
    113          1           0       -2.372960   -4.672540    1.745560
    114          1           0       -1.495370   -5.366910    0.391330
    115          6           0       -2.563800   -1.922990   -3.520600
    116          1           0       -1.723680   -1.253720   -3.362960
    117          1           0       -2.222190   -2.720350   -4.187440
    118          1           0       -3.342230   -1.375260   -4.050230
    119          6           0       -6.484370   -3.667720   -0.918850
    120          1           0       -6.708380   -4.581720   -0.367370
    121          1           0       -6.959900   -2.839290   -0.385250
    122          1           0       -6.957340   -3.737190   -1.899270
 ---------------------------------------------------------------------

 SCF Done:  E(RB3LYP) =  -3028.17104233     A.U. after   17 cycles

      1  Rh   Isotropic =  -392.3561   Anisotropy =   480.3661

      2  C    Isotropic =    73.9826   Anisotropy =   136.0575

      3  C    Isotropic =    79.9162   Anisotropy =   115.3518

      4  C    Isotropic =    79.3556   Anisotropy =   122.1506

      5  C    Isotropic =    77.7677   Anisotropy =   119.1030

      6  H    Isotropic =    26.9325   Anisotropy =     9.7490

      7  C    Isotropic =   155.1279   Anisotropy =    23.2534

      8  H    Isotropic =    26.4880   Anisotropy =     4.2038

      9  C    Isotropic =   148.8608   Anisotropy =    27.4554

     10  C    Isotropic =   154.9303   Anisotropy =    24.3832

     11  H    Isotropic =    27.4743   Anisotropy =     4.1355

     12  H    Isotropic =    27.0086   Anisotropy =    11.0088

     13  C    Isotropic =   149.5924   Anisotropy =    28.6748

     14  H    Isotropic =    30.3426   Anisotropy =     9.3102

     15  H    Isotropic =    30.5557   Anisotropy =     9.7003

     16  H    Isotropic =    29.4539   Anisotropy =    12.4120

     17  H    Isotropic =    29.2998   Anisotropy =     7.0709

     18  H    Isotropic =    30.1437   Anisotropy =    10.7805

     19  H    Isotropic =    30.1749   Anisotropy =     9.5379

     20  H    Isotropic =    30.0556   Anisotropy =    10.7074

     21  H    Isotropic =    30.6279   Anisotropy =     8.9396

     22  C    Isotropic =   107.4386   Anisotropy =    85.1249

     23  N    Isotropic =    -7.0982   Anisotropy =   390.9410

     24  N    Isotropic =  -109.1237   Anisotropy =    86.9721

     25  C    Isotropic =   128.7546   Anisotropy =    51.6792

     26  C    Isotropic =   129.8036   Anisotropy =    49.0192

     27  H    Isotropic =    28.4193   Anisotropy =     9.3253

     28  H    Isotropic =    29.0110   Anisotropy =     7.1090

     29  H    Isotropic =    29.1284   Anisotropy =     7.1911

     30  H    Isotropic =    28.0219   Anisotropy =     9.2407

     31  P    Isotropic =   219.7674   Anisotropy =   102.9966

     32  N    Isotropic =   174.6608   Anisotropy =    73.3515

     33  N    Isotropic =   168.6432   Anisotropy =    71.2360

     34  C    Isotropic =   127.7355   Anisotropy =    51.8567

     35  C    Isotropic =   127.1342   Anisotropy =    52.3430

     36  H    Isotropic =    29.1108   Anisotropy =     7.3873

     37  H    Isotropic =    27.7822   Anisotropy =     8.0245

     38  H    Isotropic =    28.4052   Anisotropy =     7.8001

     39  H    Isotropic =    28.9837   Anisotropy =     7.4775

     40  P    Isotropic =   213.4817   Anisotropy =    77.4536

     41  N    Isotropic =   175.2733   Anisotropy =    70.8650

     42  N    Isotropic =   174.1249   Anisotropy =    80.8399

     43  C    Isotropic =    37.2690   Anisotropy =   123.2419

     44  C    Isotropic =    40.7648   Anisotropy =   181.6894

     45  C    Isotropic =    37.4370   Anisotropy =   185.9813

     46  C    Isotropic =    48.1273   Anisotropy =   140.7088

     47  C    Isotropic =    48.6241   Anisotropy =   134.7257

     48  C    Isotropic =    36.6357   Anisotropy =   200.4520

     49  H    Isotropic =    24.7462   Anisotropy =     8.4780

     50  H    Isotropic =    24.7365   Anisotropy =     9.3923

     51  C    Isotropic =    40.4002   Anisotropy =   120.9162

     52  C    Isotropic =    39.6000   Anisotropy =   184.9119

     53  C    Isotropic =    40.5110   Anisotropy =   184.4131

     54  C    Isotropic =    49.1719   Anisotropy =   137.3188

     55  C    Isotropic =    48.5870   Anisotropy =   144.7844

     56  C    Isotropic =    37.8087   Anisotropy =   202.3921

     57  H    Isotropic =    25.1649   Anisotropy =     7.7390

     58  H    Isotropic =    24.5443   Anisotropy =     8.7485

     59  C    Isotropic =    41.8018   Anisotropy =   119.2199

     60  C    Isotropic =    39.6901   Anisotropy =   180.9561

     61  C    Isotropic =    37.7554   Anisotropy =   188.7999

     62  C    Isotropic =    49.7227   Anisotropy =   147.3943

     63  C    Isotropic =    47.7282   Anisotropy =   140.3718

     64  C    Isotropic =    37.8474   Anisotropy =   202.1772

     65  H    Isotropic =    24.6386   Anisotropy =     9.3124

     66  H    Isotropic =    25.2981   Anisotropy =     6.9099

     67  C    Isotropic =    38.9249   Anisotropy =   125.5697

     68  C    Isotropic =    38.8432   Anisotropy =   182.6218

     69  C    Isotropic =    36.8348   Anisotropy =   186.7130

     70  C    Isotropic =    49.4440   Anisotropy =   139.4467

     71  C    Isotropic =    48.5506   Anisotropy =   139.4730

     72  C    Isotropic =    35.3435   Anisotropy =   201.7151

     73  H    Isotropic =    24.7867   Anisotropy =     8.9410

     74  H    Isotropic =    24.5350   Anisotropy =     8.6151

     75  C    Isotropic =   162.9612   Anisotropy =    29.2030

     76  H    Isotropic =    29.8497   Anisotropy =     9.1490

     77  H    Isotropic =    30.1531   Anisotropy =     6.8341

     78  H    Isotropic =    29.6655   Anisotropy =     8.4952

     79  C    Isotropic =   159.5108   Anisotropy =    32.1672

     80  H    Isotropic =    29.0344   Anisotropy =     3.1240

     81  H    Isotropic =    28.7477   Anisotropy =    11.3387

     82  H    Isotropic =    29.6735   Anisotropy =     7.3946

     83  C    Isotropic =   162.3073   Anisotropy =    42.5909

     84  H    Isotropic =    29.4271   Anisotropy =     7.8744

     85  H    Isotropic =    29.6118   Anisotropy =     9.3282

     86  H    Isotropic =    29.6546   Anisotropy =     8.0890

     87  C    Isotropic =   158.8200   Anisotropy =    27.3709

     88  H    Isotropic =    29.8640   Anisotropy =     5.1664

     89  H    Isotropic =    28.5085   Anisotropy =     9.8640

     90  H    Isotropic =    29.8984   Anisotropy =     7.2212

     91  C    Isotropic =   164.2134   Anisotropy =    27.7513

     92  H    Isotropic =    29.8066   Anisotropy =     7.4432

     93  H    Isotropic =    29.5274   Anisotropy =     9.9724

     94  H    Isotropic =    29.4437   Anisotropy =     7.4767

     95  C    Isotropic =   162.1948   Anisotropy =    40.9217

     96  H    Isotropic =    29.2581   Anisotropy =    10.6187

     97  H    Isotropic =    29.6305   Anisotropy =     6.4738

     98  H    Isotropic =    29.5287   Anisotropy =     6.8772

     99  C    Isotropic =   164.8707   Anisotropy =    28.6451

    100  H    Isotropic =    29.3967   Anisotropy =     6.2559

    101  H    Isotropic =    29.6504   Anisotropy =     7.6321

    102  H    Isotropic =    29.4809   Anisotropy =    10.2739

    103  C    Isotropic =   162.3677   Anisotropy =    25.5905

    104  H    Isotropic =    29.7760   Anisotropy =     5.0766

    105  H    Isotropic =    29.8326   Anisotropy =     7.9101

    106  H    Isotropic =    30.2085   Anisotropy =     7.9941

    107  C    Isotropic =   161.7952   Anisotropy =    40.6992

    108  H    Isotropic =    29.3232   Anisotropy =     6.2122

    109  H    Isotropic =    29.5010   Anisotropy =     9.4063

    110  H    Isotropic =    29.7760   Anisotropy =     7.3156

    111  C    Isotropic =   163.1365   Anisotropy =    28.5443

    112  H    Isotropic =    29.9763   Anisotropy =     8.0409

    113  H    Isotropic =    30.0262   Anisotropy =     7.4260

    114  H    Isotropic =    29.6523   Anisotropy =     8.7772

    115  C    Isotropic =   161.9803   Anisotropy =    26.5180

    116  H    Isotropic =    29.1733   Anisotropy =     7.2940

    117  H    Isotropic =    29.4134   Anisotropy =     8.7148

    118  H    Isotropic =    29.5642   Anisotropy =     7.0532

    119  C    Isotropic =   161.9380   Anisotropy =    42.8928

    120  H    Isotropic =    29.6072   Anisotropy =     8.7370

    121  H    Isotropic =    29.3370   Anisotropy =     7.7961

    122  H    Isotropic =    29.5090   Anisotropy =     8.5533

 The electronic state is 1-A.
 Alpha  occ. eigenvalues --  -77.27508 -77.27445 -14.56666 -14.50315 -14.42789
 Alpha  occ. eigenvalues --  -14.42426 -14.42326 -14.42074 -10.31235 -10.30254
 Alpha  occ. eigenvalues --  -10.30183 -10.29932 -10.29871 -10.29623 -10.29561
 Alpha  occ. eigenvalues --  -10.29190 -10.28950 -10.28347 -10.28330 -10.28249
 Alpha  occ. eigenvalues --  -10.28139 -10.27094 -10.27078 -10.27064 -10.26919
 Alpha  occ. eigenvalues --  -10.26836 -10.26766 -10.26648 -10.26617 -10.26505
 Alpha  occ. eigenvalues --  -10.26499 -10.26409 -10.26390 -10.26310 -10.26206
 Alpha  occ. eigenvalues --  -10.25767 -10.25757 -10.25532 -10.25508 -10.25145
 Alpha  occ. eigenvalues --  -10.24965 -10.24959 -10.24930 -10.24903 -10.24866
 Alpha  occ. eigenvalues --  -10.24853 -10.24847 -10.24737 -10.24344 -10.24339
 Alpha  occ. eigenvalues --  -10.24338 -10.24272 -10.24160 -10.24111 -10.24068
 Alpha  occ. eigenvalues --  -10.23798 -10.23779  -6.72575  -6.72513  -4.88928
 Alpha  occ. eigenvalues --   -4.88872  -4.88868  -4.88796  -4.88491  -4.88439
 Alpha  occ. eigenvalues --   -3.31175  -2.08053  -2.07430  -2.04545  -1.23082
 Alpha  occ. eigenvalues --   -1.05583  -1.05388  -1.00040  -0.99923  -0.96056
 Alpha  occ. eigenvalues --   -0.94627  -0.94586  -0.94037  -0.93123  -0.93023
 Alpha  occ. eigenvalues --   -0.88630  -0.87608  -0.87332  -0.87174  -0.87039
 Alpha  occ. eigenvalues --   -0.87014  -0.86780  -0.86624  -0.85272  -0.85143
 Alpha  occ. eigenvalues --   -0.84079  -0.83741  -0.80050  -0.79406  -0.79045
 Alpha  occ. eigenvalues --   -0.78691  -0.78514  -0.78056  -0.77720  -0.77258
 Alpha  occ. eigenvalues --   -0.76661  -0.76416  -0.76109  -0.75977  -0.75807
 Alpha  occ. eigenvalues --   -0.75719  -0.72708  -0.70769  -0.70586  -0.70040
 Alpha  occ. eigenvalues --   -0.69821  -0.67332  -0.66759  -0.66633  -0.66293
 Alpha  occ. eigenvalues --   -0.66140  -0.65369  -0.64977  -0.64853  -0.64666
 Alpha  occ. eigenvalues --   -0.62640  -0.61971  -0.61710  -0.60643  -0.60441
 Alpha  occ. eigenvalues --   -0.59864  -0.59656  -0.59079  -0.58180  -0.57916
 Alpha  occ. eigenvalues --   -0.57847  -0.57430  -0.57305  -0.56797  -0.56167
 Alpha  occ. eigenvalues --   -0.55968  -0.55842  -0.55532  -0.53689  -0.53473
 Alpha  occ. eigenvalues --   -0.53186  -0.52771  -0.52570  -0.52261  -0.52167
 Alpha  occ. eigenvalues --   -0.52086  -0.51969  -0.51773  -0.51595  -0.51158
 Alpha  occ. eigenvalues --   -0.50986  -0.50964  -0.50778  -0.50603  -0.50337
 Alpha  occ. eigenvalues --   -0.50156  -0.49963  -0.49787  -0.49697  -0.49525
 Alpha  occ. eigenvalues --   -0.49370  -0.49355  -0.49197  -0.49094  -0.49081
 Alpha  occ. eigenvalues --   -0.48828  -0.48755  -0.48695  -0.48619  -0.48559
 Alpha  occ. eigenvalues --   -0.48417  -0.48362  -0.48266  -0.48104  -0.47511
 Alpha  occ. eigenvalues --   -0.47452  -0.47275  -0.47207  -0.47097  -0.46921
 Alpha  occ. eigenvalues --   -0.46514  -0.46143  -0.46072  -0.45647  -0.45392
 Alpha  occ. eigenvalues --   -0.45177  -0.44968  -0.44919  -0.44758  -0.43605
 Alpha  occ. eigenvalues --   -0.43090  -0.42896  -0.42738  -0.42656  -0.42532
 Alpha  occ. eigenvalues --   -0.42411  -0.42259  -0.42216  -0.42069  -0.41901
 Alpha  occ. eigenvalues --   -0.41757  -0.41706  -0.41662  -0.41169  -0.38220
 Alpha  occ. eigenvalues --   -0.37983  -0.36662  -0.35137  -0.34458  -0.34290
 Alpha  occ. eigenvalues --   -0.33778  -0.33679  -0.32966  -0.32712  -0.32531
 Alpha  occ. eigenvalues --   -0.32423  -0.32225  -0.31996  -0.31778  -0.31717
 Alpha  occ. eigenvalues --   -0.31547  -0.30720  -0.30166
 Alpha virt. eigenvalues --   -0.17393  -0.16937  -0.13221  -0.11234  -0.10303
 Alpha virt. eigenvalues --   -0.10057  -0.09706  -0.09380  -0.09251  -0.09143
 Alpha virt. eigenvalues --   -0.08897  -0.08840  -0.08443  -0.07068  -0.05875

 Mulliken charges:
               1
     1  Rh  -0.646403
     2  C   -0.035171
     3  C   -0.015599
     4  C   -0.028117
     5  C    0.037962
     6  H    0.203344
     7  C   -0.356910
     8  H    0.164503
     9  C   -0.246383
    10  C   -0.353951
    11  H    0.195264
    12  H    0.131751
    13  C   -0.282756
    14  H    0.167796
    15  H    0.166439
    16  H    0.171025
    17  H    0.133510
    18  H    0.165891
    19  H    0.170420
    20  H    0.167219
    21  H    0.159993
    22  C   -0.621811
    23  N    0.411804
    24  N   -0.119386
    25  C   -0.144200
    26  C   -0.127142
    27  H    0.154532
    28  H    0.174923
    29  H    0.178822
    30  H    0.160997
    31  P    0.733823
    32  N   -0.278824
    33  N   -0.242915
    34  C   -0.103310
    35  C   -0.147182
    36  H    0.166719
    37  H    0.155384
    38  H    0.159009
    39  H    0.163725
    40  P    0.743286
    41  N   -0.290821
    42  N   -0.298087
    43  C   -0.055169
    44  C    0.058104
    45  C    0.071135
    46  C   -0.211337
    47  C   -0.218736
    48  C    0.186183
    49  H    0.113683
    50  H    0.109464
    51  C    0.084614
    52  C    0.066262
    53  C    0.030531
    54  C   -0.192211
    55  C   -0.226880
    56  C    0.205020
    57  H    0.101294
    58  H    0.104236
    59  C   -0.016445
    60  C    0.165253
    61  C    0.109444
    62  C   -0.245557
    63  C   -0.188524
    64  C    0.221344
    65  H    0.104493
    66  H    0.106429
    67  C   -0.032941
    68  C    0.005092
    69  C    0.083106
    70  C   -0.203385
    71  C   -0.204918
    72  C    0.179003
    73  H    0.113559
    74  H    0.112172
    75  C   -0.470306
    76  H    0.155708
    77  H    0.150610
    78  H    0.158341
    79  C   -0.437228
    80  H    0.136718
    81  H    0.127571
    82  H    0.140174
    83  C   -0.453806
    84  H    0.147284
    85  H    0.142339
    86  H    0.139962
    87  C   -0.524627
    88  H    0.139229
    89  H    0.158557
    90  H    0.142530
    91  C   -0.484287
    92  H    0.124702
    93  H    0.166369
    94  H    0.159806
    95  C   -0.448225
    96  H    0.157392
    97  H    0.134438
    98  H    0.133179
    99  C   -0.565524
   100  H    0.149621
   101  H    0.132682
   102  H    0.166750
   103  C   -0.460595
   104  H    0.135449
   105  H    0.130662
   106  H    0.147487
   107  C   -0.458556
   108  H    0.141767
   109  H    0.143108
   110  H    0.142527
   111  C   -0.386274
   112  H    0.080156
   113  H    0.154965
   114  H    0.161045
   115  C   -0.443184
   116  H    0.108286
   117  H    0.162968
   118  H    0.147898
   119  C   -0.448678
   120  H    0.140245
   121  H    0.146454
   122  H    0.140823
 Sum of Mulliken charges =   1.00000

 Dipole moment (field-independent basis, Debye):
    X=             -1.3129    Y=              0.0265    Z=              1.8615  Tot=              2.2781
 Quadrupole moment (field-independent basis, Debye-Ang):
   XX=           -295.6566   YY=           -322.1593   ZZ=           -338.3388
   XY=              1.5183   XZ=             -3.0014   YZ=             -0.7615

 Summary of Natural Population Analysis:

                                       Natural Population
                Natural  -----------------------------------------------
    Atom  No    Charge         Core      Valence    Rydberg      Total
 -----------------------------------------------------------------------
     Rh    1   -0.32735     35.98596     9.31284    0.02855    45.32735
      C    2   -0.15815      1.99910     4.13842    0.02062     6.15815
      C    3   -0.18699      1.99910     4.16758    0.02032     6.18699
      C    4   -0.17814      1.99910     4.15950    0.01954     6.17814
      C    5   -0.16006      1.99911     4.14025    0.02071     6.16006
      H    6    0.23610      0.00000     0.76124    0.00266     0.76390
      C    7   -0.42411      1.99935     4.41228    0.01247     6.42411
      H    8    0.22813      0.00000     0.76928    0.00259     0.77187
      C    9   -0.41742      1.99935     4.40518    0.01290     6.41742
      C   10   -0.42390      1.99936     4.41199    0.01255     6.42390
      H   11    0.22634      0.00000     0.77121    0.00245     0.77366
      H   12    0.23697      0.00000     0.76044    0.00259     0.76303
      C   13   -0.41982      1.99934     4.40720    0.01328     6.41982
      H   14    0.21010      0.00000     0.78771    0.00219     0.78990
      H   15    0.22829      0.00000     0.77019    0.00152     0.77171
      H   16    0.23138      0.00000     0.76664    0.00198     0.76862
      H   17    0.21629      0.00000     0.78180    0.00192     0.78371
      H   18    0.22735      0.00000     0.77114    0.00151     0.77265
      H   19    0.21537      0.00000     0.78275    0.00188     0.78463
      H   20    0.23092      0.00000     0.76723    0.00186     0.76908
      H   21    0.22637      0.00000     0.77155    0.00208     0.77363
      C   22   -0.74673      1.99898     4.71660    0.03115     6.74673
      N   23    0.05979      1.99940     4.90864    0.03217     6.94021
      N   24    0.04111      1.99967     4.93549    0.02373     6.95889
      C   25   -0.20285      1.99931     4.19052    0.01301     6.20285
      C   26   -0.20979      1.99932     4.19723    0.01324     6.20979
      H   27    0.18297      0.00000     0.81416    0.00287     0.81703
      H   28    0.21704      0.00000     0.78089    0.00207     0.78296
      H   29    0.21931      0.00000     0.77871    0.00198     0.78069
      H   30    0.18594      0.00000     0.81162    0.00244     0.81406
      P   31    1.49104      9.99615     3.44169    0.07112    13.50896
      N   32   -0.74282      1.99952     5.72023    0.02307     7.74282
      N   33   -0.74322      1.99951     5.72241    0.02130     7.74322
      C   34   -0.21380      1.99933     4.19913    0.01535     6.21380
      C   35   -0.19960      1.99932     4.18718    0.01310     6.19960
      H   36    0.21862      0.00000     0.77938    0.00200     0.78138
      H   37    0.18276      0.00000     0.81435    0.00289     0.81724
      H   38    0.18179      0.00000     0.81523    0.00297     0.81821
      H   39    0.21116      0.00000     0.78701    0.00183     0.78884
      P   40    1.47869      9.99631     3.45367    0.07134    13.52131
      N   41   -0.74572      1.99952     5.72317    0.02304     7.74572
      N   42   -0.74539      1.99952     5.72435    0.02152     7.74539
      C   43    0.11141      1.99874     3.86935    0.02050     5.88859
      C   44   -0.01693      1.99904     4.00218    0.01571     6.01693
      C   45   -0.00339      1.99904     3.98796    0.01640     6.00339
      C   46   -0.20686      1.99901     4.19383    0.01401     6.20686
      C   47   -0.20385      1.99903     4.19151    0.01331     6.20385
      C   48    0.01081      1.99912     3.97606    0.01401     5.98919
      H   49    0.20645      0.00000     0.79182    0.00174     0.79355
      H   50    0.20549      0.00000     0.79264    0.00187     0.79451
      C   51    0.10621      1.99875     3.87420    0.02084     5.89379
      C   52   -0.00449      1.99903     3.98973    0.01572     6.00449
      C   53   -0.00487      1.99903     3.99048    0.01536     6.00487
      C   54   -0.19946      1.99902     4.18736    0.01308     6.19946
      C   55   -0.20622      1.99901     4.19376    0.01345     6.20622
      C   56    0.01160      1.99911     3.97484    0.01445     5.98840
      H   57    0.20244      0.00000     0.79502    0.00254     0.79756
      H   58    0.20445      0.00000     0.79364    0.00191     0.79555
      C   59    0.10388      1.99875     3.87751    0.01986     5.89612
      C   60   -0.00491      1.99904     3.99093    0.01494     6.00491
      C   61    0.00550      1.99903     3.97879    0.01668     5.99450
      C   62   -0.20576      1.99901     4.19331    0.01344     6.20576
      C   63   -0.19932      1.99902     4.18713    0.01317     6.19932
      C   64    0.01290      1.99911     3.97372    0.01427     5.98710
      H   65    0.20320      0.00000     0.79513    0.00167     0.79680
      H   66    0.20451      0.00000     0.79293    0.00257     0.79549
      C   67    0.10688      1.99874     3.87463    0.01974     5.89312
      C   68   -0.00974      1.99903     3.99495    0.01575     6.00974
      C   69    0.00139      1.99903     3.98417    0.01541     5.99861
      C   70   -0.21068      1.99901     4.19786    0.01381     6.21068
      C   71   -0.20538      1.99902     4.19278    0.01359     6.20538
      C   72    0.01485      1.99912     3.97228    0.01375     5.98515
      H   73    0.20570      0.00000     0.79251    0.00179     0.79430
      H   74    0.20559      0.00000     0.79262    0.00179     0.79441
      C   75   -0.62161      1.99939     4.61404    0.00819     6.62161
      H   76    0.22433      0.00000     0.77442    0.00126     0.77567
      H   77    0.20804      0.00000     0.79030    0.00166     0.79196
      H   78    0.21966      0.00000     0.77860    0.00174     0.78034
      C   79   -0.61202      1.99941     4.60337    0.00924     6.61202
      H   80    0.21126      0.00000     0.78663    0.00211     0.78874
      H   81    0.22017      0.00000     0.77767    0.00217     0.77983
      H   82    0.21791      0.00000     0.78067    0.00143     0.78209
      C   83   -0.61386      1.99941     4.60758    0.00687     6.61386
      H   84    0.21922      0.00000     0.77939    0.00139     0.78078
      H   85    0.21896      0.00000     0.77986    0.00118     0.78104
      H   86    0.21784      0.00000     0.78099    0.00117     0.78216
      C   87   -0.60274      1.99940     4.59474    0.00860     6.60274
      H   88    0.20596      0.00000     0.79202    0.00202     0.79404
      H   89    0.22106      0.00000     0.77665    0.00228     0.77894
      H   90    0.21874      0.00000     0.78003    0.00123     0.78126
      C   91   -0.62779      1.99940     4.61857    0.00983     6.62779
      H   92    0.20354      0.00000     0.79407    0.00239     0.79646
      H   93    0.22106      0.00000     0.77726    0.00169     0.77894
      H   94    0.22669      0.00000     0.77198    0.00133     0.77331
      C   95   -0.61434      1.99941     4.60767    0.00727     6.61434
      H   96    0.22457      0.00000     0.77409    0.00134     0.77543
      H   97    0.21350      0.00000     0.78501    0.00149     0.78650
      H   98    0.21470      0.00000     0.78410    0.00120     0.78530
      C   99   -0.61347      1.99939     4.60607    0.00802     6.61347
      H  100    0.21421      0.00000     0.78418    0.00161     0.78579
      H  101    0.20345      0.00000     0.79496    0.00159     0.79655
      H  102    0.22650      0.00000     0.77219    0.00132     0.77350
      C  103   -0.61091      1.99940     4.60249    0.00902     6.61091
      H  104    0.20520      0.00000     0.79263    0.00217     0.79480
      H  105    0.21599      0.00000     0.78145    0.00256     0.78401
      H  106    0.21877      0.00000     0.77990    0.00133     0.78123
      C  107   -0.61292      1.99941     4.60626    0.00725     6.61292
      H  108    0.21591      0.00000     0.78255    0.00154     0.78409
      H  109    0.21900      0.00000     0.77982    0.00118     0.78100
      H  110    0.21587      0.00000     0.78290    0.00123     0.78413
      C  111   -0.61794      1.99939     4.60946    0.00909     6.61794
      H  112    0.20407      0.00000     0.79365    0.00228     0.79593
      H  113    0.22122      0.00000     0.77749    0.00129     0.77878
      H  114    0.22432      0.00000     0.77409    0.00159     0.77568
      C  115   -0.61502      1.99939     4.60720    0.00842     6.61502
      H  116    0.20687      0.00000     0.79069    0.00243     0.79313
      H  117    0.22214      0.00000     0.77632    0.00154     0.77786
      H  118    0.22040      0.00000     0.77834    0.00125     0.77960
      C  119   -0.61374      1.99941     4.60752    0.00681     6.61374
      H  120    0.21781      0.00000     0.78101    0.00118     0.78219
      H  121    0.21956      0.00000     0.77907    0.00137     0.78044
      H  122    0.21852      0.00000     0.78030    0.00118     0.78148
 =======================================================================
   * Total *    1.00000    165.93427   306.94395    1.12178   474.00000

 Normal termination of Gaussian 16 at Tue Jan 21 02:33:07 2025.
