 Gaussian 16, Revision B.01,
 Gaussian 16:  ES64L-G16RevB.01 20-Dec-2017

 ------------------------------------------
 # nmr=giao b3lyp/genecp pop=nbo scfcyc=200
 ------------------------------------------

 ---------
 DS-63_SPE
 ---------
 Symbolic Z-matrix:
 Charge =  1 Multiplicity = 1

                         Standard orientation:
 ---------------------------------------------------------------------
 Center     Atomic      Atomic             Coordinates (Angstroms)
 Number     Number       Type             X           Y           Z
 ---------------------------------------------------------------------
      1         15           0       -0.930749    1.125721    0.866010
      2         15           0       -0.930611   -1.125709   -0.866020
      3          8           0        1.194680   -0.626250    0.975930
      4          8           0        2.571239   -2.119511   -0.390470
      5          8           0        2.978779   -1.916512    1.863060
      6          6           0       -0.748018    2.875351    0.316700
      7          6           0       -0.564961   -1.062249   -2.662760
      8          6           0       -0.565349    1.062301    2.662780
      9          6           0       -0.816072   -3.161329    1.053190
     10          1           0       -0.871621   -2.359139    1.778010
     11          6           0        0.445890    0.000000    0.000050
     12          6           0       -0.815863   -4.478299    1.495540
     13          1           0       -0.860733   -4.686149    2.557370
     14          6           0       -0.815818    3.161311   -1.053200
     15          1           0       -0.871108    2.359091   -1.778010
     16          6           0       -0.766824   -5.525669    0.579220
     17          1           0       -0.777944   -6.551579    0.925430
     18          6           0       -0.703167    3.931251    1.231270
     19          1           0       -0.665887    3.733811    2.293510
     20          6           0       -0.747872   -2.875319   -0.316670
     21          6           0        0.911961    1.463820    4.528970
     22          1           0        1.850611    1.840589    4.915720
     23          5           0        2.223719   -1.535831    0.795840
     24          6           0        0.645581    1.550550    3.168700
     25          1           0        1.380861    1.976389    2.499040
     26          6           0       -1.482690   -0.465929   -3.531220
     27          1           0       -2.406680   -0.060158   -3.141620
     28          6           0        3.145727   -4.311882    1.929800
     29          1           0        3.043477   -4.250902    3.013650
     30          1           0        3.741577   -5.194082    1.692500
     31          1           0        2.151047   -4.439731    1.503850
     32          6           0        3.703857   -4.197912   -0.918120
     33          1           0        2.803627   -4.751181   -0.659080
     34          1           0        4.571697   -4.828043   -0.714860
     35          1           0        3.683787   -3.995682   -1.989920
     36          6           0       -1.209450    0.381771    4.892740
     37          1           0       -1.928460   -0.077728    5.559430
     38          6           0        3.803888   -2.886602   -0.152180
     39          6           0       -0.702673   -3.931179   -1.231280
     40          1           0       -0.665102   -3.733689   -2.293500
     41          6           0       -0.014329    0.885090    5.392920
     42          1           0        0.199861    0.820350    6.452440
     43          6           0       -0.766856    5.525671   -0.579310
     44          1           0       -0.777926    6.551571   -0.925560
     45          6           0       -0.815537    4.478251   -1.495610
     46          1           0       -0.860097    4.686071   -2.557460
     47          6           0       -0.713206    5.248571    0.781940
     48          1           0       -0.683436    6.057671    1.501130
     49          6           0        5.187928   -2.879413    2.073440
     50          1           0        5.636189   -1.913153    1.851150
     51          1           0        5.866348   -3.665414    1.736030
     52          1           0        5.088158   -2.963523    3.155980
     53          6           0       -1.483050    0.465821    3.531130
     54          1           0       -2.406950    0.059922    3.141430
     55          6           0       -0.712753   -5.248509   -0.782010
     56          1           0       -0.682684   -6.057589   -1.501210
     57          6           0       -0.013700   -0.884970   -5.392860
     58          1           0        0.200600   -0.820220   -6.452360
     59          6           0        0.646109   -1.550250   -3.168560
     60          1           0        1.381429   -1.975881   -2.498790
     61          6           0        4.954599   -2.045763   -0.700670
     62          1           0        4.770689   -1.832473   -1.753980
     63          1           0        5.904978   -2.574234   -0.618650
     64          1           0        5.044229   -1.096743   -0.173130
     65          6           0        3.817848   -3.034502    1.427930
     66          6           0       -1.208960   -0.381859   -4.892800
     67          1           0       -1.927980    0.077512   -5.559560
     68          6           0        0.912619   -1.463500   -4.528790
     69          1           0        1.851379   -1.840101   -4.915440
     70         45           0       -2.781270    0.000022   -0.000270
     71          6           0       -4.477381   -0.930147   -1.269110
     72          6           0       -4.320601   -1.659057   -0.112110
     73          6           0       -4.477599    0.930023    1.268940
     74          6           0       -4.321039    1.658983    0.111980
     75          6           0       -5.553280    0.106934   -1.530630
     76          1           0       -3.971631   -1.309687   -2.149150
     77          1           0       -3.715202   -2.557537   -0.172630
     78          6           0       -5.135611   -1.544496    1.151830
     79          6           0       -5.553230   -0.107296    1.530420
     80          1           0       -3.971669    1.309433    2.148940
     81          6           0       -5.136129    1.544244   -1.151900
     82          1           0       -3.715608    2.557453    0.172390
     83          1           0       -5.799040    0.089934   -2.593900
     84          1           0       -6.468840   -0.172825   -1.010110
     85          1           0       -6.027311   -2.178716    1.067340
     86          1           0       -4.545361   -1.972487    1.965250
     87          1           0       -6.468820    0.172165    1.009770
     88          1           0       -5.799120   -0.090286    2.593670
     89          1           0       -4.546099    1.972533   -1.965320
     90          1           0       -6.028048    2.178134   -1.067290
     91          8           0        1.194881    0.626120   -0.975670
     92          5           0        2.223931    1.535709   -0.795560
     93          8           0        2.571032    2.119889    0.390630
     94          8           0        2.979311    1.915948   -1.862680
     95          6           0        3.803732    2.886938    0.152390
     96          6           0        3.818102    3.034278   -1.427740
     97          6           0        3.703483    4.198508    0.917840
     98          6           0        4.954321    2.046297    0.701460
     99          6           0        3.145873    4.311338   -1.930250
    100          6           0        5.188382    2.879157   -2.072810
    101          1           0        2.803263    4.751619    0.658410
    102          1           0        4.571323    4.828637    0.714520
    103          1           0        3.683213    3.996678    1.989710
    104          1           0        4.770161    1.833387    1.754810
    105          1           0        5.904712    2.574736    0.619490
    106          1           0        5.044081    1.097087    0.174290
    107          1           0        3.043873    4.249928   -3.014090
    108          1           0        3.741514    5.193738   -1.693160
    109          1           0        2.151083    4.439179   -1.504560
    110          1           0        5.636661    1.913007   -1.850120
    111          1           0        5.866613    3.665316   -1.735410
    112          1           0        5.088932    2.962977   -3.155400
 ---------------------------------------------------------------------

 SCF Done:  E(RB3LYP) =  -3043.82549298     A.U. after   16 cycles

      1  P    Isotropic =   238.9241   Anisotropy =   115.5403

      2  P    Isotropic =   238.8924   Anisotropy =   115.6007

      3  O    Isotropic =   171.5534   Anisotropy =    94.9983

      4  O    Isotropic =   159.9920   Anisotropy =    54.6465

      5  O    Isotropic =   163.3730   Anisotropy =    77.5270

      6  C    Isotropic =    44.0612   Anisotropy =   175.4697

      7  C    Isotropic =    52.8670   Anisotropy =   162.8150

      8  C    Isotropic =    52.8700   Anisotropy =   162.8209

      9  C    Isotropic =    44.5827   Anisotropy =   192.7142

     10  H    Isotropic =    24.2238   Anisotropy =     8.4945

     11  C    Isotropic =    45.7720   Anisotropy =    36.2258

     12  C    Isotropic =    49.3841   Anisotropy =   190.4922

     13  H    Isotropic =    24.2739   Anisotropy =     6.6818

     14  C    Isotropic =    44.5855   Anisotropy =   192.7102

     15  H    Isotropic =    24.2244   Anisotropy =     8.4944

     16  C    Isotropic =    47.5487   Anisotropy =   194.8253

     17  H    Isotropic =    24.2559   Anisotropy =     3.2654

     18  C    Isotropic =    47.2829   Anisotropy =   191.1961

     19  H    Isotropic =    24.6258   Anisotropy =    11.9809

     20  C    Isotropic =    44.0660   Anisotropy =   175.4660

     21  C    Isotropic =    49.3975   Anisotropy =   188.2080

     22  H    Isotropic =    23.9772   Anisotropy =     7.0966

     23  B    Isotropic =    83.6682   Anisotropy =     5.7622

     24  C    Isotropic =    39.7207   Anisotropy =   200.2113

     25  H    Isotropic =    23.2271   Anisotropy =     7.9503

     26  C    Isotropic =    41.3485   Anisotropy =   179.8697

     27  H    Isotropic =    23.4693   Anisotropy =    10.2831

     28  C    Isotropic =   157.7556   Anisotropy =    31.6360

     29  H    Isotropic =    31.2492   Anisotropy =     6.6653

     30  H    Isotropic =    31.4139   Anisotropy =     9.3074

     31  H    Isotropic =    31.9151   Anisotropy =    11.1563

     32  C    Isotropic =   160.0210   Anisotropy =    32.3246

     33  H    Isotropic =    31.4127   Anisotropy =     6.0315

     34  H    Isotropic =    31.2284   Anisotropy =    10.7848

     35  H    Isotropic =    30.9038   Anisotropy =     6.8293

     36  C    Isotropic =    50.0743   Anisotropy =   185.6835

     37  H    Isotropic =    23.9500   Anisotropy =     6.7167

     38  C    Isotropic =    91.7445   Anisotropy =    70.8408

     39  C    Isotropic =    47.2805   Anisotropy =   191.1999

     40  H    Isotropic =    24.6258   Anisotropy =    11.9809

     41  C    Isotropic =    44.9083   Anisotropy =   197.5063

     42  H    Isotropic =    23.8410   Anisotropy =     3.6098

     43  C    Isotropic =    47.5497   Anisotropy =   194.8229

     44  H    Isotropic =    24.2559   Anisotropy =     3.2658

     45  C    Isotropic =    49.3839   Anisotropy =   190.4921

     46  H    Isotropic =    24.2741   Anisotropy =     6.6816

     47  C    Isotropic =    49.2839   Anisotropy =   189.7491

     48  H    Isotropic =    24.3691   Anisotropy =     5.7736

     49  C    Isotropic =   159.9323   Anisotropy =    35.5445

     50  H    Isotropic =    30.7812   Anisotropy =     6.1527

     51  H    Isotropic =    31.1886   Anisotropy =    10.7890

     52  H    Isotropic =    30.7899   Anisotropy =     8.7845

     53  C    Isotropic =    41.3523   Anisotropy =   179.8705

     54  H    Isotropic =    23.4692   Anisotropy =    10.2816

     55  C    Isotropic =    49.2853   Anisotropy =   189.7481

     56  H    Isotropic =    24.3691   Anisotropy =     5.7736

     57  C    Isotropic =    44.9075   Anisotropy =   197.5066

     58  H    Isotropic =    23.8410   Anisotropy =     3.6099

     59  C    Isotropic =    39.7214   Anisotropy =   200.2099

     60  H    Isotropic =    23.2266   Anisotropy =     7.9491

     61  C    Isotropic =   156.6403   Anisotropy =    32.7366

     62  H    Isotropic =    30.7802   Anisotropy =     5.5352

     63  H    Isotropic =    30.9675   Anisotropy =    10.1400

     64  H    Isotropic =    30.6819   Anisotropy =     7.5943

     65  C    Isotropic =    94.1914   Anisotropy =    63.2037

     66  C    Isotropic =    50.0750   Anisotropy =   185.6834

     67  H    Isotropic =    23.9502   Anisotropy =     6.7166

     68  C    Isotropic =    49.3983   Anisotropy =   188.2067

     69  H    Isotropic =    23.9772   Anisotropy =     7.0967

     70  Rh   Isotropic =  -280.1338   Anisotropy =   299.4381

     71  C    Isotropic =    79.4699   Anisotropy =   120.8243

     72  C    Isotropic =    70.8311   Anisotropy =   126.8289

     73  C    Isotropic =    79.4268   Anisotropy =   120.8879

     74  C    Isotropic =    70.8216   Anisotropy =   126.8435

     75  C    Isotropic =   154.1688   Anisotropy =    24.6885

     76  H    Isotropic =    26.8226   Anisotropy =     6.4579

     77  H    Isotropic =    27.0452   Anisotropy =     3.3610

     78  C    Isotropic =   147.9567   Anisotropy =    28.2095

     79  C    Isotropic =   154.1721   Anisotropy =    24.6860

     80  H    Isotropic =    26.8199   Anisotropy =     6.4571

     81  C    Isotropic =   147.9677   Anisotropy =    28.1975

     82  H    Isotropic =    27.0442   Anisotropy =     3.3593

     83  H    Isotropic =    29.7535   Anisotropy =    11.7896

     84  H    Isotropic =    29.6712   Anisotropy =    10.4138

     85  H    Isotropic =    29.2921   Anisotropy =    13.0085

     86  H    Isotropic =    29.2345   Anisotropy =     6.9895

     87  H    Isotropic =    29.6711   Anisotropy =    10.4127

     88  H    Isotropic =    29.7535   Anisotropy =    11.7902

     89  H    Isotropic =    29.2350   Anisotropy =     6.9909

     90  H    Isotropic =    29.2926   Anisotropy =    13.0088

     91  O    Isotropic =   171.5692   Anisotropy =    95.0142

     92  B    Isotropic =    83.6678   Anisotropy =     5.7650

     93  O    Isotropic =   159.9869   Anisotropy =    54.6467

     94  O    Isotropic =   163.3563   Anisotropy =    77.5109

     95  C    Isotropic =    91.7450   Anisotropy =    70.8409

     96  C    Isotropic =    94.1852   Anisotropy =    63.2127

     97  C    Isotropic =   160.0226   Anisotropy =    32.3238

     98  C    Isotropic =   156.6409   Anisotropy =    32.7390

     99  C    Isotropic =   157.7586   Anisotropy =    31.6335

    100  C    Isotropic =   159.9340   Anisotropy =    35.5426

    101  H    Isotropic =    31.4132   Anisotropy =     6.0327

    102  H    Isotropic =    31.2282   Anisotropy =    10.7849

    103  H    Isotropic =    30.9042   Anisotropy =     6.8296

    104  H    Isotropic =    30.7803   Anisotropy =     5.5361

    105  H    Isotropic =    30.9676   Anisotropy =    10.1401

    106  H    Isotropic =    30.6819   Anisotropy =     7.5949

    107  H    Isotropic =    31.2492   Anisotropy =     6.6656

    108  H    Isotropic =    31.4137   Anisotropy =     9.3078

    109  H    Isotropic =    31.9141   Anisotropy =    11.1553

    110  H    Isotropic =    30.7812   Anisotropy =     6.1527

    111  H    Isotropic =    31.1887   Anisotropy =    10.7890

    112  H    Isotropic =    30.7898   Anisotropy =     8.7848

 The electronic state is 1-A.
 Alpha  occ. eigenvalues --  -77.22466 -77.22465 -19.24425 -19.24424 -19.21770
 Alpha  occ. eigenvalues --  -19.21769 -19.21055 -19.21054 -10.41194 -10.32399
 Alpha  occ. eigenvalues --  -10.32398 -10.32053 -10.32052 -10.28796 -10.28796
 Alpha  occ. eigenvalues --  -10.28317 -10.28317 -10.28266 -10.28266 -10.27912
 Alpha  occ. eigenvalues --  -10.27910 -10.27341 -10.27341 -10.27234 -10.27234
 Alpha  occ. eigenvalues --  -10.27192 -10.27191 -10.26820 -10.26819 -10.26800
 Alpha  occ. eigenvalues --  -10.26800 -10.26744 -10.26744 -10.26682 -10.26682
 Alpha  occ. eigenvalues --  -10.26643 -10.26642 -10.26616 -10.26615 -10.26505
 Alpha  occ. eigenvalues --  -10.26505 -10.26373 -10.26372 -10.26222 -10.26222
 Alpha  occ. eigenvalues --  -10.24244 -10.24243 -10.24234 -10.24234 -10.23818
 Alpha  occ. eigenvalues --  -10.23818 -10.23692 -10.23691  -6.89282  -6.89281
 Alpha  occ. eigenvalues --   -6.68452  -6.68452  -4.84721  -4.84720  -4.84665
 Alpha  occ. eigenvalues --   -4.84665  -4.84367  -4.84367  -3.30566  -2.07454
 Alpha  occ. eigenvalues --   -2.06815  -2.04026  -1.18729  -1.15194  -1.14352
 Alpha  occ. eigenvalues --   -1.11105  -1.08138  -1.08137  -0.95717  -0.95661
 Alpha  occ. eigenvalues --   -0.94993  -0.94989  -0.93643  -0.89198  -0.89069
 Alpha  occ. eigenvalues --   -0.88378  -0.87298  -0.87036  -0.86278  -0.84419
 Alpha  occ. eigenvalues --   -0.84418  -0.84085  -0.84084  -0.83812  -0.83805
 Alpha  occ. eigenvalues --   -0.83631  -0.83581  -0.80963  -0.79565  -0.78858
 Alpha  occ. eigenvalues --   -0.78754  -0.77112  -0.75981  -0.75932  -0.74794
 Alpha  occ. eigenvalues --   -0.73600  -0.71250  -0.70442  -0.70314  -0.69919
 Alpha  occ. eigenvalues --   -0.69884  -0.69772  -0.69684  -0.69275  -0.69224
 Alpha  occ. eigenvalues --   -0.67495  -0.67016  -0.66069  -0.65015  -0.64515
 Alpha  occ. eigenvalues --   -0.64370  -0.62272  -0.61757  -0.61557  -0.61172
 Alpha  occ. eigenvalues --   -0.60850  -0.60719  -0.59571  -0.59180  -0.57340
 Alpha  occ. eigenvalues --   -0.56531  -0.56145  -0.55954  -0.55516  -0.55251
 Alpha  occ. eigenvalues --   -0.55183  -0.55089  -0.54956  -0.54942  -0.54753
 Alpha  occ. eigenvalues --   -0.54646  -0.54242  -0.54238  -0.53573  -0.53567
 Alpha  occ. eigenvalues --   -0.53346  -0.52978  -0.52305  -0.52162  -0.52100
 Alpha  occ. eigenvalues --   -0.51936  -0.51855  -0.51730  -0.51722  -0.51311
 Alpha  occ. eigenvalues --   -0.51251  -0.50795  -0.50464  -0.50370  -0.48671
 Alpha  occ. eigenvalues --   -0.48660  -0.48505  -0.48293  -0.48289  -0.48223
 Alpha  occ. eigenvalues --   -0.48138  -0.47970  -0.47357  -0.47252  -0.46984
 Alpha  occ. eigenvalues --   -0.46904  -0.46617  -0.46507  -0.46293  -0.46132
 Alpha  occ. eigenvalues --   -0.46064  -0.45613  -0.45359  -0.45235  -0.45157
 Alpha  occ. eigenvalues --   -0.45050  -0.45045  -0.44846  -0.44588  -0.44338
 Alpha  occ. eigenvalues --   -0.44030  -0.44027  -0.43930  -0.43920  -0.43307
 Alpha  occ. eigenvalues --   -0.43097  -0.42840  -0.42758  -0.42627  -0.42584
 Alpha  occ. eigenvalues --   -0.42188  -0.41977  -0.41872  -0.40478  -0.40203
 Alpha  occ. eigenvalues --   -0.40171  -0.39479  -0.39470  -0.38301  -0.36871
 Alpha  occ. eigenvalues --   -0.36810  -0.36199  -0.36191  -0.35287  -0.35228
 Alpha  occ. eigenvalues --   -0.35127  -0.35088  -0.34689  -0.34599  -0.34476
 Alpha  occ. eigenvalues --   -0.34046  -0.33954  -0.32903  -0.32588  -0.29791
 Alpha virt. eigenvalues --   -0.15735  -0.13704  -0.13508  -0.12199  -0.11598
 Alpha virt. eigenvalues --   -0.10890  -0.10636  -0.09907  -0.09783  -0.09745
 Alpha virt. eigenvalues --   -0.08603  -0.07148  -0.06375  -0.05693  -0.05386

 Mulliken charges:
               1
     1  P    0.289203
     2  P    0.289266
     3  O   -0.225197
     4  O   -0.243898
     5  O   -0.229841
     6  C   -0.265259
     7  C   -0.294835
     8  C   -0.294771
     9  C   -0.019649
    10  H    0.194807
    11  C   -0.197237
    12  C   -0.131124
    13  H    0.125758
    14  C   -0.019775
    15  H    0.194808
    16  C   -0.073191
    17  H    0.134208
    18  C   -0.049688
    19  H    0.164632
    20  C   -0.265427
    21  C   -0.142405
    22  H    0.123748
    23  B    0.404040
    24  C    0.030051
    25  H    0.219493
    26  C   -0.018755
    27  H    0.168120
    28  C   -0.399886
    29  H    0.148037
    30  H    0.143761
    31  H    0.158127
    32  C   -0.355796
    33  H    0.149804
    34  H    0.144162
    35  H    0.136031
    36  C   -0.152754
    37  H    0.123911
    38  C    0.028239
    39  C   -0.049646
    40  H    0.164644
    41  C   -0.059808
    42  H    0.132004
    43  C   -0.073222
    44  H    0.134208
    45  C   -0.131144
    46  H    0.125764
    47  C   -0.133619
    48  H    0.128961
    49  C   -0.333419
    50  H    0.134064
    51  H    0.135301
    52  H    0.144686
    53  C   -0.018770
    54  H    0.168112
    55  C   -0.133667
    56  H    0.128959
    57  C   -0.059808
    58  H    0.132004
    59  C    0.030086
    60  H    0.219511
    61  C   -0.370389
    62  H    0.150103
    63  H    0.149941
    64  H    0.119034
    65  C    0.053481
    66  C   -0.152759
    67  H    0.123909
    68  C   -0.142401
    69  H    0.123744
    70  Rh  -0.503063
    71  C   -0.057453
    72  C   -0.083228
    73  C   -0.057488
    74  C   -0.083163
    75  C   -0.350647
    76  H    0.193303
    77  H    0.206336
    78  C   -0.224168
    79  C   -0.350626
    80  H    0.193270
    81  C   -0.224122
    82  H    0.206306
    83  H    0.165324
    84  H    0.165649
    85  H    0.170304
    86  H    0.130561
    87  H    0.165651
    88  H    0.165328
    89  H    0.130558
    90  H    0.170301
    91  O   -0.225162
    92  B    0.404102
    93  O   -0.243907
    94  O   -0.229854
    95  C    0.028211
    96  C    0.053497
    97  C   -0.355772
    98  C   -0.370383
    99  C   -0.399924
   100  C   -0.333434
   101  H    0.149808
   102  H    0.144159
   103  H    0.136028
   104  H    0.150094
   105  H    0.149947
   106  H    0.119029
   107  H    0.148047
   108  H    0.143767
   109  H    0.158161
   110  H    0.134081
   111  H    0.135307
   112  H    0.144686
 Sum of Mulliken charges =   1.00000

 Dipole moment (field-independent basis, Debye):
    X=             -1.0761    Y=              0.0008    Z=              0.0002  Tot=              1.0761
 Quadrupole moment (field-independent basis, Debye-Ang):
   XX=           -276.2741   YY=           -288.8118   ZZ=           -312.1773
   XY=              0.0034   XZ=             -0.0038   YZ=             -1.9028

 Summary of Natural Population Analysis:

                                       Natural Population
                Natural  -----------------------------------------------
    Atom  No    Charge         Core      Valence    Rydberg      Total
 -----------------------------------------------------------------------
      P    1    1.06705      9.99624     3.88468    0.05202    13.93295
      P    2    1.06716      9.99624     3.88458    0.05202    13.93284
      O    3   -0.70070      1.99964     6.68631    0.01475     8.70070
      O    4   -0.71579      1.99969     6.70573    0.01037     8.71579
      O    5   -0.68097      1.99969     6.67070    0.01057     8.68097
      C    6   -0.33987      1.99897     4.31684    0.02407     6.33987
      C    7   -0.34742      1.99897     4.32442    0.02402     6.34742
      C    8   -0.34742      1.99897     4.32443    0.02402     6.34742
      C    9   -0.19425      1.99909     4.17997    0.01519     6.19425
      H   10    0.22481      0.00000     0.77295    0.00225     0.77519
      C   11    0.17062      1.99942     3.78320    0.04676     5.82938
      C   12   -0.20039      1.99919     4.18632    0.01487     6.20039
      H   13    0.22119      0.00000     0.77751    0.00130     0.77881
      C   14   -0.19426      1.99909     4.17999    0.01519     6.19426
      H   15    0.22480      0.00000     0.77295    0.00225     0.77520
      C   16   -0.18772      1.99920     4.17369    0.01484     6.18772
      H   17    0.22101      0.00000     0.77778    0.00121     0.77899
      C   18   -0.19111      1.99909     4.17673    0.01529     6.19111
      H   19    0.22567      0.00000     0.77255    0.00177     0.77433
      C   20   -0.33990      1.99897     4.31687    0.02407     6.33990
      C   21   -0.19450      1.99919     4.18061    0.01470     6.19450
      H   22    0.21857      0.00000     0.78012    0.00131     0.78143
      B   23    1.23369      1.99905     1.72573    0.04153     3.76631
      C   24   -0.17871      1.99909     4.16275    0.01687     6.17871
      H   25    0.24022      0.00000     0.75700    0.00278     0.75978
      C   26   -0.18369      1.99909     4.16918    0.01541     6.18369
      H   27    0.21709      0.00000     0.78077    0.00213     0.78291
      C   28   -0.62120      1.99936     4.61273    0.00911     6.62120
      H   29    0.22186      0.00000     0.77664    0.00149     0.77814
      H   30    0.21349      0.00000     0.78527    0.00123     0.78651
      H   31    0.21207      0.00000     0.78592    0.00201     0.78793
      C   32   -0.61608      1.99936     4.60818    0.00855     6.61608
      H   33    0.22013      0.00000     0.77845    0.00142     0.77987
      H   34    0.21611      0.00000     0.78278    0.00111     0.78389
      H   35    0.21554      0.00000     0.78301    0.00145     0.78446
      C   36   -0.20355      1.99919     4.18973    0.01463     6.20355
      H   37    0.21833      0.00000     0.78042    0.00126     0.78167
      C   38    0.25093      1.99925     3.73092    0.01891     5.74907
      C   39   -0.19111      1.99909     4.17673    0.01529     6.19111
      H   40    0.22568      0.00000     0.77255    0.00177     0.77432
      C   41   -0.17321      1.99920     4.15951    0.01449     6.17321
      H   42    0.21967      0.00000     0.77915    0.00118     0.78033
      C   43   -0.18773      1.99920     4.17370    0.01484     6.18773
      H   44    0.22100      0.00000     0.77778    0.00121     0.77900
      C   45   -0.20039      1.99919     4.18633    0.01487     6.20039
      H   46    0.22119      0.00000     0.77751    0.00130     0.77881
      C   47   -0.19649      1.99919     4.18241    0.01489     6.19649
      H   48    0.22123      0.00000     0.77753    0.00124     0.77877
      C   49   -0.61267      1.99936     4.60479    0.00852     6.61267
      H   50    0.21544      0.00000     0.78325    0.00131     0.78456
      H   51    0.21264      0.00000     0.78624    0.00113     0.78736
      H   52    0.22241      0.00000     0.77616    0.00143     0.77759
      C   53   -0.18369      1.99909     4.16918    0.01541     6.18369
      H   54    0.21709      0.00000     0.78078    0.00213     0.78291
      C   55   -0.19650      1.99919     4.18242    0.01489     6.19650
      H   56    0.22123      0.00000     0.77753    0.00124     0.77877
      C   57   -0.17320      1.99920     4.15951    0.01449     6.17320
      H   58    0.21966      0.00000     0.77915    0.00118     0.78034
      C   59   -0.17872      1.99909     4.16276    0.01687     6.17872
      H   60    0.24023      0.00000     0.75699    0.00278     0.75977
      C   61   -0.61813      1.99936     4.61009    0.00868     6.61813
      H   62    0.22080      0.00000     0.77767    0.00152     0.77920
      H   63    0.21723      0.00000     0.78158    0.00119     0.78277
      H   64    0.20486      0.00000     0.79352    0.00162     0.79514
      C   65    0.24304      1.99924     3.73868    0.01904     5.75696
      C   66   -0.20356      1.99919     4.18974    0.01463     6.20356
      H   67    0.21832      0.00000     0.78042    0.00126     0.78168
      C   68   -0.19450      1.99919     4.18061    0.01470     6.19450
      H   69    0.21857      0.00000     0.78012    0.00131     0.78143
     Rh   70   -0.41751     35.98621     9.40378    0.02752    45.41751
      C   71   -0.18886      1.99907     4.17011    0.01967     6.18886
      C   72   -0.15422      1.99909     4.13530    0.01983     6.15422
      C   73   -0.18874      1.99907     4.17000    0.01967     6.18874
      C   74   -0.15428      1.99909     4.13535    0.01984     6.15428
      C   75   -0.42375      1.99936     4.41249    0.01191     6.42375
      H   76    0.22548      0.00000     0.77244    0.00208     0.77452
      H   77    0.23310      0.00000     0.76493    0.00197     0.76690
      C   78   -0.41831      1.99935     4.40632    0.01264     6.41831
      C   79   -0.42378      1.99936     4.41252    0.01191     6.42378
      H   80    0.22548      0.00000     0.77244    0.00208     0.77452
      C   81   -0.41832      1.99935     4.40634    0.01264     6.41832
      H   82    0.23311      0.00000     0.76492    0.00197     0.76689
      H   83    0.22648      0.00000     0.77201    0.00151     0.77352
      H   84    0.21478      0.00000     0.78323    0.00199     0.78522
      H   85    0.23366      0.00000     0.76444    0.00191     0.76634
      H   86    0.21638      0.00000     0.78200    0.00161     0.78362
      H   87    0.21479      0.00000     0.78322    0.00199     0.78521
      H   88    0.22649      0.00000     0.77200    0.00151     0.77351
      H   89    0.21639      0.00000     0.78200    0.00161     0.78361
      H   90    0.23366      0.00000     0.76444    0.00191     0.76634
      O   91   -0.70069      1.99964     6.68630    0.01475     8.70069
      B   92    1.23369      1.99905     1.72572    0.04153     3.76631
      O   93   -0.71578      1.99969     6.70573    0.01037     8.71578
      O   94   -0.68098      1.99969     6.67071    0.01057     8.68098
      C   95    0.25092      1.99925     3.73092    0.01891     5.74908
      C   96    0.24305      1.99924     3.73867    0.01904     5.75695
      C   97   -0.61608      1.99936     4.60818    0.00855     6.61608
      C   98   -0.61812      1.99936     4.61009    0.00868     6.61812
      C   99   -0.62121      1.99936     4.61274    0.00911     6.62121
      C  100   -0.61267      1.99936     4.60479    0.00852     6.61267
      H  101    0.22013      0.00000     0.77845    0.00142     0.77987
      H  102    0.21611      0.00000     0.78278    0.00111     0.78389
      H  103    0.21554      0.00000     0.78300    0.00145     0.78446
      H  104    0.22080      0.00000     0.77768    0.00152     0.77920
      H  105    0.21723      0.00000     0.78158    0.00119     0.78277
      H  106    0.20486      0.00000     0.79351    0.00162     0.79514
      H  107    0.22187      0.00000     0.77664    0.00149     0.77813
      H  108    0.21350      0.00000     0.78527    0.00123     0.78650
      H  109    0.21208      0.00000     0.78592    0.00201     0.78792
      H  110    0.21545      0.00000     0.78324    0.00131     0.78455
      H  111    0.21264      0.00000     0.78623    0.00113     0.78736
      H  112    0.22241      0.00000     0.77616    0.00143     0.77759
 =======================================================================
   * Total *    1.00000    161.93880   294.96737    1.09383   458.00000

 Normal termination of Gaussian 16 at Tue Jan 21 02:00:28 2025.
