 Gaussian 16, Revision B.01,
 Gaussian 16:  ES64L-G16RevB.01 20-Dec-2017

 ------------------------------------------
 # nmr=giao b3lyp/genecp pop=nbo scfcyc=200
 ------------------------------------------

 -----------
 iPrPAMP_SPE
 -----------
 Symbolic Z-matrix:
 Charge =  1 Multiplicity = 1

                         Standard orientation:
 ---------------------------------------------------------------------
 Center     Atomic      Atomic             Coordinates (Angstroms)
 Number     Number       Type             X           Y           Z
 ---------------------------------------------------------------------
      1         15           0       -0.977839    0.416510    0.470859
      2         15           0        1.656430    1.395911    0.694289
      3          8           0       -2.934309   -0.776311   -1.306521
      4          6           0       -2.136250    1.326839   -0.635971
      5          6           0       -3.018530    0.575419   -1.439471
      6          6           0       -3.909420    1.217708   -2.296781
      7          1           0       -4.593300    0.646188   -2.907381
      8          6           0       -3.917181    2.606878   -2.374531
      9          1           0       -4.611191    3.095118   -3.046871
     10          6           0       -3.049441    3.361639   -1.598301
     11          1           0       -3.059432    4.441999   -1.654311
     12          6           0       -2.168431    2.717619   -0.735461
     13          1           0       -1.510541    3.322340   -0.127541
     14          6           0       -3.900078   -1.605182   -1.959601
     15          1           0       -3.669758   -2.622221   -1.654351
     16          1           0       -3.820739   -1.524521   -3.046271
     17          1           0       -4.912729   -1.349492   -1.640971
     18          6           0       -2.036519   -0.424511    1.725209
     19          6           0       -1.529819   -1.540380    2.395119
     20          1           0       -0.554248   -1.930260    2.130399
     21          6           0       -2.272988   -2.151481    3.400089
     22          1           0       -1.873898   -3.016540    3.914939
     23          6           0       -3.528188   -1.656211    3.737099
     24          1           0       -4.108668   -2.133942    4.516239
     25          6           0       -4.037509   -0.545192    3.070869
     26          1           0       -5.014069   -0.156602    3.331589
     27          6           0       -3.296399    0.071549    2.069099
     28          1           0       -3.703430    0.934189    1.556889
     29          6           0       -0.025430    1.699860    1.455989
     30          1           0       -0.386291    2.726990    1.431899
     31          1           0       -0.033830    1.368100    2.493309
     32          6           0        2.666030    0.526282    3.185659
     33          1           0        3.377880    0.682752    3.998969
     34          1           0        2.813561   -0.486338    2.806219
     35          1           0        1.666780    0.580541    3.618529
     36          6           0        4.349540    1.534223    1.589929
     37          1           0        5.032550    1.623523    2.437409
     38          1           0        4.578550    2.347073    0.902169
     39          1           0        4.576880    0.591703    1.087589
     40          6           0        2.083099    4.197171    0.266789
     41          1           0        2.003498    5.024611   -0.441931
     42          1           0        3.077679    4.247692    0.712309
     43          1           0        1.351059    4.375281    1.057129
     44          6           0        2.878859    2.639912   -1.582501
     45          1           0        2.863429    3.487342   -2.271471
     46          1           0        2.648410    1.742002   -2.155621
     47          1           0        3.896749    2.552132   -1.200681
     48         45           0        0.995451   -0.631309   -0.352831
     49          6           0        0.164732   -2.698809   -0.862081
     50          6           0        0.131482   -1.902269   -1.987551
     51          6           0        2.918651   -1.309378   -1.386151
     52          6           0        2.856892   -1.863608   -0.123911
     53          1           0       -0.746948   -2.751250   -0.277901
     54          6           0        1.196533   -3.772789   -0.574001
     55          1           0       -0.808109   -1.406060   -2.201551
     56          6           0        1.128442   -1.886859   -3.119181
     57          6           0        2.601232   -2.032098   -2.681071
     58          1           0        3.492831   -0.396228   -1.491331
     59          1           0        3.413481   -1.364398    0.661579
     60          6           0        2.409922   -3.260448    0.231179
     61          1           0        1.526103   -4.225859   -1.508901
     62          1           0        0.718753   -4.572929   -0.006141
     63          1           0        0.877282   -2.673269   -3.842211
     64          1           0        1.006571   -0.942459   -3.654131
     65          1           0        3.238552   -1.628958   -3.469781
     66          1           0        2.869312   -3.084548   -2.589121
     67          1           0        3.252293   -3.954498    0.117399
     68          1           0        2.161872   -3.268408    1.294879
     69          6           0        1.852819    2.871461   -0.467651
     70          1           0        0.867359    2.908271   -0.942361
     71          6           0        2.902140    1.578692    2.095759
     72          1           0        2.710919    2.567782    2.522209
 ---------------------------------------------------------------------

 SCF Done:  E(RB3LYP) =  -1959.89270722     A.U. after   16 cycles

      1  P    Isotropic =   327.4103   Anisotropy =    94.8603

      2  P    Isotropic =   301.7342   Anisotropy =    94.7006

      3  O    Isotropic =   208.7082   Anisotropy =   101.9931

      4  C    Isotropic =    61.9495   Anisotropy =   138.0035

      5  C    Isotropic =    15.1371   Anisotropy =   140.1690

      6  C    Isotropic =    68.6683   Anisotropy =   161.9728

      7  H    Isotropic =    24.9148   Anisotropy =     8.2551

      8  C    Isotropic =    43.8571   Anisotropy =   194.7555

      9  H    Isotropic =    24.0040   Anisotropy =     3.9821

     10  C    Isotropic =    57.5335   Anisotropy =   177.1039

     11  H    Isotropic =    24.4640   Anisotropy =     5.8944

     12  C    Isotropic =    48.5437   Anisotropy =   183.8848

     13  H    Isotropic =    24.4333   Anisotropy =    10.5855

     14  C    Isotropic =   128.5294   Anisotropy =    78.8250

     15  H    Isotropic =    28.4019   Anisotropy =     8.5328

     16  H    Isotropic =    28.3110   Anisotropy =     9.9780

     17  H    Isotropic =    28.6830   Anisotropy =    10.3305

     18  C    Isotropic =    40.8614   Anisotropy =   177.8451

     19  C    Isotropic =    46.4273   Anisotropy =   176.6414

     20  H    Isotropic =    23.3242   Anisotropy =     9.3460

     21  C    Isotropic =    49.0904   Anisotropy =   187.1910

     22  H    Isotropic =    24.0245   Anisotropy =     7.1043

     23  C    Isotropic =    45.8816   Anisotropy =   196.3140

     24  H    Isotropic =    24.0629   Anisotropy =     3.9217

     25  C    Isotropic =    48.6275   Anisotropy =   189.1083

     26  H    Isotropic =    24.3778   Anisotropy =     6.5588

     27  C    Isotropic =    49.8544   Anisotropy =   186.4025

     28  H    Isotropic =    24.9976   Anisotropy =    12.7745

     29  C    Isotropic =   139.6760   Anisotropy =    52.4373

     30  H    Isotropic =    28.4881   Anisotropy =     8.0136

     31  H    Isotropic =    28.9780   Anisotropy =     2.9253

     32  C    Isotropic =   164.5584   Anisotropy =    30.2565

     33  H    Isotropic =    30.5310   Anisotropy =    11.9495

     34  H    Isotropic =    30.6235   Anisotropy =     6.0685

     35  H    Isotropic =    30.6735   Anisotropy =     6.9734

     36  C    Isotropic =   165.0267   Anisotropy =    29.6092

     37  H    Isotropic =    30.5657   Anisotropy =    12.2871

     38  H    Isotropic =    30.6296   Anisotropy =     7.9104

     39  H    Isotropic =    31.1951   Anisotropy =     4.9376

     40  C    Isotropic =   168.6142   Anisotropy =    26.8809

     41  H    Isotropic =    30.4579   Anisotropy =    12.0447

     42  H    Isotropic =    30.7800   Anisotropy =     8.2537

     43  H    Isotropic =    30.5531   Anisotropy =     7.7206

     44  C    Isotropic =   162.0085   Anisotropy =    30.0244

     45  H    Isotropic =    30.4725   Anisotropy =    11.0796

     46  H    Isotropic =    30.0867   Anisotropy =     7.1584

     47  H    Isotropic =    30.6914   Anisotropy =     6.7277

     48  Rh   Isotropic =  -330.4849   Anisotropy =   382.4426

     49  C    Isotropic =    79.3247   Anisotropy =   122.4083

     50  C    Isotropic =    74.6747   Anisotropy =   122.6984

     51  C    Isotropic =    81.9823   Anisotropy =   119.4377

     52  C    Isotropic =    77.4454   Anisotropy =   115.1736

     53  H    Isotropic =    26.9051   Anisotropy =     4.2622

     54  C    Isotropic =   154.4295   Anisotropy =    23.9397

     55  H    Isotropic =    26.0107   Anisotropy =     7.5255

     56  C    Isotropic =   147.7000   Anisotropy =    29.5791

     57  C    Isotropic =   154.2252   Anisotropy =    24.4373

     58  H    Isotropic =    26.9667   Anisotropy =     5.8839

     59  H    Isotropic =    25.8300   Anisotropy =     4.2928

     60  C    Isotropic =   146.8183   Anisotropy =    30.4119

     61  H    Isotropic =    29.7486   Anisotropy =     9.4697

     62  H    Isotropic =    29.7474   Anisotropy =    11.1132

     63  H    Isotropic =    29.2040   Anisotropy =    12.3314

     64  H    Isotropic =    29.2587   Anisotropy =     6.9658

     65  H    Isotropic =    29.8882   Anisotropy =    11.4477

     66  H    Isotropic =    29.7892   Anisotropy =     9.5603

     67  H    Isotropic =    28.9248   Anisotropy =    12.5980

     68  H    Isotropic =    28.8041   Anisotropy =     7.4515

     69  C    Isotropic =   144.5476   Anisotropy =    26.4085

     70  H    Isotropic =    29.7327   Anisotropy =     7.3409

     71  C    Isotropic =   149.4069   Anisotropy =    21.7192

     72  H    Isotropic =    29.7207   Anisotropy =     6.4491

 The electronic state is 1-A.
 Alpha  occ. eigenvalues --  -77.23946 -77.22704 -19.26758 -10.34833 -10.32387
 Alpha  occ. eigenvalues --  -10.30172 -10.30151 -10.30035 -10.29771 -10.29271
 Alpha  occ. eigenvalues --  -10.29253 -10.28938 -10.28805 -10.28672 -10.28560
 Alpha  occ. eigenvalues --  -10.28096 -10.28021 -10.27889 -10.27852 -10.27629
 Alpha  occ. eigenvalues --  -10.27395 -10.27367 -10.27301 -10.27275 -10.27257
 Alpha  occ. eigenvalues --  -10.27252 -10.27247 -10.27038 -10.27034 -10.26976
 Alpha  occ. eigenvalues --  -10.26638  -6.69857  -6.68764  -4.86158  -4.86081
 Alpha  occ. eigenvalues --   -4.85751  -4.85056  -4.84945  -4.84670  -3.31474
 Alpha  occ. eigenvalues --   -2.08355  -2.07686  -2.04943  -1.17809  -0.96791
 Alpha  occ. eigenvalues --   -0.96036  -0.94414  -0.92384  -0.89551  -0.89086
 Alpha  occ. eigenvalues --   -0.88770  -0.88000  -0.86376  -0.85527  -0.84940
 Alpha  occ. eigenvalues --   -0.84365  -0.80318  -0.80288  -0.79551  -0.79498
 Alpha  occ. eigenvalues --   -0.77772  -0.75842  -0.73405  -0.71085  -0.70663
 Alpha  occ. eigenvalues --   -0.70533  -0.70145  -0.69777  -0.67102  -0.65826
 Alpha  occ. eigenvalues --   -0.64625  -0.63894  -0.62453  -0.61450  -0.60276
 Alpha  occ. eigenvalues --   -0.59399  -0.58582  -0.57872  -0.57620  -0.57307
 Alpha  occ. eigenvalues --   -0.56642  -0.56310  -0.56235  -0.55756  -0.55307
 Alpha  occ. eigenvalues --   -0.55069  -0.54411  -0.53646  -0.53540  -0.52700
 Alpha  occ. eigenvalues --   -0.52554  -0.52508  -0.52411  -0.51895  -0.51469
 Alpha  occ. eigenvalues --   -0.50854  -0.49929  -0.49659  -0.49136  -0.49024
 Alpha  occ. eigenvalues --   -0.48289  -0.47997  -0.47758  -0.47465  -0.46857
 Alpha  occ. eigenvalues --   -0.46440  -0.46285  -0.45989  -0.45859  -0.45771
 Alpha  occ. eigenvalues --   -0.45438  -0.45096  -0.44782  -0.43732  -0.43647
 Alpha  occ. eigenvalues --   -0.43154  -0.42752  -0.42635  -0.42187  -0.41298
 Alpha  occ. eigenvalues --   -0.40818  -0.37954  -0.36481  -0.36416  -0.35734
 Alpha  occ. eigenvalues --   -0.35445  -0.34820  -0.34420  -0.33846  -0.33113
 Alpha  occ. eigenvalues --   -0.30741
 Alpha virt. eigenvalues --   -0.16294  -0.14609  -0.13002  -0.11928  -0.11437
 Alpha virt. eigenvalues --   -0.10615  -0.09247  -0.08431  -0.07407  -0.07219
 Alpha virt. eigenvalues --   -0.06594  -0.06180  -0.05657  -0.04951  -0.04454

 Mulliken charges:
               1
     1  P    0.431200
     2  P    0.422204
     3  O   -0.250613
     4  C   -0.183522
     5  C    0.104415
     6  C   -0.092722
     7  H    0.152756
     8  C   -0.119921
     9  H    0.135667
    10  C   -0.093194
    11  H    0.129938
    12  C   -0.077385
    13  H    0.117285
    14  C   -0.226062
    15  H    0.155953
    16  H    0.143749
    17  H    0.150715
    18  C   -0.258048
    19  C   -0.045536
    20  H    0.178930
    21  C   -0.106459
    22  H    0.129308
    23  C   -0.091616
    24  H    0.138291
    25  C   -0.096291
    26  H    0.134242
    27  C   -0.061326
    28  H    0.156199
    29  C   -0.609810
    30  H    0.201154
    31  H    0.228700
    32  C   -0.389357
    33  H    0.162252
    34  H    0.127082
    35  H    0.132310
    36  C   -0.399333
    37  H    0.156585
    38  H    0.140755
    39  H    0.140191
    40  C   -0.371761
    41  H    0.154932
    42  H    0.142361
    43  H    0.133551
    44  C   -0.408743
    45  H    0.154229
    46  H    0.143839
    47  H    0.139685
    48  Rh  -0.532944
    49  C   -0.088333
    50  C   -0.052718
    51  C   -0.040112
    52  C   -0.110362
    53  H    0.208539
    54  C   -0.359317
    55  H    0.209218
    56  C   -0.221247
    57  C   -0.349432
    58  H    0.186072
    59  H    0.169825
    60  C   -0.213159
    61  H    0.168239
    62  H    0.167645
    63  H    0.168230
    64  H    0.132602
    65  H    0.168671
    66  H    0.166871
    67  H    0.171805
    68  H    0.127671
    69  C   -0.182906
    70  H    0.146405
    71  C   -0.179590
    72  H    0.181548
 Sum of Mulliken charges =   1.00000

 Dipole moment (field-independent basis, Debye):
    X=             -0.1234    Y=              0.7602    Z=             -0.1387  Tot=              0.7826
 Quadrupole moment (field-independent basis, Debye-Ang):
   XX=           -169.3605   YY=           -183.0960   ZZ=           -192.1726
   XY=              3.6798   XZ=              6.9213   YZ=              0.7077

 Summary of Natural Population Analysis:

                                       Natural Population
                Natural  -----------------------------------------------
    Atom  No    Charge         Core      Valence    Rydberg      Total
 -----------------------------------------------------------------------
      P    1    1.11525      9.99662     3.83628    0.05186    13.88475
      P    2    1.09316      9.99682     3.86457    0.04545    13.90684
      O    3   -0.46652      1.99976     6.45095    0.01581     8.46652
      C    4   -0.37923      1.99890     4.35588    0.02445     6.37923
      C    5    0.29764      1.99869     3.68097    0.02270     5.70236
      C    6   -0.28037      1.99908     4.26751    0.01379     6.28037
      H    7    0.22658      0.00000     0.77156    0.00186     0.77342
      C    8   -0.15575      1.99922     4.14144    0.01509     6.15575
      H    9    0.22392      0.00000     0.77495    0.00113     0.77608
      C   10   -0.22473      1.99919     4.21025    0.01530     6.22473
      H   11    0.22377      0.00000     0.77504    0.00119     0.77623
      C   12   -0.17852      1.99912     4.16377    0.01564     6.17852
      H   13    0.20491      0.00000     0.79274    0.00235     0.79509
      C   14   -0.25656      1.99927     4.24428    0.01301     6.25656
      H   15    0.20533      0.00000     0.79340    0.00127     0.79467
      H   16    0.17976      0.00000     0.81826    0.00198     0.82024
      H   17    0.18641      0.00000     0.81169    0.00190     0.81359
      C   18   -0.32772      1.99898     4.30433    0.02440     6.32772
      C   19   -0.19661      1.99909     4.18203    0.01550     6.19661
      H   20    0.21923      0.00000     0.77874    0.00203     0.78077
      C   21   -0.19522      1.99920     4.18140    0.01462     6.19522
      H   22    0.21995      0.00000     0.77882    0.00124     0.78005
      C   23   -0.18062      1.99921     4.16678    0.01464     6.18062
      H   24    0.22230      0.00000     0.77651    0.00119     0.77770
      C   25   -0.19020      1.99920     4.17646    0.01454     6.19020
      H   26    0.22192      0.00000     0.77685    0.00123     0.77808
      C   27   -0.19191      1.99909     4.17674    0.01609     6.19191
      H   28    0.22009      0.00000     0.77804    0.00187     0.77991
      C   29   -0.98744      1.99942     4.97061    0.01742     6.98744
      H   30    0.24603      0.00000     0.75160    0.00237     0.75397
      H   31    0.26582      0.00000     0.73250    0.00168     0.73418
      C   32   -0.59160      1.99941     4.58493    0.00726     6.59160
      H   33    0.22486      0.00000     0.77363    0.00151     0.77514
      H   34    0.20740      0.00000     0.79103    0.00158     0.79260
      H   35    0.20689      0.00000     0.79155    0.00155     0.79311
      C   36   -0.59694      1.99941     4.59008    0.00744     6.59694
      H   37    0.22526      0.00000     0.77322    0.00152     0.77474
      H   38    0.20921      0.00000     0.78902    0.00177     0.79079
      H   39    0.20442      0.00000     0.79409    0.00149     0.79558
      C   40   -0.60327      1.99941     4.59576    0.00810     6.60327
      H   41    0.22548      0.00000     0.77304    0.00149     0.77452
      H   42    0.20823      0.00000     0.79019    0.00158     0.79177
      H   43    0.20493      0.00000     0.79338    0.00169     0.79507
      C   44   -0.59304      1.99941     4.58647    0.00716     6.59304
      H   45    0.22134      0.00000     0.77713    0.00153     0.77866
      H   46    0.21568      0.00000     0.78291    0.00141     0.78432
      H   47    0.20416      0.00000     0.79417    0.00167     0.79584
     Rh   48   -0.37805     35.98571     9.36350    0.02883    45.37805
      C   49   -0.18190      1.99907     4.16347    0.01936     6.18190
      C   50   -0.16313      1.99908     4.14433    0.01972     6.16313
      C   51   -0.18431      1.99908     4.16561    0.01962     6.18431
      C   52   -0.15507      1.99908     4.13584    0.02015     6.15507
      H   53    0.22971      0.00000     0.76799    0.00230     0.77029
      C   54   -0.42420      1.99936     4.41293    0.01192     6.42420
      H   55    0.23887      0.00000     0.75872    0.00241     0.76113
      C   56   -0.41845      1.99935     4.40653    0.01256     6.41845
      C   57   -0.42327      1.99936     4.41198    0.01193     6.42327
      H   58    0.22438      0.00000     0.77361    0.00201     0.77562
      H   59    0.21954      0.00000     0.77815    0.00232     0.78046
      C   60   -0.41806      1.99935     4.40593    0.01278     6.41806
      H   61    0.21472      0.00000     0.78330    0.00198     0.78528
      H   62    0.22708      0.00000     0.77142    0.00150     0.77292
      H   63    0.23240      0.00000     0.76571    0.00189     0.76760
      H   64    0.21651      0.00000     0.78185    0.00163     0.78349
      H   65    0.22795      0.00000     0.77055    0.00150     0.77205
      H   66    0.21466      0.00000     0.78335    0.00199     0.78534
      H   67    0.23353      0.00000     0.76457    0.00191     0.76647
      H   68    0.21397      0.00000     0.78440    0.00163     0.78603
      C   69   -0.45884      1.99941     4.44389    0.01555     6.45884
      H   70    0.22413      0.00000     0.77373    0.00214     0.77587
      C   71   -0.46932      1.99941     4.45509    0.01483     6.46932
      H   72    0.22347      0.00000     0.77413    0.00240     0.77653
 =======================================================================
   * Total *    1.00000    113.95674   175.40610    0.63716   290.00000

 Normal termination of Gaussian 16 at Thu Jan 30 10:57:00 2025.
