 Gaussian 16, Revision B.01,
 Gaussian 16:  ES64L-G16RevB.01 20-Dec-2017

 ------------------------------------------
 # nmr=giao b3lyp/genecp pop=nbo scfcyc=200
 ------------------------------------------

 ------------
 Ligand 8 SPE
 ------------
 Symbolic Z-matrix:
 Charge =  1 Multiplicity = 1

                         Standard orientation:
 ---------------------------------------------------------------------
 Center     Atomic      Atomic             Coordinates (Angstroms)
 Number     Number       Type             X           Y           Z
 ---------------------------------------------------------------------
      1          6           0       -0.958832   -2.780980   -0.266820
      2          1           0       -0.037523   -3.063791   -0.759960
      3          6           0       -0.874382   -2.473730    1.072790
      4          1           0        0.098838   -2.573611    1.539920
      5          6           0       -2.022552   -2.341699    2.041190
      6          1           0       -1.671342   -1.767659    2.901530
      7          1           0       -2.290933   -3.330559    2.433260
      8          6           0       -3.271862   -1.654628    1.452160
      9          1           0       -3.863481   -1.248527    2.274130
     10          1           0       -3.911242   -2.385427    0.957610
     11          6           0       -2.946611   -0.526328    0.490290
     12          1           0       -3.122700    0.469122    0.880520
     13          6           0       -2.826671   -0.646548   -0.882830
     14          1           0       -2.960920    0.255302   -1.471260
     15          6           0       -2.904682   -1.920358   -1.686460
     16          1           0       -2.429832   -1.733629   -2.652270
     17          1           0       -3.953162   -2.153987   -1.909960
     18          6           0       -2.228663   -3.134419   -1.016780
     19          1           0       -2.924473   -3.635268   -0.344350
     20          1           0       -1.981763   -3.864189   -1.789600
     21         45           0       -0.755771   -0.507840   -0.053920
     22         15           0        1.648090   -0.113972   -0.005680
     23          6           0        1.435211    1.737938   -0.290550
     24          1           0        1.668132    2.281038    0.623620
     25          1           0        2.041362    2.160768   -1.091000
     26         15           0       -0.409369    1.769880   -0.597720
     27          6           0        2.576480   -0.237253    1.684030
     28          6           0        3.097888   -1.666123    1.907360
     29          1           0        3.442748   -1.756463    2.940500
     30          1           0        3.945038   -1.902454    1.264850
     31          1           0        2.328618   -2.425002    1.755530
     32          6           0        1.538030    0.087658    2.773270
     33          1           0        2.017150    0.008738    3.752570
     34          1           0        0.692119   -0.598571    2.754030
     35          1           0        1.148461    1.101788    2.685920
     36          6           0        3.744130    0.754986    1.811630
     37          1           0        4.171940    0.658306    2.813230
     38          1           0        3.429101    1.793447    1.702900
     39          1           0        4.542760    0.566146    1.098820
     40          6           0        2.724929   -0.742683   -1.473890
     41          6           0        2.029180   -0.299402   -2.772400
     42          1           0        2.549579   -0.751803   -3.620070
     43          1           0        2.064100    0.780588   -2.916950
     44          1           0        0.988989   -0.629321   -2.808300
     45          6           0        4.152990   -0.178194   -1.455230
     46          1           0        4.648209   -0.443624   -2.393220
     47          1           0        4.752099   -0.596404   -0.647860
     48          1           0        4.175751    0.910106   -1.375230
     49          6           0        2.774268   -2.280293   -1.469840
     50          1           0        3.373448   -2.612173   -2.321600
     51          1           0        1.782148   -2.715392   -1.585080
     52          1           0        3.229748   -2.693443   -0.573010
     53          6           0       -1.124888    3.272900    0.332980
     54          6           0       -2.606957    3.422022   -0.052880
     55          1           0       -3.043767    4.242162    0.521950
     56          1           0       -3.187448    2.525442    0.170040
     57          1           0       -2.739047    3.663732   -1.107970
     58          6           0       -0.361806    4.553400   -0.040740
     59          1           0       -0.770056    5.391630    0.529990
     60          1           0       -0.462566    4.805400   -1.096920
     61          1           0        0.701383    4.488599    0.197870
     62          6           0       -1.010598    3.023830    1.844070
     63          1           0       -1.496167    3.841811    2.381660
     64          1           0        0.027652    2.996259    2.178560
     65          1           0       -1.491278    2.091921    2.145190
     66          6           0       -0.612788    2.201340   -2.386410
     67          1           0       -0.129278    3.148300   -2.626460
     68          1           0       -1.672778    2.272021   -2.626210
     69          1           0       -0.181639    1.414230   -2.999130
 ---------------------------------------------------------------------

 SCF Done:  E(RB3LYP) =  -1658.35896607     A.U. after   15 cycles

      1  C    Isotropic =    76.2151   Anisotropy =   126.4259

      2  H    Isotropic =    26.6644   Anisotropy =     5.8176

      3  C    Isotropic =    76.9430   Anisotropy =   116.7916

      4  H    Isotropic =    26.3238   Anisotropy =     3.5735

      5  C    Isotropic =   148.0785   Anisotropy =    28.6859

      6  H    Isotropic =    29.0966   Anisotropy =     6.8625

      7  H    Isotropic =    29.1139   Anisotropy =    12.5799

      8  C    Isotropic =   154.3294   Anisotropy =    25.0134

      9  H    Isotropic =    29.8297   Anisotropy =    11.4310

     10  H    Isotropic =    29.8007   Anisotropy =     9.6497

     11  C    Isotropic =    84.0012   Anisotropy =   115.2138

     12  H    Isotropic =    27.0971   Anisotropy =     6.2789

     13  C    Isotropic =    82.5978   Anisotropy =   109.6017

     14  H    Isotropic =    26.9361   Anisotropy =     4.3203

     15  C    Isotropic =   147.1850   Anisotropy =    30.5602

     16  H    Isotropic =    29.1175   Anisotropy =     7.4288

     17  H    Isotropic =    29.0836   Anisotropy =    12.7074

     18  C    Isotropic =   154.3398   Anisotropy =    25.3083

     19  H    Isotropic =    29.8376   Anisotropy =     9.4752

     20  H    Isotropic =    29.8493   Anisotropy =    11.4493

     21  Rh   Isotropic =  -340.1720   Anisotropy =   390.9527

     22  P    Isotropic =   285.4572   Anisotropy =   135.8724

     23  C    Isotropic =   146.1032   Anisotropy =    46.4145

     24  H    Isotropic =    28.8781   Anisotropy =     4.9156

     25  H    Isotropic =    29.3737   Anisotropy =     7.2214

     26  P    Isotropic =   314.0293   Anisotropy =   110.8706

     27  C    Isotropic =   133.6891   Anisotropy =    35.5268

     28  C    Isotropic =   155.3429   Anisotropy =    34.0945

     29  H    Isotropic =    30.6660   Anisotropy =    10.3684

     30  H    Isotropic =    30.4685   Anisotropy =     7.7557

     31  H    Isotropic =    30.7205   Anisotropy =     5.2383

     32  C    Isotropic =   151.2516   Anisotropy =    42.0087

     33  H    Isotropic =    30.8163   Anisotropy =     9.7583

     34  H    Isotropic =    29.9918   Anisotropy =     7.7631

     35  H    Isotropic =    30.3956   Anisotropy =     7.4896

     36  C    Isotropic =   157.7434   Anisotropy =    39.3013

     37  H    Isotropic =    30.8043   Anisotropy =    10.8610

     38  H    Isotropic =    30.7074   Anisotropy =     6.2857

     39  H    Isotropic =    30.4377   Anisotropy =     7.8988

     40  C    Isotropic =   135.5808   Anisotropy =    33.6444

     41  C    Isotropic =   150.6472   Anisotropy =    38.9273

     42  H    Isotropic =    30.7385   Anisotropy =     9.7333

     43  H    Isotropic =    30.7276   Anisotropy =     5.8375

     44  H    Isotropic =    30.0815   Anisotropy =     6.3014

     45  C    Isotropic =   157.2672   Anisotropy =    34.2425

     46  H    Isotropic =    30.7914   Anisotropy =    10.9951

     47  H    Isotropic =    30.5322   Anisotropy =     8.0207

     48  H    Isotropic =    30.7818   Anisotropy =     6.8348

     49  C    Isotropic =   155.6991   Anisotropy =    39.3042

     50  H    Isotropic =    30.7950   Anisotropy =    10.6203

     51  H    Isotropic =    30.8010   Anisotropy =     6.5549

     52  H    Isotropic =    30.3881   Anisotropy =     6.5315

     53  C    Isotropic =   139.7692   Anisotropy =    26.2524

     54  C    Isotropic =   158.4678   Anisotropy =    40.4567

     55  H    Isotropic =    30.8524   Anisotropy =    11.0047

     56  H    Isotropic =    31.2664   Anisotropy =     6.5672

     57  H    Isotropic =    30.8975   Anisotropy =     8.3334

     58  C    Isotropic =   160.1132   Anisotropy =    40.3659

     59  H    Isotropic =    30.7863   Anisotropy =    11.1876

     60  H    Isotropic =    30.7842   Anisotropy =     9.0113

     61  H    Isotropic =    30.9883   Anisotropy =     7.3754

     62  C    Isotropic =   155.1082   Anisotropy =    38.6692

     63  H    Isotropic =    30.6876   Anisotropy =    10.3240

     64  H    Isotropic =    30.6152   Anisotropy =     6.6726

     65  H    Isotropic =    30.4782   Anisotropy =     6.4064

     66  C    Isotropic =   172.9824   Anisotropy =    23.5679

     67  H    Isotropic =    30.5320   Anisotropy =    10.4437

     68  H    Isotropic =    30.5615   Anisotropy =     8.6097

     69  H    Isotropic =    30.1864   Anisotropy =     7.6741

 The electronic state is 1-A.
 Alpha  occ. eigenvalues --  -77.23645 -77.23273 -10.31782 -10.31751 -10.31646
 Alpha  occ. eigenvalues --  -10.30769 -10.29697 -10.29627 -10.29511 -10.29481
 Alpha  occ. eigenvalues --  -10.29227 -10.28058 -10.28036 -10.27805 -10.27796
 Alpha  occ. eigenvalues --  -10.27556 -10.27457 -10.27402 -10.27340 -10.27328
 Alpha  occ. eigenvalues --  -10.27226 -10.27205 -10.27084 -10.27040  -6.69680
 Alpha  occ. eigenvalues --   -6.69239  -4.85973  -4.85874  -4.85579  -4.85543
 Alpha  occ. eigenvalues --   -4.85418  -4.85139  -3.31947  -2.08806  -2.08183
 Alpha  occ. eigenvalues --   -2.05394  -0.95095  -0.94309  -0.93530  -0.92242
 Alpha  occ. eigenvalues --   -0.89768  -0.88586  -0.87522  -0.83325  -0.80984
 Alpha  occ. eigenvalues --   -0.80482  -0.80408  -0.80159  -0.80116  -0.79789
 Alpha  occ. eigenvalues --   -0.79622  -0.78393  -0.73980  -0.71123  -0.70912
 Alpha  occ. eigenvalues --   -0.66715  -0.66486  -0.64089  -0.63311  -0.63079
 Alpha  occ. eigenvalues --   -0.60878  -0.59516  -0.58351  -0.57911  -0.56980
 Alpha  occ. eigenvalues --   -0.56621  -0.56368  -0.55815  -0.55685  -0.55323
 Alpha  occ. eigenvalues --   -0.54908  -0.54576  -0.54316  -0.54186  -0.53207
 Alpha  occ. eigenvalues --   -0.53139  -0.52947  -0.52689  -0.51164  -0.50453
 Alpha  occ. eigenvalues --   -0.50133  -0.49814  -0.49687  -0.49136  -0.48826
 Alpha  occ. eigenvalues --   -0.48754  -0.48592  -0.48216  -0.48091  -0.47600
 Alpha  occ. eigenvalues --   -0.46883  -0.46558  -0.46035  -0.45831  -0.45507
 Alpha  occ. eigenvalues --   -0.45381  -0.45035  -0.44450  -0.43903  -0.43749
 Alpha  occ. eigenvalues --   -0.43502  -0.42653  -0.42193  -0.40992  -0.40733
 Alpha  occ. eigenvalues --   -0.37049  -0.36721  -0.35405  -0.35039  -0.34231
 Alpha  occ. eigenvalues --   -0.31190
 Alpha virt. eigenvalues --   -0.16571  -0.14656  -0.09917  -0.09086  -0.08760
 Alpha virt. eigenvalues --   -0.08336  -0.07873  -0.07010  -0.06787  -0.06309
 Alpha virt. eigenvalues --   -0.05453  -0.04664  -0.04469  -0.04253  -0.03915

 Mulliken charges:
               1
     1  C   -0.029790
     2  H    0.191192
     3  C   -0.106380
     4  H    0.172702
     5  C   -0.224300
     6  H    0.132199
     7  H    0.173977
     8  C   -0.352680
     9  H    0.169603
    10  H    0.170485
    11  C   -0.018310
    12  H    0.165369
    13  C   -0.077827
    14  H    0.173926
    15  C   -0.228646
    16  H    0.133545
    17  H    0.171837
    18  C   -0.342445
    19  H    0.170359
    20  H    0.169329
    21  Rh  -0.472638
    22  P    0.401714
    23  C   -0.618371
    24  H    0.189580
    25  H    0.208634
    26  P    0.395909
    27  C   -0.082581
    28  C   -0.430681
    29  H    0.157004
    30  H    0.149491
    31  H    0.149031
    32  C   -0.365244
    33  H    0.160231
    34  H    0.133657
    35  H    0.123889
    36  C   -0.357621
    37  H    0.152445
    38  H    0.130311
    39  H    0.153904
    40  C   -0.005991
    41  C   -0.457282
    42  H    0.162817
    43  H    0.143437
    44  H    0.155580
    45  C   -0.391542
    46  H    0.153751
    47  H    0.143255
    48  H    0.140344
    49  C   -0.403082
    50  H    0.158131
    51  H    0.123328
    52  H    0.159132
    53  C   -0.035786
    54  C   -0.421085
    55  H    0.157442
    56  H    0.147098
    57  H    0.151210
    58  C   -0.376731
    59  H    0.154656
    60  H    0.144165
    61  H    0.136364
    62  C   -0.389777
    63  H    0.162899
    64  H    0.129162
    65  H    0.140728
    66  C   -0.484152
    67  H    0.168431
    68  H    0.163865
    69  H    0.176819
 Sum of Mulliken charges =   1.00000

 Dipole moment (field-independent basis, Debye):
    X=              0.7455    Y=              1.3756    Z=             -0.5716  Tot=              1.6657
 Quadrupole moment (field-independent basis, Debye-Ang):
   XX=           -154.1082   YY=           -156.6606   ZZ=           -169.0860
   XY=             -0.4737   XZ=             -0.1494   YZ=             -1.0119

 Summary of Natural Population Analysis:

                                       Natural Population
                Natural  -----------------------------------------------
    Atom  No    Charge         Core      Valence    Rydberg      Total
 -----------------------------------------------------------------------
      C    1   -0.17021      1.99908     4.15153    0.01960     6.17021
      H    2    0.22040      0.00000     0.77727    0.00234     0.77960
      C    3   -0.16987      1.99909     4.15076    0.02001     6.16987
      H    4    0.22001      0.00000     0.77766    0.00233     0.77999
      C    5   -0.41795      1.99935     4.40577    0.01284     6.41795
      H    6    0.21542      0.00000     0.78270    0.00188     0.78458
      H    7    0.23470      0.00000     0.76341    0.00189     0.76530
      C    8   -0.42258      1.99935     4.41119    0.01203     6.42258
      H    9    0.22884      0.00000     0.76965    0.00151     0.77116
      H   10    0.21648      0.00000     0.78157    0.00196     0.78352
      C   11   -0.17862      1.99909     4.15993    0.01960     6.17862
      H   12    0.21880      0.00000     0.77883    0.00238     0.78120
      C   13   -0.16423      1.99910     4.14564    0.01950     6.16423
      H   14    0.21865      0.00000     0.77926    0.00210     0.78135
      C   15   -0.41574      1.99935     4.40368    0.01270     6.41574
      H   16    0.21642      0.00000     0.78185    0.00173     0.78358
      H   17    0.23386      0.00000     0.76428    0.00186     0.76614
      C   18   -0.42421      1.99935     4.41292    0.01194     6.42421
      H   19    0.21655      0.00000     0.78151    0.00194     0.78345
      H   20    0.22929      0.00000     0.76924    0.00147     0.77071
     Rh   21   -0.35261     35.98590     9.33743    0.02928    45.35261
      P   22    1.06489      9.99689     3.89336    0.04486    13.93511
      C   23   -1.01911      1.99940     5.00104    0.01866     7.01911
      H   24    0.25592      0.00000     0.74145    0.00263     0.74408
      H   25    0.25317      0.00000     0.74411    0.00272     0.74683
      P   26    1.10552      9.99684     3.85076    0.04688    13.89448
      C   27   -0.25381      1.99942     4.23769    0.01670     6.25381
      C   28   -0.60449      1.99935     4.59676    0.00838     6.60449
      H   29    0.22372      0.00000     0.77446    0.00182     0.77628
      H   30    0.20961      0.00000     0.78867    0.00172     0.79039
      H   31    0.20706      0.00000     0.79144    0.00150     0.79294
      C   32   -0.59795      1.99936     4.59001    0.00859     6.59795
      H   33    0.22216      0.00000     0.77600    0.00185     0.77784
      H   34    0.21614      0.00000     0.78197    0.00190     0.78386
      H   35    0.20362      0.00000     0.79448    0.00190     0.79638
      C   36   -0.60707      1.99935     4.59885    0.00887     6.60707
      H   37    0.22339      0.00000     0.77485    0.00176     0.77661
      H   38    0.20250      0.00000     0.79583    0.00167     0.79750
      H   39    0.21430      0.00000     0.78406    0.00165     0.78570
      C   40   -0.25916      1.99941     4.24252    0.01723     6.25916
      C   41   -0.60411      1.99936     4.59620    0.00855     6.60411
      H   42    0.22648      0.00000     0.77171    0.00181     0.77352
      H   43    0.20253      0.00000     0.79567    0.00181     0.79747
      H   44    0.21674      0.00000     0.78175    0.00151     0.78326
      C   45   -0.60711      1.99935     4.59880    0.00896     6.60711
      H   46    0.22339      0.00000     0.77487    0.00175     0.77661
      H   47    0.20928      0.00000     0.78902    0.00170     0.79072
      H   48    0.20685      0.00000     0.79132    0.00183     0.79315
      C   49   -0.60083      1.99935     4.59325    0.00823     6.60083
      H   50    0.22177      0.00000     0.77646    0.00177     0.77823
      H   51    0.20625      0.00000     0.79225    0.00150     0.79375
      H   52    0.21323      0.00000     0.78516    0.00161     0.78677
      C   53   -0.26156      1.99944     4.24564    0.01647     6.26156
      C   54   -0.60402      1.99936     4.59655    0.00811     6.60402
      H   55    0.22624      0.00000     0.77202    0.00174     0.77376
      H   56    0.20791      0.00000     0.79052    0.00157     0.79209
      H   57    0.21050      0.00000     0.78799    0.00151     0.78950
      C   58   -0.60730      1.99936     4.59913    0.00881     6.60730
      H   59    0.22655      0.00000     0.77176    0.00169     0.77345
      H   60    0.20975      0.00000     0.78861    0.00164     0.79025
      H   61    0.20688      0.00000     0.79150    0.00161     0.79312
      C   62   -0.59966      1.99936     4.59237    0.00793     6.59966
      H   63    0.22395      0.00000     0.77429    0.00177     0.77605
      H   64    0.20137      0.00000     0.79683    0.00180     0.79863
      H   65    0.21721      0.00000     0.78128    0.00152     0.78279
      C   66   -0.90750      1.99941     4.89728    0.01081     6.90750
      H   67    0.23531      0.00000     0.76245    0.00224     0.76469
      H   68    0.24071      0.00000     0.75792    0.00136     0.75929
      H   69    0.24541      0.00000     0.75318    0.00141     0.75459
 =======================================================================
   * Total *    1.00000     99.96468   149.55017    0.48515   250.00000

 Normal termination of Gaussian 16 at Mon Jan  1 03:38:48 2001.
