 Gaussian 16, Revision B.01,
 Gaussian 16:  ES64L-G16RevB.01 20-Dec-2017

 ------------------------------------------
 # nmr=giao b3lyp/genecp pop=nbo scfcyc=200
 ------------------------------------------

 -------------
 Ligand 87 SPE
 -------------
 Symbolic Z-matrix:
 Charge =  1 Multiplicity = 1

                         Standard orientation:
 ---------------------------------------------------------------------
 Center     Atomic      Atomic             Coordinates (Angstroms)
 Number     Number       Type             X           Y           Z
 ---------------------------------------------------------------------
      1         15           0        2.697170    0.880280    1.112640
      2         15           0        0.169270    0.205561    0.192410
      3          6           0       -4.209670    1.145591    0.892580
      4          8           0       -0.902230    1.034241   -0.753980
      5          6           0       -3.057320    0.645791    0.203270
      6          6           0        2.312490   -1.143640    2.974120
      7          1           0        2.685230   -1.738650    3.811380
      8          1           0        2.219010   -1.808810    2.114500
      9          1           0        1.315120   -0.797600    3.243830
     10          8           0       -0.822750   -0.744519    1.131280
     11          6           0        3.059591    3.039100   -0.596140
     12          1           0        1.983111    3.209690   -0.617660
     13          1           0        3.303291    2.329890   -1.386780
     14          1           0        3.539111    3.991810   -0.834630
     15          6           0        3.561171    2.565350    0.780110
     16          6           0        3.296970    0.009070    2.714290
     17          6           0        0.888180    1.333431    1.454570
     18          1           0        0.539820    1.161131    2.471450
     19          1           0        0.683511    2.368171    1.180620
     20          6           0       -4.355119    2.557581    1.050600
     21          6           0       -2.086089    1.540611   -0.191210
     22          6           0       -6.435759    2.224962    2.249850
     23          1           0       -7.298569    2.624342    2.767620
     24          6           0       -5.733520   -1.635369   -2.365390
     25          1           0       -6.523660   -1.133238   -2.909450
     26          6           0       -4.873110   -0.903389   -1.586250
     27          1           0       -4.989730    0.169081   -1.522240
     28          6           0        3.324510    0.941770    3.933490
     29          1           0        3.498360    0.341110    4.830430
     30          1           0        2.382981    1.474140    4.079160
     31          1           0        4.129341    1.673410    3.876300
     32          6           0        3.217851    3.639140    1.824860
     33          1           0        3.682131    4.580210    1.517600
     34          1           0        3.593481    3.400500    2.816890
     35          1           0        2.146011    3.825560    1.897560
     36          6           0       -2.223009    2.950341   -0.079240
     37          6           0       -1.813660   -1.492709    0.475800
     38          6           0        4.692730   -0.598110    2.493020
     39          1           0        5.455900    0.146410    2.275830
     40          1           0        4.688850   -1.335830    1.690760
     41          1           0        4.994890   -1.117430    3.406080
     42          6           0       -5.493009    3.068961    1.724740
     43          1           0       -5.599079    4.142671    1.825110
     44          6           0       -3.823850   -1.534049   -0.870590
     45          6           0       -5.196340    0.302061    1.463140
     46          1           0       -5.090720   -0.770169    1.381400
     47          6           0       -2.888630   -0.812629   -0.060780
     48          6           0       -6.276820    0.828812    2.125200
     49          1           0       -7.015030    0.166102    2.559170
     50          6           0       -3.670430   -2.947649   -1.001530
     51          6           0       -4.588210   -3.676069   -1.799980
     52          1           0       -4.470800   -4.750419   -1.878950
     53          6           0       -3.364799    3.419921    0.531550
     54          1           0       -3.518839    4.489411    0.608520
     55          6           0       -1.676630   -2.906559    0.414610
     56          6           0       -5.599120   -3.036039   -2.467620
     57          1           0       -6.292200   -3.599778   -3.079110
     58          6           0       -2.616360   -3.595339   -0.320570
     59          1           0       -2.558780   -4.676239   -0.365250
     60          6           0        5.085221    2.373290    0.721340
     61          1           0        5.541291    3.289520    0.338000
     62          1           0        5.381131    1.559980    0.056020
     63          1           0        5.516301    2.186450    1.704250
     64         45           0        2.078660   -0.496840   -0.812070
     65          6           0        4.031300   -0.541990   -2.116210
     66          6           0        4.019200   -1.646430   -1.305900
     67          6           0        1.274900   -2.028200   -2.269700
     68          6           0        1.199390   -0.771400   -2.844410
     69          6           0        3.650300   -0.509350   -3.582250
     70          1           0        4.569900    0.325470   -1.753050
     71          1           0        4.575040   -1.579550   -0.377660
     72          6           0        3.552920   -3.034840   -1.661820
     73          6           0        2.317970   -3.084360   -2.585830
     74          1           0        0.377720   -2.396029   -1.785090
     75          6           0        2.165960   -0.166810   -3.831760
     76          1           0        0.242300   -0.262729   -2.796010
     77          1           0        4.266330    0.241000   -4.080800
     78          1           0        3.904380   -1.461960   -4.045640
     79          1           0        4.381200   -3.591720   -2.117740
     80          1           0        3.319760   -3.554860   -0.730490
     81          1           0        2.618910   -3.005080   -3.630330
     82          1           0        1.856150   -4.067390   -2.482450
     83          1           0        2.037820    0.917120   -3.796990
     84          1           0        1.885110   -0.467950   -4.848930
     85          6           0       -1.228479    3.908551   -0.629080
     86          6           0       -0.795759    4.994741    0.141900
     87          6           0       -0.777809    3.809151   -1.951490
     88          6           0        0.050581    5.959631   -0.395240
     89          1           0       -1.131979    5.087881    1.167730
     90          6           0        0.062021    4.777101   -2.488750
     91          1           0       -1.112749    2.986541   -2.569440
     92          6           0        0.478361    5.856721   -1.714400
     93          1           0        0.366331    6.796711    0.215290
     94          1           0        0.379541    4.697511   -3.521320
     95          1           0        1.124601    6.614850   -2.138900
     96          6           0       -0.631430   -3.655739    1.159760
     97          6           0        0.113600   -4.656879    0.526150
     98          6           0       -0.449550   -3.459039    2.533400
     99          6           0        1.013539   -5.438930    1.242350
    100          1           0       -0.021520   -4.830859   -0.534700
    101          6           0        0.441130   -4.248029    3.250860
    102          1           0       -1.032280   -2.704739    3.046350
    103          6           0        1.178680   -5.238600    2.608850
    104          1           0        1.575159   -6.214230    0.735450
    105          1           0        0.549250   -4.098789    4.318280
    106          1           0        1.866569   -5.857440    3.171380
 ---------------------------------------------------------------------

 SCF Done:  E(RB3LYP) =  -2842.91066012     A.U. after   19 cycles

      1  P    Isotropic =   278.6476   Anisotropy =   139.5122

      2  P    Isotropic =   132.3076   Anisotropy =   217.4604

      3  C    Isotropic =    45.1944   Anisotropy =   200.8647

      4  O    Isotropic =   160.2445   Anisotropy =    54.9946

      5  C    Isotropic =    51.6786   Anisotropy =   136.9164

      6  C    Isotropic =   149.9382   Anisotropy =    47.3111

      7  H    Isotropic =    31.2916   Anisotropy =     8.4764

      8  H    Isotropic =    31.3125   Anisotropy =    11.6939

      9  H    Isotropic =    30.8453   Anisotropy =     5.8908

     10  O    Isotropic =   151.0809   Anisotropy =   100.0499

     11  C    Isotropic =   152.0635   Anisotropy =    41.1640

     12  H    Isotropic =    32.0502   Anisotropy =    14.5748

     13  H    Isotropic =    30.6662   Anisotropy =     6.4234

     14  H    Isotropic =    31.5854   Anisotropy =     8.1160

     15  C    Isotropic =   136.1509   Anisotropy =    32.2607

     16  C    Isotropic =   135.1795   Anisotropy =    33.6402

     17  C    Isotropic =   130.3824   Anisotropy =    65.0953

     18  H    Isotropic =    28.9559   Anisotropy =     3.4147

     19  H    Isotropic =    28.6499   Anisotropy =     7.9864

     20  C    Isotropic =    45.9908   Anisotropy =   210.4315

     21  C    Isotropic =    31.4099   Anisotropy =   102.3714

     22  C    Isotropic =    51.1077   Anisotropy =   185.1259

     23  H    Isotropic =    24.0415   Anisotropy =     4.2461

     24  C    Isotropic =    50.5874   Anisotropy =   186.4512

     25  H    Isotropic =    24.2652   Anisotropy =     7.8816

     26  C    Isotropic =    51.6174   Anisotropy =   177.4387

     27  H    Isotropic =    24.5402   Anisotropy =    14.8275

     28  C    Isotropic =   157.6889   Anisotropy =    34.2720

     29  H    Isotropic =    31.0127   Anisotropy =    10.6130

     30  H    Isotropic =    31.0368   Anisotropy =     5.6568

     31  H    Isotropic =    30.8130   Anisotropy =     8.6432

     32  C    Isotropic =   158.8525   Anisotropy =    36.0610

     33  H    Isotropic =    31.2422   Anisotropy =     9.9246

     34  H    Isotropic =    30.8527   Anisotropy =     7.9330

     35  H    Isotropic =    31.2608   Anisotropy =     6.5809

     36  C    Isotropic =    44.2816   Anisotropy =   159.4083

     37  C    Isotropic =    31.2731   Anisotropy =   105.6152

     38  C    Isotropic =   155.5922   Anisotropy =    39.7263

     39  H    Isotropic =    30.6189   Anisotropy =     7.4944

     40  H    Isotropic =    31.0759   Anisotropy =     5.6240

     41  H    Isotropic =    30.9937   Anisotropy =    10.4136

     42  C    Isotropic =    49.9381   Anisotropy =   162.8639

     43  H    Isotropic =    23.6746   Anisotropy =     8.3096

     44  C    Isotropic =    45.0463   Anisotropy =   201.4303

     45  C    Isotropic =    51.8728   Anisotropy =   176.9477

     46  H    Isotropic =    24.5987   Anisotropy =    15.5270

     47  C    Isotropic =    50.5006   Anisotropy =   138.6111

     48  C    Isotropic =    50.4899   Anisotropy =   186.2937

     49  H    Isotropic =    24.2625   Anisotropy =     8.1763

     50  C    Isotropic =    45.9308   Anisotropy =   210.9021

     51  C    Isotropic =    50.3017   Anisotropy =   163.6315

     52  H    Isotropic =    23.7053   Anisotropy =     8.3911

     53  C    Isotropic =    45.0029   Anisotropy =   144.8262

     54  H    Isotropic =    23.7173   Anisotropy =    11.2338

     55  C    Isotropic =    43.4372   Anisotropy =   161.2778

     56  C    Isotropic =    51.1441   Anisotropy =   185.4813

     57  H    Isotropic =    24.0527   Anisotropy =     4.3064

     58  C    Isotropic =    44.8258   Anisotropy =   145.3632

     59  H    Isotropic =    23.7676   Anisotropy =    11.2552

     60  C    Isotropic =   155.7361   Anisotropy =    36.1508

     61  H    Isotropic =    30.9416   Anisotropy =    10.5403

     62  H    Isotropic =    31.2157   Anisotropy =     5.5563

     63  H    Isotropic =    30.7364   Anisotropy =     8.5277

     64  Rh   Isotropic =  -329.6545   Anisotropy =   389.7595

     65  C    Isotropic =    67.8637   Anisotropy =   138.4246

     66  C    Isotropic =    68.6307   Anisotropy =   130.4137

     67  C    Isotropic =    86.3695   Anisotropy =   111.3142

     68  C    Isotropic =    79.0245   Anisotropy =   114.9188

     69  C    Isotropic =   154.3844   Anisotropy =    25.1840

     70  H    Isotropic =    26.7040   Anisotropy =     5.6643

     71  H    Isotropic =    26.1795   Anisotropy =     3.2159

     72  C    Isotropic =   149.6990   Anisotropy =    25.7555

     73  C    Isotropic =   154.4740   Anisotropy =    22.1463

     74  H    Isotropic =    27.7305   Anisotropy =     9.6035

     75  C    Isotropic =   147.3595   Anisotropy =    31.3794

     76  H    Isotropic =    26.5273   Anisotropy =     3.2984

     77  H    Isotropic =    30.0645   Anisotropy =    11.7952

     78  H    Isotropic =    29.9105   Anisotropy =     9.5735

     79  H    Isotropic =    29.3639   Anisotropy =    12.7006

     80  H    Isotropic =    29.4810   Anisotropy =     7.6302

     81  H    Isotropic =    29.9807   Anisotropy =     9.5920

     82  H    Isotropic =    29.9526   Anisotropy =     9.5612

     83  H    Isotropic =    29.2553   Anisotropy =     7.4478

     84  H    Isotropic =    29.2976   Anisotropy =    11.7444

     85  C    Isotropic =    37.8023   Anisotropy =   190.6659

     86  C    Isotropic =    49.6103   Anisotropy =   171.8416

     87  C    Isotropic =    46.5803   Anisotropy =   182.7080

     88  C    Isotropic =    48.8838   Anisotropy =   190.8402

     89  H    Isotropic =    24.0095   Anisotropy =     7.7672

     90  C    Isotropic =    50.2393   Anisotropy =   188.9251

     91  H    Isotropic =    23.9157   Anisotropy =     9.4089

     92  C    Isotropic =    49.8814   Anisotropy =   192.3116

     93  H    Isotropic =    24.0341   Anisotropy =     4.1660

     94  H    Isotropic =    24.1864   Anisotropy =     5.3779

     95  H    Isotropic =    24.1763   Anisotropy =     2.9681

     96  C    Isotropic =    37.3263   Anisotropy =   191.6595

     97  C    Isotropic =    50.3759   Anisotropy =   170.0945

     98  C    Isotropic =    46.2285   Anisotropy =   182.5891

     99  C    Isotropic =    49.9472   Anisotropy =   188.2658

    100  H    Isotropic =    24.0534   Anisotropy =     6.6537

    101  C    Isotropic =    50.2518   Anisotropy =   189.2640

    102  H    Isotropic =    24.1837   Anisotropy =     9.7062

    103  C    Isotropic =    50.4391   Anisotropy =   190.5566

    104  H    Isotropic =    24.0462   Anisotropy =     4.9956

    105  H    Isotropic =    24.3331   Anisotropy =     5.2141

    106  H    Isotropic =    24.1498   Anisotropy =     3.1021

 The electronic state is 1-A.
 Alpha  occ. eigenvalues --  -77.30180 -77.22670 -19.26762 -19.26607 -10.33433
 Alpha  occ. eigenvalues --  -10.33353 -10.30859 -10.30803 -10.29718 -10.29501
 Alpha  occ. eigenvalues --  -10.29410 -10.28939 -10.28558 -10.28374 -10.28317
 Alpha  occ. eigenvalues --  -10.27984 -10.27977 -10.27603 -10.27557 -10.27524
 Alpha  occ. eigenvalues --  -10.27505 -10.27459 -10.27418 -10.27315 -10.27260
 Alpha  occ. eigenvalues --  -10.26970 -10.26896 -10.26643 -10.26560 -10.26523
 Alpha  occ. eigenvalues --  -10.26375 -10.26359 -10.26140 -10.26120 -10.26010
 Alpha  occ. eigenvalues --  -10.25991 -10.25968 -10.25937 -10.25888 -10.25853
 Alpha  occ. eigenvalues --  -10.25780 -10.25767 -10.25745 -10.25653 -10.25582
 Alpha  occ. eigenvalues --  -10.25529 -10.25439 -10.25398 -10.25329 -10.25313
 Alpha  occ. eigenvalues --  -10.25248 -10.25247 -10.25150  -6.75239  -6.68637
 Alpha  occ. eigenvalues --   -4.91715  -4.91515  -4.91026  -4.84952  -4.84800
 Alpha  occ. eigenvalues --   -4.84544  -3.31819  -2.08852  -2.08000  -2.05183
 Alpha  occ. eigenvalues --   -1.18287  -1.14465  -0.97806  -0.96456  -0.94839
 Alpha  occ. eigenvalues --   -0.94610  -0.94547  -0.93327  -0.91788  -0.91307
 Alpha  occ. eigenvalues --   -0.90996  -0.89398  -0.89311  -0.88143  -0.86833
 Alpha  occ. eigenvalues --   -0.85523  -0.84908  -0.84577  -0.83372  -0.83237
 Alpha  occ. eigenvalues --   -0.82351  -0.81555  -0.80816  -0.80484  -0.79648
 Alpha  occ. eigenvalues --   -0.79359  -0.79225  -0.78814  -0.78645  -0.77953
 Alpha  occ. eigenvalues --   -0.76175  -0.73061  -0.72285  -0.72062  -0.71208
 Alpha  occ. eigenvalues --   -0.70674  -0.70344  -0.69218  -0.68955  -0.67853
 Alpha  occ. eigenvalues --   -0.67562  -0.67261  -0.66016  -0.65976  -0.65697
 Alpha  occ. eigenvalues --   -0.64002  -0.62778  -0.62472  -0.61951  -0.61568
 Alpha  occ. eigenvalues --   -0.60935  -0.60352  -0.60011  -0.59259  -0.58267
 Alpha  occ. eigenvalues --   -0.57942  -0.57432  -0.56818  -0.56612  -0.56255
 Alpha  occ. eigenvalues --   -0.56183  -0.55540  -0.55096  -0.54897  -0.54733
 Alpha  occ. eigenvalues --   -0.54661  -0.54256  -0.54045  -0.53756  -0.53488
 Alpha  occ. eigenvalues --   -0.53394  -0.53322  -0.52723  -0.52679  -0.52577
 Alpha  occ. eigenvalues --   -0.52498  -0.52143  -0.51868  -0.51480  -0.51149
 Alpha  occ. eigenvalues --   -0.50745  -0.50636  -0.50479  -0.50417  -0.50314
 Alpha  occ. eigenvalues --   -0.50209  -0.49149  -0.48621  -0.48451  -0.48364
 Alpha  occ. eigenvalues --   -0.48228  -0.48112  -0.47832  -0.47586  -0.47446
 Alpha  occ. eigenvalues --   -0.47290  -0.46623  -0.46264  -0.46148  -0.45917
 Alpha  occ. eigenvalues --   -0.45624  -0.45224  -0.44995  -0.44845  -0.44775
 Alpha  occ. eigenvalues --   -0.44354  -0.44261  -0.44131  -0.43564  -0.43319
 Alpha  occ. eigenvalues --   -0.43127  -0.43098  -0.42957  -0.42923  -0.42789
 Alpha  occ. eigenvalues --   -0.42652  -0.42587  -0.41333  -0.41016  -0.40876
 Alpha  occ. eigenvalues --   -0.40569  -0.40417  -0.40060  -0.38191  -0.37360
 Alpha  occ. eigenvalues --   -0.36676  -0.36569  -0.35323  -0.35009  -0.34887
 Alpha  occ. eigenvalues --   -0.34744  -0.34218  -0.33998  -0.33851  -0.32281
 Alpha  occ. eigenvalues --   -0.31880  -0.30805  -0.30493  -0.29747
 Alpha virt. eigenvalues --   -0.16677  -0.14584  -0.14168  -0.13085  -0.11460
 Alpha virt. eigenvalues --   -0.11421  -0.09823  -0.09612  -0.09482  -0.08613
 Alpha virt. eigenvalues --   -0.08215  -0.08053  -0.07579  -0.07309  -0.07168

 Mulliken charges:
               1
     1  P    0.329522
     2  P    0.833668
     3  C   -0.004572
     4  O   -0.339066
     5  C    0.112208
     6  C   -0.444610
     7  H    0.152909
     8  H    0.173988
     9  H    0.142359
    10  O   -0.327014
    11  C   -0.381504
    12  H    0.160423
    13  H    0.131204
    14  H    0.151911
    15  C   -0.079630
    16  C    0.023040
    17  C   -0.647652
    18  H    0.217377
    19  H    0.232949
    20  C    0.109758
    21  C    0.021263
    22  C   -0.077733
    23  H    0.123176
    24  C   -0.072457
    25  H    0.121849
    26  C   -0.111579
    27  H    0.149110
    28  C   -0.385504
    29  H    0.150680
    30  H    0.140153
    31  H    0.141054
    32  C   -0.363223
    33  H    0.147413
    34  H    0.150845
    35  H    0.140176
    36  C    0.042107
    37  C   -0.021829
    38  C   -0.407369
    39  H    0.154120
    40  H    0.125549
    41  H    0.156047
    42  C   -0.145747
    43  H    0.118721
    44  C    0.042833
    45  C   -0.121152
    46  H    0.150663
    47  C    0.055956
    48  C   -0.070141
    49  H    0.121375
    50  C    0.091462
    51  C   -0.159709
    52  H    0.117034
    53  C   -0.313573
    54  H    0.136482
    55  C   -0.047604
    56  C   -0.073836
    57  H    0.123384
    58  C   -0.259145
    59  H    0.137271
    60  C   -0.418268
    61  H    0.154454
    62  H    0.143228
    63  H    0.148174
    64  Rh  -0.475473
    65  C   -0.028551
    66  C   -0.099228
    67  C   -0.054490
    68  C   -0.096546
    69  C   -0.356592
    70  H    0.171090
    71  H    0.188519
    72  C   -0.218460
    73  C   -0.362296
    74  H    0.225493
    75  C   -0.227110
    76  H    0.209873
    77  H    0.168916
    78  H    0.167467
    79  H    0.174921
    80  H    0.138856
    81  H    0.169983
    82  H    0.163839
    83  H    0.135721
    84  H    0.172892
    85  C   -0.104153
    86  C   -0.169780
    87  C   -0.078764
    88  C   -0.082478
    89  H    0.142516
    90  C   -0.091428
    91  H    0.124064
    92  C   -0.118220
    93  H    0.124694
    94  H    0.120646
    95  H    0.127124
    96  C   -0.010708
    97  C   -0.167790
    98  C   -0.115515
    99  C   -0.108128
   100  H    0.138700
   101  C   -0.091567
   102  H    0.127067
   103  C   -0.107502
   104  H    0.120630
   105  H    0.120745
   106  H    0.128042
 Sum of Mulliken charges =   1.00000

 Dipole moment (field-independent basis, Debye):
    X=              5.8427    Y=              0.6851    Z=              0.0485  Tot=              5.8829
 Quadrupole moment (field-independent basis, Debye-Ang):
   XX=           -268.3126   YY=           -288.5921   ZZ=           -308.4280
   XY=              1.6177   XZ=              0.2605   YZ=             10.4137

 Summary of Natural Population Analysis:

                                       Natural Population
                Natural  -----------------------------------------------
    Atom  No    Charge         Core      Valence    Rydberg      Total
 -----------------------------------------------------------------------
      P    1    1.05442      9.99694     3.90337    0.04527    13.94558
      P    2    1.72679      9.99579     3.18971    0.08771    13.27321
      C    3   -0.03382      1.99903     4.01843    0.01637     6.03382
      O    4   -0.74571      1.99979     6.73339    0.01252     8.74571
      C    5   -0.05548      1.99888     4.03680    0.01979     6.05548
      C    6   -0.60591      1.99936     4.59626    0.01029     6.60591
      H    7    0.22343      0.00000     0.77465    0.00192     0.77657
      H    8    0.22583      0.00000     0.77222    0.00195     0.77417
      H    9    0.20947      0.00000     0.78848    0.00205     0.79053
      O   10   -0.74298      1.99980     6.72925    0.01393     8.74298
      C   11   -0.60108      1.99936     4.59163    0.01008     6.60108
      H   12    0.21892      0.00000     0.77930    0.00178     0.78108
      H   13    0.21349      0.00000     0.78481    0.00169     0.78651
      H   14    0.22104      0.00000     0.77706    0.00190     0.77896
      C   15   -0.26014      1.99942     4.24400    0.01673     6.26014
      C   16   -0.26431      1.99941     4.24766    0.01724     6.26431
      C   17   -1.07141      1.99940     5.05401    0.01800     7.07141
      H   18    0.27132      0.00000     0.72636    0.00233     0.72868
      H   19    0.27574      0.00000     0.72190    0.00236     0.72426
      C   20   -0.05956      1.99910     4.04458    0.01588     6.05956
      C   21    0.27211      1.99856     3.70605    0.02328     5.72789
      C   22   -0.19448      1.99920     4.18045    0.01483     6.19448
      H   23    0.21952      0.00000     0.77932    0.00116     0.78048
      C   24   -0.18636      1.99920     4.17228    0.01487     6.18636
      H   25    0.21847      0.00000     0.78035    0.00118     0.78153
      C   26   -0.18673      1.99913     4.17378    0.01381     6.18673
      H   27    0.22095      0.00000     0.77732    0.00173     0.77905
      C   28   -0.60570      1.99935     4.59741    0.00894     6.60570
      H   29    0.22226      0.00000     0.77598    0.00176     0.77774
      H   30    0.20763      0.00000     0.79057    0.00180     0.79237
      H   31    0.20763      0.00000     0.79067    0.00170     0.79237
      C   32   -0.60626      1.99935     4.59793    0.00898     6.60626
      H   33    0.22157      0.00000     0.77667    0.00176     0.77843
      H   34    0.21140      0.00000     0.78693    0.00167     0.78860
      H   35    0.20845      0.00000     0.78994    0.00161     0.79155
      C   36   -0.08421      1.99894     4.06641    0.01886     6.08421
      C   37    0.27155      1.99856     3.70735    0.02253     5.72845
      C   38   -0.60003      1.99935     4.59248    0.00819     6.60003
      H   39    0.21058      0.00000     0.78777    0.00165     0.78942
      H   40    0.20600      0.00000     0.79254    0.00145     0.79400
      H   41    0.22141      0.00000     0.77682    0.00178     0.77859
      C   42   -0.17031      1.99915     4.15707    0.01409     6.17031
      H   43    0.21371      0.00000     0.78477    0.00152     0.78629
      C   44   -0.03627      1.99903     4.02080    0.01645     6.03627
      C   45   -0.18749      1.99913     4.17457    0.01379     6.18749
      H   46    0.22062      0.00000     0.77763    0.00175     0.77938
      C   47   -0.05245      1.99889     4.03439    0.01917     6.05245
      C   48   -0.18541      1.99920     4.17135    0.01486     6.18541
      H   49    0.21833      0.00000     0.78049    0.00118     0.78167
      C   50   -0.06015      1.99910     4.04510    0.01595     6.06015
      C   51   -0.17131      1.99915     4.15804    0.01412     6.17131
      H   52    0.21356      0.00000     0.78491    0.00153     0.78644
      C   53   -0.13715      1.99908     4.12590    0.01217     6.13715
      H   54    0.21750      0.00000     0.78042    0.00208     0.78250
      C   55   -0.08125      1.99894     4.06348    0.01882     6.08125
      C   56   -0.19430      1.99920     4.18027    0.01483     6.19430
      H   57    0.21945      0.00000     0.77939    0.00116     0.78055
      C   58   -0.14060      1.99908     4.12924    0.01228     6.14060
      H   59    0.21765      0.00000     0.78025    0.00210     0.78235
      C   60   -0.60295      1.99935     4.59536    0.00824     6.60295
      H   61    0.22262      0.00000     0.77556    0.00182     0.77738
      H   62    0.20608      0.00000     0.79239    0.00153     0.79392
      H   63    0.20870      0.00000     0.78958    0.00172     0.79130
     Rh   64   -0.40145     35.98511     9.38853    0.02780    45.40145
      C   65   -0.16451      1.99909     4.14527    0.02015     6.16451
      C   66   -0.16810      1.99910     4.14822    0.02078     6.16810
      C   67   -0.18847      1.99908     4.16962    0.01977     6.18847
      C   68   -0.15639      1.99910     4.13759    0.01970     6.15639
      C   69   -0.42765      1.99935     4.41627    0.01203     6.42765
      H   70    0.22241      0.00000     0.77531    0.00228     0.77759
      H   71    0.22489      0.00000     0.77292    0.00218     0.77511
      C   72   -0.42283      1.99934     4.41054    0.01294     6.42283
      C   73   -0.41990      1.99935     4.40878    0.01177     6.41990
      H   74    0.23247      0.00000     0.76535    0.00218     0.76753
      C   75   -0.41728      1.99935     4.40538    0.01256     6.41728
      H   76    0.23653      0.00000     0.76136    0.00211     0.76347
      H   77    0.22952      0.00000     0.76899    0.00148     0.77048
      H   78    0.21719      0.00000     0.78088    0.00193     0.78281
      H   79    0.23513      0.00000     0.76301    0.00186     0.76487
      H   80    0.22336      0.00000     0.77457    0.00207     0.77664
      H   81    0.21448      0.00000     0.78354    0.00199     0.78552
      H   82    0.22729      0.00000     0.77121    0.00149     0.77271
      H   83    0.21899      0.00000     0.77939    0.00163     0.78101
      H   84    0.23418      0.00000     0.76393    0.00189     0.76582
      C   85   -0.05450      1.99905     4.03680    0.01864     6.05450
      C   86   -0.20575      1.99912     4.19218    0.01445     6.20575
      C   87   -0.18527      1.99911     4.17188    0.01429     6.18527
      C   88   -0.20227      1.99920     4.18773    0.01533     6.20227
      H   89    0.21320      0.00000     0.78512    0.00168     0.78680
      C   90   -0.20173      1.99920     4.18767    0.01486     6.20173
      H   91    0.21587      0.00000     0.78240    0.00173     0.78413
      C   92   -0.20266      1.99920     4.18827    0.01519     6.20266
      H   93    0.21683      0.00000     0.78194    0.00123     0.78317
      H   94    0.21507      0.00000     0.78368    0.00125     0.78493
      H   95    0.21693      0.00000     0.78185    0.00122     0.78307
      C   96   -0.04924      1.99905     4.03125    0.01894     6.04924
      C   97   -0.20023      1.99913     4.18650    0.01461     6.20023
      C   98   -0.18241      1.99911     4.16929    0.01401     6.18241
      C   99   -0.20372      1.99920     4.18950    0.01502     6.20372
      H  100    0.20745      0.00000     0.79031    0.00224     0.79255
      C  101   -0.20102      1.99920     4.18695    0.01486     6.20102
      H  102    0.21498      0.00000     0.78333    0.00169     0.78502
      C  103   -0.20210      1.99920     4.18791    0.01499     6.20210
      H  104    0.21472      0.00000     0.78401    0.00126     0.78528
      H  105    0.21504      0.00000     0.78367    0.00129     0.78496
      H  106    0.21655      0.00000     0.78225    0.00120     0.78345
 =======================================================================
   * Total *    1.00000    157.93590   277.03902    1.02509   436.00000

 Normal termination of Gaussian 16 at Wed Nov 20 17:25:15 2024.
