 Gaussian 16, Revision B.01,
 Gaussian 16:  ES64L-G16RevB.01 20-Dec-2017

 ------------------------------------------
 # nmr=giao b3lyp/genecp pop=nbo scfcyc=200
 ------------------------------------------

 ---------
 MB-11_SPE
 ---------
 Symbolic Z-matrix:
 Charge =  1 Multiplicity = 1

                         Standard orientation:
 ---------------------------------------------------------------------
 Center     Atomic      Atomic             Coordinates (Angstroms)
 Number     Number       Type             X           Y           Z
 ---------------------------------------------------------------------
      1         15           0        1.141171    2.126810    0.915120
      2         15           0       -0.664439    0.585900   -0.555480
      3          6           0        1.712961    3.689870    0.115460
      4          1           0        1.521741    3.654370   -0.955990
      5          1           0        2.787081    3.800950    0.266900
      6          1           0        1.202192    4.552780    0.546080
      7          6           0       -0.772769    1.400770   -2.216270
      8          1           0       -0.768219    0.642080   -2.997610
      9          1           0        0.111691    2.023440   -2.347220
     10          1           0       -1.663769    2.017160   -2.320290
     11          6           0       -0.705889    2.041210    0.628230
     12          1           0       -1.174529    2.949830    0.249070
     13          1           0       -1.201189    1.761090    1.557130
     14          6           0       -2.151859   -0.499440   -0.308550
     15          1           0       -1.890549   -1.392420   -0.894360
     16          6           0        1.383401    2.465900    2.714480
     17          1           0        2.449151    2.571030    2.921570
     18          1           0        0.998611    1.634970    3.304410
     19          1           0        0.873801    3.385200    3.007210
     20         45           0        1.618431    0.062360   -0.107940
     21          6           0        3.885941    0.146890   -0.235910
     22          6           0        3.526591   -0.458530    0.951850
     23          6           0        1.801171   -2.128120   -0.708710
     24          6           0        1.955781   -1.345900   -1.834220
     25          6           0        4.378831   -0.574900   -1.476620
     26          1           0        4.107571    1.207930   -0.200320
     27          1           0        3.521541    0.160710    1.843490
     28          6           0        3.473431   -1.941070    1.228860
     29          6           0        2.925351   -2.794130    0.063610
     30          1           0        0.808781   -2.524220   -0.522710
     31          6           0        3.256001   -0.927740   -2.475070
     32          1           0        1.085441   -1.217520   -2.469890
     33          1           0        5.103771    0.063240   -1.984390
     34          1           0        4.924081   -1.472220   -1.184920
     35          1           0        4.470881   -2.299810    1.511850
     36          1           0        2.843511   -2.090720    2.107910
     37          1           0        3.729061   -3.062690   -0.621640
     38          1           0        2.554551   -3.735950    0.471340
     39          1           0        3.051201   -0.058950   -3.104330
     40          1           0        3.600101   -1.715540   -3.156940
     41          6           0       -3.377359   -0.102219    2.610180
     42          1           0       -3.472219   -0.572529    3.592470
     43          1           0       -2.924079    0.878930    2.768730
     44          1           0       -4.386249    0.058891    2.230270
     45          6           0       -0.651219   -1.456570    2.355270
     46          1           0       -0.020069   -2.169690    1.823700
     47          1           0       -0.078139   -0.536220    2.474440
     48          1           0       -0.835009   -1.861180    3.354730
     49          6           0       -3.091149   -2.948489    1.365670
     50          1           0       -2.494319   -3.594070    0.716280
     51          1           0       -3.106629   -3.410289    2.356310
     52          1           0       -4.112389   -2.945359    0.988930
     53          6           0       -3.767479   -0.068209   -2.990950
     54          1           0       -3.131949    0.659481   -3.493230
     55          1           0       -3.433619   -1.067419   -3.282630
     56          1           0       -4.778519    0.058171   -3.387020
     57          6           0       -5.285599   -0.979919   -0.561020
     58          1           0       -5.161579   -2.014669   -0.885450
     59          1           0       -5.478499   -0.977719    0.511130
     60          1           0       -6.183359   -0.594529   -1.052490
     61          6           0       -4.205509    1.900251   -0.607630
     62          1           0       -4.253989    2.021581    0.476190
     63          1           0       -3.479389    2.617421   -0.994580
     64          1           0       -5.180839    2.185591   -1.009780
     65         14           0       -3.833259    0.108811   -1.102960
     66         14           0       -2.328159   -1.223520    1.498410
 ---------------------------------------------------------------------

 SCF Done:  E(RB3LYP) =  -2121.91140177     A.U. after   16 cycles

      1  P    Isotropic =   347.3516   Anisotropy =    45.7966

      2  P    Isotropic =   330.1039   Anisotropy =    87.6764

      3  C    Isotropic =   165.8690   Anisotropy =    31.9135

      4  H    Isotropic =    30.4758   Anisotropy =     7.4641

      5  H    Isotropic =    30.5755   Anisotropy =     9.9035

      6  H    Isotropic =    30.4806   Anisotropy =    11.2051

      7  C    Isotropic =   162.5745   Anisotropy =    22.5382

      8  H    Isotropic =    30.4044   Anisotropy =     6.6558

      9  H    Isotropic =    30.1044   Anisotropy =     7.1152

     10  H    Isotropic =    30.0575   Anisotropy =     8.5342

     11  C    Isotropic =   133.7768   Anisotropy =    55.0875

     12  H    Isotropic =    29.0756   Anisotropy =     8.1991

     13  H    Isotropic =    28.6589   Anisotropy =     5.8395

     14  C    Isotropic =   160.4428   Anisotropy =    11.8984

     15  H    Isotropic =    31.7640   Anisotropy =     3.5601

     16  C    Isotropic =   166.4992   Anisotropy =    30.6857

     17  H    Isotropic =    30.6657   Anisotropy =    10.0000

     18  H    Isotropic =    30.4910   Anisotropy =     7.3513

     19  H    Isotropic =    30.4341   Anisotropy =    10.8098

     20  Rh   Isotropic =  -328.6372   Anisotropy =   355.8300

     21  C    Isotropic =    81.3272   Anisotropy =   118.3129

     22  C    Isotropic =    78.9304   Anisotropy =   113.0391

     23  C    Isotropic =    79.3238   Anisotropy =   118.4938

     24  C    Isotropic =    75.5889   Anisotropy =   116.1473

     25  C    Isotropic =   154.0838   Anisotropy =    25.3670

     26  H    Isotropic =    27.2989   Anisotropy =     8.0345

     27  H    Isotropic =    26.7923   Anisotropy =     5.0096

     28  C    Isotropic =   147.4767   Anisotropy =    28.1271

     29  C    Isotropic =   154.2764   Anisotropy =    23.8798

     30  H    Isotropic =    27.3309   Anisotropy =     4.8766

     31  C    Isotropic =   147.5181   Anisotropy =    30.5676

     32  H    Isotropic =    26.6665   Anisotropy =     3.9806

     33  H    Isotropic =    29.8983   Anisotropy =    11.9133

     34  H    Isotropic =    29.8441   Anisotropy =     9.3375

     35  H    Isotropic =    29.1414   Anisotropy =    12.6081

     36  H    Isotropic =    29.0828   Anisotropy =     6.7426

     37  H    Isotropic =    29.8330   Anisotropy =     9.5191

     38  H    Isotropic =    29.8503   Anisotropy =    10.4958

     39  H    Isotropic =    29.1986   Anisotropy =     7.7148

     40  H    Isotropic =    29.1507   Anisotropy =    12.4063

     41  C    Isotropic =   182.2491   Anisotropy =     8.6541

     42  H    Isotropic =    31.5768   Anisotropy =    11.2423

     43  H    Isotropic =    31.9111   Anisotropy =     6.2264

     44  H    Isotropic =    31.4541   Anisotropy =     8.3249

     45  C    Isotropic =   179.5282   Anisotropy =    10.2683

     46  H    Isotropic =    31.1688   Anisotropy =     9.4106

     47  H    Isotropic =    31.0857   Anisotropy =     9.0791

     48  H    Isotropic =    31.3349   Anisotropy =    10.2032

     49  C    Isotropic =   181.4585   Anisotropy =    13.9761

     50  H    Isotropic =    31.9277   Anisotropy =     7.7660

     51  H    Isotropic =    31.6516   Anisotropy =    11.0668

     52  H    Isotropic =    31.3956   Anisotropy =     9.1577

     53  C    Isotropic =   178.9436   Anisotropy =    15.9772

     54  H    Isotropic =    31.7515   Anisotropy =     6.9170

     55  H    Isotropic =    31.7914   Anisotropy =     7.5351

     56  H    Isotropic =    31.6008   Anisotropy =    11.6062

     57  C    Isotropic =   179.4918   Anisotropy =     8.5614

     58  H    Isotropic =    31.6150   Anisotropy =     7.7099

     59  H    Isotropic =    31.5910   Anisotropy =     6.7295

     60  H    Isotropic =    31.6798   Anisotropy =    11.3213

     61  C    Isotropic =   183.7610   Anisotropy =     6.8025

     62  H    Isotropic =    31.7857   Anisotropy =     6.5286

     63  H    Isotropic =    32.0292   Anisotropy =     6.8402

     64  H    Isotropic =    31.5943   Anisotropy =    12.1367

     65  Si   Isotropic =   339.0782   Anisotropy =    12.5066

     66  Si   Isotropic =   342.2700   Anisotropy =     8.7434

 The electronic state is 1-A.
 Alpha  occ. eigenvalues --  -77.24480 -77.24353 -66.23696 -66.23481 -10.30959
 Alpha  occ. eigenvalues --  -10.29870 -10.29791 -10.29773 -10.29596 -10.29512
 Alpha  occ. eigenvalues --  -10.29491 -10.29268 -10.28084 -10.28020 -10.27953
 Alpha  occ. eigenvalues --  -10.27831 -10.27794 -10.24845 -10.24687 -10.24616
 Alpha  occ. eigenvalues --  -10.24134 -10.24059 -10.23995  -6.70511  -6.70246
 Alpha  occ. eigenvalues --   -5.37472  -5.37250  -4.86806  -4.86726  -4.86554
 Alpha  occ. eigenvalues --   -4.86458  -4.86395  -4.86146  -3.73426  -3.73325
 Alpha  occ. eigenvalues --   -3.73294  -3.73210  -3.73088  -3.73083  -3.32046
 Alpha  occ. eigenvalues --   -2.08936  -2.08307  -2.05475  -0.95021  -0.91125
 Alpha  occ. eigenvalues --   -0.89778  -0.88536  -0.87330  -0.82734  -0.82346
 Alpha  occ. eigenvalues --   -0.82127  -0.80955  -0.80885  -0.78851  -0.78375
 Alpha  occ. eigenvalues --   -0.77992  -0.77825  -0.77522  -0.77014  -0.71110
 Alpha  occ. eigenvalues --   -0.67773  -0.66848  -0.66489  -0.63041  -0.60731
 Alpha  occ. eigenvalues --   -0.57981  -0.57890  -0.57528  -0.57019  -0.56705
 Alpha  occ. eigenvalues --   -0.56244  -0.55610  -0.54833  -0.54168  -0.53736
 Alpha  occ. eigenvalues --   -0.53342  -0.53118  -0.53069  -0.52807  -0.52552
 Alpha  occ. eigenvalues --   -0.52242  -0.51477  -0.51035  -0.50673  -0.50226
 Alpha  occ. eigenvalues --   -0.49843  -0.49362  -0.48916  -0.48772  -0.48438
 Alpha  occ. eigenvalues --   -0.48363  -0.48339  -0.47925  -0.47552  -0.47183
 Alpha  occ. eigenvalues --   -0.47073  -0.46908  -0.46472  -0.45008  -0.44208
 Alpha  occ. eigenvalues --   -0.43940  -0.43702  -0.42740  -0.42058  -0.40644
 Alpha  occ. eigenvalues --   -0.40177  -0.39964  -0.39884  -0.38622  -0.37458
 Alpha  occ. eigenvalues --   -0.36569  -0.35406  -0.35135  -0.34381  -0.31127
 Alpha virt. eigenvalues --   -0.16508  -0.14435  -0.10111  -0.09493  -0.09327
 Alpha virt. eigenvalues --   -0.08681  -0.07656  -0.07289  -0.06920  -0.06268
 Alpha virt. eigenvalues --   -0.05808  -0.05325  -0.05220  -0.05063  -0.04309

 Mulliken charges:
               1
     1  P    0.331783
     2  P    0.297735
     3  C   -0.420123
     4  H    0.152794
     5  H    0.163098
     6  H    0.163526
     7  C   -0.481032
     8  H    0.173079
     9  H    0.157273
    10  H    0.179376
    11  C   -0.547568
    12  H    0.211673
    13  H    0.202387
    14  C   -0.484570
    15  H    0.158066
    16  C   -0.426549
    17  H    0.164637
    18  H    0.161967
    19  H    0.166209
    20  Rh  -0.481102
    21  C   -0.019282
    22  C   -0.066225
    23  C   -0.023644
    24  C   -0.085111
    25  C   -0.346328
    26  H    0.168839
    27  H    0.174703
    28  C   -0.228682
    29  C   -0.355370
    30  H    0.178498
    31  C   -0.222218
    32  H    0.167513
    33  H    0.169918
    34  H    0.167159
    35  H    0.172555
    36  H    0.139871
    37  H    0.169732
    38  H    0.169195
    39  H    0.130204
    40  H    0.171677
    41  C   -0.563484
    42  H    0.158711
    43  H    0.130587
    44  H    0.153309
    45  C   -0.472176
    46  H    0.128051
    47  H    0.096995
    48  H    0.158065
    49  C   -0.524717
    50  H    0.132008
    51  H    0.148307
    52  H    0.161012
    53  C   -0.543441
    54  H    0.141466
    55  H    0.138879
    56  H    0.153091
    57  C   -0.545291
    58  H    0.150023
    59  H    0.152335
    60  H    0.157973
    61  C   -0.547700
    62  H    0.146160
    63  H    0.113826
    64  H    0.160292
    65  Si   0.598005
    66  Si   0.542051
 Sum of Mulliken charges =   1.00000

 Dipole moment (field-independent basis, Debye):
    X=              1.7264    Y=              2.6367    Z=              0.2753  Tot=              3.1637
 Quadrupole moment (field-independent basis, Debye-Ang):
   XX=           -152.7736   YY=           -167.9993   ZZ=           -176.4157
   XY=              1.4659   XZ=              1.2749   YZ=              3.1471

 Summary of Natural Population Analysis:

                                       Natural Population
                Natural  -----------------------------------------------
    Atom  No    Charge         Core      Valence    Rydberg      Total
 -----------------------------------------------------------------------
      P    1    1.10825      9.99683     3.84749    0.04743    13.89175
      P    2    1.13907      9.99689     3.81180    0.05224    13.86093
      C    3   -0.89527      1.99943     4.88619    0.00965     6.89527
      H    4    0.23950      0.00000     0.75929    0.00121     0.76050
      H    5    0.24321      0.00000     0.75573    0.00106     0.75679
      H    6    0.23764      0.00000     0.76046    0.00190     0.76236
      C    7   -0.90431      1.99942     4.89445    0.01044     6.90431
      H    8    0.24208      0.00000     0.75672    0.00120     0.75792
      H    9    0.23875      0.00000     0.75995    0.00131     0.76125
      H   10    0.23352      0.00000     0.76446    0.00202     0.76648
      C   11   -0.99571      1.99944     4.97908    0.01719     6.99571
      H   12    0.25331      0.00000     0.74445    0.00224     0.74669
      H   13    0.25840      0.00000     0.73980    0.00180     0.74160
      C   14   -1.41383      1.99936     5.39727    0.01719     7.41383
      H   15    0.26831      0.00000     0.73007    0.00162     0.73169
      C   16   -0.89828      1.99943     4.88959    0.00926     6.89828
      H   17    0.24333      0.00000     0.75559    0.00108     0.75667
      H   18    0.24203      0.00000     0.75673    0.00124     0.75797
      H   19    0.23954      0.00000     0.75863    0.00183     0.76046
     Rh   20   -0.41086     35.98581     9.39914    0.02591    45.41086
      C   21   -0.16676      1.99905     4.14776    0.01995     6.16676
      C   22   -0.16402      1.99907     4.14466    0.02029     6.16402
      C   23   -0.17854      1.99905     4.15945    0.02003     6.17854
      C   24   -0.15088      1.99907     4.13165    0.02017     6.15088
      C   25   -0.42390      1.99936     4.41259    0.01195     6.42390
      H   26    0.22091      0.00000     0.77716    0.00194     0.77909
      H   27    0.22174      0.00000     0.77648    0.00177     0.77826
      C   28   -0.41897      1.99935     4.40688    0.01273     6.41897
      C   29   -0.42404      1.99936     4.41258    0.01210     6.42404
      H   30    0.22199      0.00000     0.77594    0.00206     0.77801
      C   31   -0.42067      1.99936     4.40886    0.01245     6.42067
      H   32    0.21983      0.00000     0.77824    0.00193     0.78017
      H   33    0.22925      0.00000     0.76934    0.00140     0.77075
      H   34    0.21539      0.00000     0.78269    0.00192     0.78461
      H   35    0.23400      0.00000     0.76417    0.00183     0.76600
      H   36    0.21748      0.00000     0.78095    0.00157     0.78252
      H   37    0.21554      0.00000     0.78252    0.00195     0.78446
      H   38    0.22874      0.00000     0.76982    0.00143     0.77126
      H   39    0.21855      0.00000     0.77994    0.00150     0.78145
      H   40    0.23446      0.00000     0.76372    0.00181     0.76554
      C   41   -1.09498      1.99944     5.08665    0.00889     7.09498
      H   42    0.24429      0.00000     0.75477    0.00094     0.75571
      H   43    0.22125      0.00000     0.77744    0.00131     0.77875
      H   44    0.23502      0.00000     0.76378    0.00120     0.76498
      C   45   -1.08233      1.99945     5.07344    0.00944     7.08233
      H   46    0.23213      0.00000     0.76656    0.00130     0.76787
      H   47    0.21938      0.00000     0.77919    0.00143     0.78062
      H   48    0.24250      0.00000     0.75646    0.00104     0.75750
      C   49   -1.08941      1.99944     5.08155    0.00842     7.08941
      H   50    0.23091      0.00000     0.76809    0.00100     0.76909
      H   51    0.24128      0.00000     0.75779    0.00093     0.75872
      H   52    0.23970      0.00000     0.75920    0.00111     0.76030
      C   53   -1.09202      1.99945     5.08391    0.00866     7.09202
      H   54    0.22679      0.00000     0.77208    0.00113     0.77321
      H   55    0.23235      0.00000     0.76667    0.00099     0.76765
      H   56    0.24340      0.00000     0.75565    0.00095     0.75660
      C   57   -1.09126      1.99944     5.08327    0.00855     7.09126
      H   58    0.23584      0.00000     0.76313    0.00103     0.76416
      H   59    0.23098      0.00000     0.76784    0.00117     0.76902
      H   60    0.24361      0.00000     0.75538    0.00100     0.75639
      C   61   -1.09779      1.99945     5.08938    0.00897     7.09779
      H   62    0.23464      0.00000     0.76428    0.00109     0.76536
      H   63    0.21954      0.00000     0.77900    0.00146     0.78046
      H   64    0.24621      0.00000     0.75289    0.00089     0.75379
     Si   65    1.66243      9.99824     2.31239    0.02693    12.33757
     Si   66    1.66675      9.99816     2.30856    0.02653    12.33325
 =======================================================================
   * Total *    1.00000    113.96335   143.55168    0.48497   258.00000

 Normal termination of Gaussian 16 at Tue Jan 21 01:36:36 2025.
