 Gaussian 16, Revision B.01,
 Gaussian 16:  ES64L-G16RevB.01 20-Dec-2017

 ------------------------------------------
 # nmr=giao b3lyp/genecp pop=nbo scfcyc=200
 ------------------------------------------

 ----------
 MB-109_SPE
 ----------
 Symbolic Z-matrix:
 Charge =  1 Multiplicity = 1

                         Standard orientation:
 ---------------------------------------------------------------------
 Center     Atomic      Atomic             Coordinates (Angstroms)
 Number     Number       Type             X           Y           Z
 ---------------------------------------------------------------------
      1         15           0       -1.397741   -0.000181   -0.395951
      2          6           0       -2.776240   -1.031682   -1.054051
      3          6           0       -2.501559   -2.294772   -1.588531
      4          6           0       -3.531868   -3.128453   -2.017111
      5          6           0       -4.848698   -2.680294   -1.880921
      6          6           0       -5.152139   -1.433464   -1.338951
      7          6           0       -4.099430   -0.613094   -0.922381
      8          1           0       -4.323611    0.359256   -0.502401
      9          1           0       -5.659168   -3.325755   -2.203001
     10          1           0       -1.479608   -2.646831   -1.669751
     11          6           0       -2.021082    1.727158   -0.368331
     12          6           0       -2.089633    2.411568    0.842399
     13          6           0       -2.568744    3.724408    0.894189
     14          6           0       -2.974574    4.325187   -0.294391
     15          6           0       -2.912414    3.662357   -1.525191
     16          6           0       -2.431613    2.356278   -1.548321
     17          1           0       -2.394012    1.825168   -2.492651
     18          1           0       -3.353835    5.341637   -0.266301
     19          1           0       -1.762802    1.924268    1.753329
     20          6           0       -0.006641   -0.019660   -1.654091
     21         15           0        1.390229   -0.012819   -0.401151
     22          6           0        2.738310   -1.091958   -1.045981
     23          6           0        4.069710   -0.682777   -1.001071
     24          6           0        5.093981   -1.541126   -1.413471
     25          6           0        4.753542   -2.814426   -1.863121
     26          6           0        3.427122   -3.253667   -1.910621
     27          6           0        2.426701   -2.382548   -1.487371
     28          1           0        1.398502   -2.726329   -1.493421
     29          1           0        5.541822   -3.488955   -2.180661
     30          1           0        4.323099    0.309873   -0.651501
     31          6           0        2.052728    1.700612   -0.408831
     32          6           0        2.468717    2.298212   -1.603571
     33          6           0        2.963946    3.598982   -1.611461
     34          6           0        3.037676    4.288792   -0.396141
     35          6           0        2.633086    3.717852    0.807279
     36          6           0        2.132367    2.412122    0.785279
     37          1           0        1.791368    1.955361    1.706399
     38          1           0        3.421225    5.303983   -0.393331
     39          1           0        2.416558    1.748752   -2.536641
     40          1           0       -0.009680   -0.963030   -2.198521
     41          1           0       -0.004161    0.804360   -2.366101
     42         45           0       -0.001700   -0.745510    1.362199
     43          6           0       -1.419360   -1.084801    3.108839
     44          6           0       -1.467279   -2.184201    2.275979
     45          6           0        1.444781   -2.131899    2.440849
     46          6           0        1.493170   -0.888099    3.036019
     47          6           0       -0.666550   -1.006771    4.424429
     48          1           0       -2.185210   -0.330192    2.962289
     49          1           0       -2.280219   -2.228472    1.559299
     50          6           0       -0.729298   -3.487811    2.458669
     51          6           0        0.712072   -3.341870    2.990659
     52          1           0        2.191181   -2.342678    1.683239
     53          6           0        0.770140   -0.455239    4.288079
     54          1           0        2.301470   -0.230148    2.732059
     55          1           0       -1.221560   -0.357681    5.103889
     56          1           0       -0.651869   -1.988841    4.896839
     57          1           0       -1.304747   -4.147101    3.120889
     58          1           0       -0.703517   -3.989811    1.489199
     59          1           0        0.713362   -3.306010    4.079949
     60          1           0        1.273473   -4.237719    2.719909
     61          1           0        0.733009    0.636730    4.288589
     62          1           0        1.357990   -0.732309    5.172139
     63          6           0       -3.363414    4.351647   -2.787271
     64          1           0       -4.408865    4.660396   -2.714721
     65          1           0       -2.773565    5.251858   -2.975791
     66          1           0       -3.266514    3.699577   -3.655391
     67          6           0       -2.616714    4.477268    2.199099
     68          1           0       -1.681295    5.017548    2.371389
     69          1           0       -3.422375    5.212137    2.204979
     70          1           0       -2.766854    3.803848    3.044119
     71          6           0       -6.579660   -0.962826   -1.230061
     72          1           0       -6.882020   -0.428716   -2.135471
     73          1           0       -7.265839   -1.800576   -1.101481
     74          1           0       -6.712700   -0.281186   -0.389001
     75          6           0       -3.242057   -4.477423   -2.623611
     76          1           0       -3.440587   -4.472843   -3.698641
     77          1           0       -2.200047   -4.765572   -2.481001
     78          1           0       -3.870726   -5.253343   -2.182601
     79          6           0        3.408456    4.258183   -2.891781
     80          1           0        2.800495    5.139302   -3.111251
     81          1           0        4.446456    4.591524   -2.823371
     82          1           0        3.330066    3.577833   -3.739851
     83          6           0        2.753386    4.475202    2.104939
     84          1           0        3.716216    4.276273    2.584349
     85          1           0        2.685845    5.551792    1.945429
     86          1           0        1.972376    4.186432    2.809959
     87          6           0        6.529650   -1.082995   -1.397161
     88          1           0        6.789810   -0.588134   -2.337311
     89          1           0        6.712520   -0.370425   -0.591751
     90          1           0        7.213581   -1.922804   -1.270601
     91          6           0        3.096493   -4.634218   -2.416921
     92          1           0        2.061793   -4.902918   -2.201481
     93          1           0        3.237043   -4.697087   -3.499291
     94          1           0        3.742874   -5.388007   -1.963351
 ---------------------------------------------------------------------

 SCF Done:  E(RB3LYP) =  -2386.26083496     A.U. after   16 cycles

      1  P    Isotropic =   316.5865   Anisotropy =   111.9267

      2  C    Isotropic =    43.1505   Anisotropy =   162.0325

      3  C    Isotropic =    52.6193   Anisotropy =   154.3433

      4  C    Isotropic =    36.1691   Anisotropy =   200.1030

      5  C    Isotropic =    45.5739   Anisotropy =   157.2340

      6  C    Isotropic =    35.7085   Anisotropy =   201.2681

      7  C    Isotropic =    49.0971   Anisotropy =   168.5936

      8  H    Isotropic =    25.5890   Anisotropy =    14.3108

      9  H    Isotropic =    24.4249   Anisotropy =     8.0096

     10  H    Isotropic =    24.1860   Anisotropy =    11.7004

     11  C    Isotropic =    46.7368   Anisotropy =   168.5824

     12  C    Isotropic =    43.2752   Anisotropy =   158.4919

     13  C    Isotropic =    37.4911   Anisotropy =   199.3158

     14  C    Isotropic =    44.1758   Anisotropy =   162.5686

     15  C    Isotropic =    35.3313   Anisotropy =   203.0424

     16  C    Isotropic =    49.8244   Anisotropy =   160.2766

     17  H    Isotropic =    25.0674   Anisotropy =    12.0158

     18  H    Isotropic =    24.4625   Anisotropy =     7.4629

     19  H    Isotropic =    24.1397   Anisotropy =    11.1016

     20  C    Isotropic =   127.4180   Anisotropy =    44.2192

     21  P    Isotropic =   317.7852   Anisotropy =   115.4477

     22  C    Isotropic =    42.9850   Anisotropy =   161.1525

     23  C    Isotropic =    48.7917   Anisotropy =   169.2053

     24  C    Isotropic =    35.8763   Anisotropy =   200.6694

     25  C    Isotropic =    45.6548   Anisotropy =   156.8812

     26  C    Isotropic =    36.2799   Anisotropy =   199.9265

     27  C    Isotropic =    52.1948   Anisotropy =   154.2867

     28  H    Isotropic =    24.1391   Anisotropy =    11.7193

     29  H    Isotropic =    24.4332   Anisotropy =     8.0213

     30  H    Isotropic =    25.4956   Anisotropy =    14.3438

     31  C    Isotropic =    46.5301   Anisotropy =   167.4807

     32  C    Isotropic =    49.5510   Anisotropy =   160.1493

     33  C    Isotropic =    35.3438   Anisotropy =   203.2665

     34  C    Isotropic =    44.2818   Anisotropy =   162.2383

     35  C    Isotropic =    37.2751   Anisotropy =   199.8851

     36  C    Isotropic =    43.8916   Anisotropy =   158.5303

     37  H    Isotropic =    24.1637   Anisotropy =    10.9422

     38  H    Isotropic =    24.4626   Anisotropy =     7.4413

     39  H    Isotropic =    25.0157   Anisotropy =    12.0142

     40  H    Isotropic =    27.3745   Anisotropy =     2.5660

     41  H    Isotropic =    28.1952   Anisotropy =     8.0167

     42  Rh   Isotropic =  -310.9470   Anisotropy =   336.7152

     43  C    Isotropic =    82.0101   Anisotropy =   115.9358

     44  C    Isotropic =    72.1112   Anisotropy =   123.8189

     45  C    Isotropic =    74.2893   Anisotropy =   128.1705

     46  C    Isotropic =    80.3087   Anisotropy =   110.5420

     47  C    Isotropic =   154.1105   Anisotropy =    24.7447

     48  H    Isotropic =    27.0575   Anisotropy =     6.8746

     49  H    Isotropic =    27.1103   Anisotropy =     4.5908

     50  C    Isotropic =   147.6498   Anisotropy =    29.0879

     51  C    Isotropic =   153.7660   Anisotropy =    25.0416

     52  H    Isotropic =    27.4795   Anisotropy =     5.5707

     53  C    Isotropic =   147.9325   Anisotropy =    29.6628

     54  H    Isotropic =    26.5552   Anisotropy =     4.5603

     55  H    Isotropic =    29.7865   Anisotropy =    11.6930

     56  H    Isotropic =    29.8250   Anisotropy =     9.5399

     57  H    Isotropic =    29.3305   Anisotropy =    12.2308

     58  H    Isotropic =    29.1838   Anisotropy =     7.3013

     59  H    Isotropic =    29.8749   Anisotropy =     9.6069

     60  H    Isotropic =    30.0221   Anisotropy =    10.7125

     61  H    Isotropic =    28.9186   Anisotropy =     8.4945

     62  H    Isotropic =    29.0392   Anisotropy =    12.6384

     63  C    Isotropic =   162.2114   Anisotropy =    42.4839

     64  H    Isotropic =    29.4167   Anisotropy =     9.8413

     65  H    Isotropic =    29.5174   Anisotropy =     8.7628

     66  H    Isotropic =    30.1393   Anisotropy =     5.9062

     67  C    Isotropic =   162.2185   Anisotropy =    41.1392

     68  H    Isotropic =    29.3301   Anisotropy =     7.4123

     69  H    Isotropic =    29.5299   Anisotropy =     9.7016

     70  H    Isotropic =    29.6192   Anisotropy =     5.7509

     71  C    Isotropic =   162.1333   Anisotropy =    42.4162

     72  H    Isotropic =    29.5118   Anisotropy =     8.9325

     73  H    Isotropic =    29.7140   Anisotropy =     9.4002

     74  H    Isotropic =    30.0310   Anisotropy =     6.0424

     75  C    Isotropic =   161.5851   Anisotropy =    42.0758

     76  H    Isotropic =    29.0644   Anisotropy =     9.3631

     77  H    Isotropic =    29.6362   Anisotropy =     6.2470

     78  H    Isotropic =    29.1785   Anisotropy =     8.8355

     79  C    Isotropic =   162.1266   Anisotropy =    42.5588

     80  H    Isotropic =    29.4896   Anisotropy =     8.7036

     81  H    Isotropic =    29.3898   Anisotropy =     9.8474

     82  H    Isotropic =    30.0984   Anisotropy =     5.9739

     83  C    Isotropic =   162.0859   Anisotropy =    41.2157

     84  H    Isotropic =    29.2145   Anisotropy =     9.1773

     85  H    Isotropic =    29.5818   Anisotropy =     8.6504

     86  H    Isotropic =    29.6240   Anisotropy =     5.4564

     87  C    Isotropic =   162.1724   Anisotropy =    42.3998

     88  H    Isotropic =    29.4890   Anisotropy =     8.8823

     89  H    Isotropic =    29.9964   Anisotropy =     6.1410

     90  H    Isotropic =    29.7217   Anisotropy =     9.3961

     91  C    Isotropic =   161.6255   Anisotropy =    42.0884

     92  H    Isotropic =    29.6430   Anisotropy =     6.1714

     93  H    Isotropic =    29.0691   Anisotropy =     9.3477

     94  H    Isotropic =    29.2074   Anisotropy =     8.8470

 The electronic state is 1-A.
 Alpha  occ. eigenvalues --  -77.22858 -77.22844 -10.29334 -10.28545 -10.28538
 Alpha  occ. eigenvalues --  -10.28466 -10.28414 -10.28358 -10.28309 -10.28241
 Alpha  occ. eigenvalues --  -10.28079 -10.27595 -10.27585 -10.27551 -10.27534
 Alpha  occ. eigenvalues --  -10.27531 -10.27523 -10.27355 -10.27344 -10.27010
 Alpha  occ. eigenvalues --  -10.26958 -10.26914 -10.26905 -10.26903 -10.26884
 Alpha  occ. eigenvalues --  -10.26867 -10.26826 -10.26737 -10.26691 -10.26567
 Alpha  occ. eigenvalues --  -10.26563 -10.26176 -10.26134 -10.25863 -10.25863
 Alpha  occ. eigenvalues --  -10.25143 -10.25093 -10.25058 -10.25040 -10.24922
 Alpha  occ. eigenvalues --  -10.24886 -10.24626 -10.24623  -6.68831  -6.68818
 Alpha  occ. eigenvalues --   -4.85115  -4.85102  -4.85051  -4.85038  -4.84736
 Alpha  occ. eigenvalues --   -4.84722  -3.30859  -2.07743  -2.07067  -2.04351
 Alpha  occ. eigenvalues --   -0.96260  -0.96096  -0.95619  -0.95599  -0.93787
 Alpha  occ. eigenvalues --   -0.89322  -0.88475  -0.87563  -0.87500  -0.87426
 Alpha  occ. eigenvalues --   -0.87395  -0.87359  -0.87254  -0.85350  -0.85288
 Alpha  occ. eigenvalues --   -0.83592  -0.79695  -0.78266  -0.78053  -0.77874
 Alpha  occ. eigenvalues --   -0.77851  -0.77513  -0.77446  -0.77271  -0.77236
 Alpha  occ. eigenvalues --   -0.77154  -0.74811  -0.72306  -0.69951  -0.68968
 Alpha  occ. eigenvalues --   -0.68830  -0.66888  -0.66753  -0.66504  -0.66442
 Alpha  occ. eigenvalues --   -0.65191  -0.64297  -0.64188  -0.61813  -0.60236
 Alpha  occ. eigenvalues --   -0.59990  -0.59746  -0.59300  -0.59000  -0.57354
 Alpha  occ. eigenvalues --   -0.57138  -0.56969  -0.56859  -0.56241  -0.55663
 Alpha  occ. eigenvalues --   -0.54630  -0.54029  -0.53061  -0.52235  -0.52050
 Alpha  occ. eigenvalues --   -0.51943  -0.51784  -0.51324  -0.51289  -0.51180
 Alpha  occ. eigenvalues --   -0.51156  -0.51053  -0.50718  -0.50095  -0.50061
 Alpha  occ. eigenvalues --   -0.50006  -0.49912  -0.49852  -0.49792  -0.49722
 Alpha  occ. eigenvalues --   -0.49611  -0.49597  -0.48788  -0.48292  -0.48244
 Alpha  occ. eigenvalues --   -0.48168  -0.48113  -0.47786  -0.47534  -0.47371
 Alpha  occ. eigenvalues --   -0.46705  -0.46499  -0.46215  -0.46185  -0.45925
 Alpha  occ. eigenvalues --   -0.45416  -0.44974  -0.44779  -0.44490  -0.44180
 Alpha  occ. eigenvalues --   -0.43947  -0.43492  -0.43412  -0.43255  -0.43241
 Alpha  occ. eigenvalues --   -0.42665  -0.42426  -0.42164  -0.41918  -0.41643
 Alpha  occ. eigenvalues --   -0.41578  -0.40426  -0.37070  -0.36452  -0.35031
 Alpha  occ. eigenvalues --   -0.34921  -0.34300  -0.33995  -0.33889  -0.33835
 Alpha  occ. eigenvalues --   -0.33545  -0.33444  -0.33288  -0.33212  -0.33056
 Alpha  occ. eigenvalues --   -0.30019
 Alpha virt. eigenvalues --   -0.15626  -0.14082  -0.12967  -0.12300  -0.12133
 Alpha virt. eigenvalues --   -0.10910  -0.10532  -0.09767  -0.09521  -0.09212
 Alpha virt. eigenvalues --   -0.08724  -0.07420  -0.06864  -0.05973  -0.05700

 Mulliken charges:
               1
     1  P    0.279560
     2  C   -0.122095
     3  C   -0.103392
     4  C    0.108403
     5  C   -0.163552
     6  C    0.132895
     7  C   -0.109875
     8  H    0.158640
     9  H    0.124990
    10  H    0.135887
    11  C   -0.136036
    12  C   -0.073790
    13  C    0.152673
    14  C   -0.187114
    15  C    0.165359
    16  C   -0.173278
    17  H    0.136896
    18  H    0.125482
    19  H    0.132755
    20  C   -0.591483
    21  P    0.256161
    22  C   -0.114167
    23  C   -0.116202
    24  C    0.130140
    25  C   -0.156353
    26  C    0.100247
    27  C   -0.095331
    28  H    0.145836
    29  H    0.124557
    30  H    0.159007
    31  C   -0.121785
    32  C   -0.175109
    33  C    0.167089
    34  C   -0.185771
    35  C    0.148240
    36  C   -0.082833
    37  H    0.150053
    38  H    0.125561
    39  H    0.138432
    40  H    0.206689
    41  H    0.209860
    42  Rh  -0.489440
    43  C   -0.005801
    44  C   -0.110451
    45  C   -0.025449
    46  C   -0.087363
    47  C   -0.349341
    48  H    0.172427
    49  H    0.220293
    50  C   -0.230810
    51  C   -0.357948
    52  H    0.210753
    53  C   -0.223111
    54  H    0.180559
    55  H    0.166146
    56  H    0.165599
    57  H    0.168987
    58  H    0.128581
    59  H    0.165217
    60  H    0.166060
    61  H    0.125482
    62  H    0.169731
    63  C   -0.443358
    64  H    0.149121
    65  H    0.146695
    66  H    0.134812
    67  C   -0.466738
    68  H    0.153102
    69  H    0.146314
    70  H    0.134574
    71  C   -0.443649
    72  H    0.156256
    73  H    0.142479
    74  H    0.136830
    75  C   -0.458101
    76  H    0.155511
    77  H    0.127270
    78  H    0.146278
    79  C   -0.443427
    80  H    0.147753
    81  H    0.148377
    82  H    0.134963
    83  C   -0.467384
    84  H    0.157786
    85  H    0.143639
    86  H    0.132378
    87  C   -0.442977
    88  H    0.156007
    89  H    0.136869
    90  H    0.142334
    91  C   -0.460180
    92  H    0.127262
    93  H    0.155639
    94  H    0.146200
 Sum of Mulliken charges =   1.00000

 Dipole moment (field-independent basis, Debye):
    X=              0.0750    Y=              0.2405    Z=             -0.2152  Tot=              0.3314
 Quadrupole moment (field-independent basis, Debye-Ang):
   XX=           -227.5070   YY=           -226.3250   ZZ=           -253.8633
   XY=              0.3157   XZ=              0.0439   YZ=              2.6687

 Summary of Natural Population Analysis:

                                       Natural Population
                Natural  -----------------------------------------------
    Atom  No    Charge         Core      Valence    Rydberg      Total
 -----------------------------------------------------------------------
      P    1    1.12093      9.99648     3.83154    0.05105    13.87907
      C    2   -0.32205      1.99900     4.29985    0.02320     6.32205
      C    3   -0.21403      1.99899     4.20088    0.01416     6.21403
      C    4    0.00608      1.99914     3.97970    0.01509     5.99392
      C    5   -0.18436      1.99901     4.17237    0.01299     6.18436
      C    6    0.00949      1.99914     3.97635    0.01502     5.99051
      C    7   -0.20603      1.99900     4.19301    0.01402     6.20603
      H    8    0.21896      0.00000     0.77864    0.00240     0.78104
      H    9    0.21033      0.00000     0.78811    0.00155     0.78967
      H   10    0.19960      0.00000     0.79767    0.00272     0.80040
      C   11   -0.32933      1.99901     4.30590    0.02442     6.32933
      C   12   -0.19114      1.99901     4.17730    0.01483     6.19114
      C   13    0.00048      1.99913     3.98555    0.01483     5.99952
      C   14   -0.17704      1.99901     4.16522    0.01280     6.17704
      C   15    0.00565      1.99914     3.98028    0.01493     5.99435
      C   16   -0.20573      1.99900     4.18998    0.01674     6.20573
      H   17    0.20957      0.00000     0.78765    0.00278     0.79043
      H   18    0.20969      0.00000     0.78877    0.00154     0.79031
      H   19    0.21387      0.00000     0.78370    0.00243     0.78613
      C   20   -0.96408      1.99942     4.94719    0.01747     6.96408
      P   21    1.12123      9.99648     3.83116    0.05113    13.87877
      C   22   -0.32156      1.99900     4.29922    0.02334     6.32156
      C   23   -0.20529      1.99900     4.19229    0.01400     6.20529
      C   24    0.00904      1.99914     3.97680    0.01503     5.99096
      C   25   -0.18418      1.99901     4.17217    0.01300     6.18418
      C   26    0.00547      1.99913     3.98032    0.01508     5.99453
      C   27   -0.21327      1.99899     4.20020    0.01407     6.21327
      H   28    0.20108      0.00000     0.79634    0.00258     0.79892
      H   29    0.21024      0.00000     0.78821    0.00156     0.78976
      H   30    0.21906      0.00000     0.77855    0.00239     0.78094
      C   31   -0.32928      1.99901     4.30598    0.02430     6.32928
      C   32   -0.20684      1.99900     4.19108    0.01675     6.20684
      C   33    0.00557      1.99914     3.98035    0.01494     5.99443
      C   34   -0.17735      1.99901     4.16550    0.01283     6.17735
      C   35    0.00053      1.99913     3.98552    0.01482     5.99947
      C   36   -0.19128      1.99901     4.17740    0.01487     6.19128
      H   37    0.21231      0.00000     0.78495    0.00274     0.78769
      H   38    0.20978      0.00000     0.78868    0.00154     0.79022
      H   39    0.20979      0.00000     0.78743    0.00278     0.79021
      H   40    0.25767      0.00000     0.74085    0.00148     0.74233
      H   41    0.25740      0.00000     0.74095    0.00164     0.74260
     Rh   42   -0.39990     35.98585     9.38521    0.02883    45.39990
      C   43   -0.18816      1.99906     4.16973    0.01937     6.18816
      C   44   -0.15011      1.99907     4.13129    0.01974     6.15011
      C   45   -0.15859      1.99906     4.14028    0.01924     6.15859
      C   46   -0.17670      1.99907     4.15794    0.01968     6.17670
      C   47   -0.42155      1.99936     4.41054    0.01165     6.42155
      H   48    0.22514      0.00000     0.77305    0.00182     0.77486
      H   49    0.23297      0.00000     0.76507    0.00196     0.76703
      C   50   -0.41726      1.99935     4.40539    0.01251     6.41726
      C   51   -0.42369      1.99936     4.41258    0.01175     6.42369
      H   52    0.23213      0.00000     0.76589    0.00198     0.76787
      C   53   -0.41671      1.99936     4.40475    0.01260     6.41671
      H   54    0.22548      0.00000     0.77268    0.00184     0.77452
      H   55    0.22662      0.00000     0.77188    0.00150     0.77338
      H   56    0.21412      0.00000     0.78388    0.00199     0.78588
      H   57    0.23162      0.00000     0.76645    0.00193     0.76838
      H   58    0.21496      0.00000     0.78349    0.00155     0.78504
      H   59    0.21367      0.00000     0.78436    0.00197     0.78633
      H   60    0.22738      0.00000     0.77115    0.00146     0.77262
      H   61    0.21219      0.00000     0.78625    0.00156     0.78781
      H   62    0.23204      0.00000     0.76601    0.00195     0.76796
      C   63   -0.61440      1.99941     4.60805    0.00694     6.61440
      H   64    0.22421      0.00000     0.77456    0.00123     0.77579
      H   65    0.22314      0.00000     0.77562    0.00124     0.77686
      H   66    0.21395      0.00000     0.78499    0.00106     0.78605
      C   67   -0.61301      1.99941     4.60666    0.00694     6.61301
      H   68    0.22125      0.00000     0.77735    0.00139     0.77875
      H   69    0.22169      0.00000     0.77720    0.00111     0.77831
      H   70    0.21392      0.00000     0.78492    0.00116     0.78608
      C   71   -0.61438      1.99941     4.60793    0.00704     6.61438
      H   72    0.22433      0.00000     0.77432    0.00135     0.77567
      H   73    0.22051      0.00000     0.77838    0.00112     0.77949
      H   74    0.21656      0.00000     0.78230    0.00114     0.78344
      C   75   -0.61360      1.99941     4.60719    0.00700     6.61360
      H   76    0.22539      0.00000     0.77332    0.00129     0.77461
      H   77    0.20915      0.00000     0.78968    0.00117     0.79085
      H   78    0.22308      0.00000     0.77574    0.00118     0.77692
      C   79   -0.61446      1.99941     4.60812    0.00693     6.61446
      H   80    0.22340      0.00000     0.77535    0.00125     0.77660
      H   81    0.22408      0.00000     0.77470    0.00122     0.77592
      H   82    0.21404      0.00000     0.78490    0.00106     0.78596
      C   83   -0.61316      1.99941     4.60680    0.00695     6.61316
      H   84    0.22411      0.00000     0.77455    0.00134     0.77589
      H   85    0.22029      0.00000     0.77859    0.00112     0.77971
      H   86    0.21272      0.00000     0.78607    0.00121     0.78728
      C   87   -0.61429      1.99941     4.60784    0.00704     6.61429
      H   88    0.22409      0.00000     0.77455    0.00135     0.77591
      H   89    0.21666      0.00000     0.78220    0.00114     0.78334
      H   90    0.22035      0.00000     0.77853    0.00111     0.77965
      C   91   -0.61355      1.99941     4.60716    0.00699     6.61355
      H   92    0.20908      0.00000     0.78974    0.00118     0.79092
      H   93    0.22520      0.00000     0.77351    0.00129     0.77480
      H   94    0.22296      0.00000     0.77586    0.00118     0.77704
 =======================================================================
   * Total *    1.00000    137.94435   231.25817    0.79748   370.00000

 Normal termination of Gaussian 16 at Tue Jan 21 19:02:21 2025.
