 Gaussian 16, Revision B.01,
 Gaussian 16:  ES64L-G16RevB.01 20-Dec-2017

 ------------------------------------------
 # nmr=giao b3lyp/genecp pop=nbo scfcyc=200
 ------------------------------------------

 ----------
 MB-119_SPE
 ----------
 Symbolic Z-matrix:
 Charge =  1 Multiplicity = 1

                         Standard orientation:
 ---------------------------------------------------------------------
 Center     Atomic      Atomic             Coordinates (Angstroms)
 Number     Number       Type             X           Y           Z
 ---------------------------------------------------------------------
      1         15           0       -1.562109   -0.042600    0.452880
      2         15           0        0.622901    0.356001   -1.048640
      3          8           0       -2.193300    1.354029    1.021640
      4          8           0        0.734010    1.967901   -1.379220
      5          8           0       -2.773159   -1.141901    0.618550
      6          8           0        1.309791   -0.388339   -2.345560
      7          6           0       -1.189879    0.163410   -1.359190
      8          6           0        1.837749    2.773741   -1.065930
      9          6           0        2.702909    3.135482   -2.090080
     10          6           0        3.759869    3.995682   -1.806380
     11          6           0        3.938878    4.488202   -0.517130
     12          6           0        3.052799    4.125702    0.493150
     13          6           0        1.990289    3.267991    0.222920
     14          6           0        2.497351   -1.131478   -2.310280
     15          6           0        3.719641   -0.512728   -2.083340
     16          6           0        4.879712   -1.282917   -2.108580
     17          6           0        4.813662   -2.648027   -2.368190
     18          6           0        3.580193   -3.248168   -2.606360
     19          6           0        2.413142   -2.491598   -2.577060
     20          6           0       -3.410598   -1.871791   -0.397320
     21          6           0       -3.153527   -3.234231   -0.474750
     22          6           0       -3.814237   -3.992632   -1.435790
     23          6           0       -4.717707   -3.390082   -2.306270
     24          6           0       -4.965758   -2.024632   -2.210820
     25          6           0       -4.315038   -1.254082   -1.250930
     26          6           0       -3.346530    1.999689    0.535990
     27          6           0       -3.198001    3.028809   -0.384280
     28          6           0       -4.330611    3.717108   -0.809950
     29          6           0       -5.585271    3.381717   -0.310210
     30          6           0       -5.710290    2.356167    0.622560
     31          6           0       -4.587120    1.658498    1.056950
     32          1           0       -1.667820    0.992069   -1.879930
     33          1           0       -1.376539   -0.771440   -1.890470
     34          1           0        2.536119    2.759082   -3.090950
     35          1           0        4.436459    4.288353   -2.599200
     36          1           0        4.757998    5.162433   -0.303250
     37          1           0        3.176798    4.524682    1.492050
     38          1           0        1.276029    2.999591    0.990910
     39          1           0        3.768381    0.554702   -1.910320
     40          1           0        5.837271   -0.807657   -1.937480
     41          1           0        5.719553   -3.239467   -2.396150
     42          1           0        3.523753   -4.307598   -2.822010
     43          1           0        1.447892   -2.939929   -2.772360
     44          1           0       -2.458397   -3.689571    0.218320
     45          1           0       -3.625556   -5.056782   -1.498630
     46          1           0       -5.231437   -3.983722   -3.051130
     47          1           0       -5.676178   -1.553123   -2.877820
     48          1           0       -4.522339   -0.196682   -1.154350
     49          1           0       -2.212301    3.297069   -0.742140
     50          1           0       -4.227092    4.524688   -1.523390
     51          1           0       -6.461991    3.924197   -0.639410
     52          1           0       -6.682980    2.101967    1.024050
     53          1           0       -4.666570    0.866558    1.789440
     54         45           0        0.589081   -0.421489    1.154950
     55          6           0        0.308981   -0.686369    3.408010
     56          6           0        0.045842   -1.891000    2.790620
     57          6           0        2.646362   -1.491058    1.462400
     58          6           0        2.762451   -0.181548    1.854250
     59          6           0        1.586091   -0.324319    4.141930
     60          1           0       -0.542509   -0.044490    3.608860
     61          1           0       -0.994818   -2.126170    2.592810
     62          6           0        0.987862   -3.057869    2.633960
     63          6           0        2.463342   -2.678258    2.386440
     64          1           0        2.930372   -1.726218    0.443330
     65          6           0        2.649221    0.362972    3.255970
     66          1           0        3.166001    0.518322    1.129660
     67          1           0        1.330791    0.355171    4.956330
     68          1           0        2.001431   -1.214579    4.613030
     69          1           0        0.916133   -3.703059    3.518580
     70          1           0        0.630073   -3.661409    1.797130
     71          1           0        2.970432   -2.487578    3.331550
     72          1           0        2.967193   -3.537548    1.941310
     73          1           0        2.415960    1.426912    3.179730
     74          1           0        3.627971    0.309432    3.748290
 ---------------------------------------------------------------------

 SCF Done:  E(RB3LYP) =  -2372.64863121     A.U. after   16 cycles

      1  P    Isotropic =   161.3964   Anisotropy =   178.0901

      2  P    Isotropic =   160.2984   Anisotropy =   203.3942

      3  O    Isotropic =   148.6383   Anisotropy =    77.4739

      4  O    Isotropic =   118.2812   Anisotropy =   103.0527

      5  O    Isotropic =   164.1014   Anisotropy =    97.6576

      6  O    Isotropic =   121.3377   Anisotropy =    95.2556

      7  C    Isotropic =   112.6192   Anisotropy =    72.4592

      8  C    Isotropic =    23.3173   Anisotropy =   117.0260

      9  C    Isotropic =    56.3232   Anisotropy =   159.5908

     10  C    Isotropic =    47.1645   Anisotropy =   190.0146

     11  C    Isotropic =    50.3198   Anisotropy =   191.2333

     12  C    Isotropic =    48.1591   Anisotropy =   187.7082

     13  C    Isotropic =    58.0059   Anisotropy =   155.2863

     14  C    Isotropic =    23.0481   Anisotropy =   120.9019

     15  C    Isotropic =    59.8715   Anisotropy =   152.8364

     16  C    Isotropic =    48.1781   Anisotropy =   189.1691

     17  C    Isotropic =    51.4395   Anisotropy =   190.6049

     18  C    Isotropic =    47.6977   Anisotropy =   189.5139

     19  C    Isotropic =    58.0215   Anisotropy =   156.3226

     20  C    Isotropic =    25.1793   Anisotropy =   109.6805

     21  C    Isotropic =    58.2050   Anisotropy =   152.7238

     22  C    Isotropic =    47.6624   Anisotropy =   188.2647

     23  C    Isotropic =    50.6949   Anisotropy =   191.1635

     24  C    Isotropic =    47.8245   Anisotropy =   188.3560

     25  C    Isotropic =    57.5678   Anisotropy =   157.9081

     26  C    Isotropic =    25.3154   Anisotropy =   106.5283

     27  C    Isotropic =    57.0290   Anisotropy =   155.7961

     28  C    Isotropic =    47.6966   Anisotropy =   188.4177

     29  C    Isotropic =    50.2189   Anisotropy =   191.5911

     30  C    Isotropic =    47.0263   Anisotropy =   190.1814

     31  C    Isotropic =    55.9580   Anisotropy =   159.7026

     32  H    Isotropic =    27.6311   Anisotropy =     6.7074

     33  H    Isotropic =    28.2885   Anisotropy =     8.3437

     34  H    Isotropic =    24.2770   Anisotropy =     8.3822

     35  H    Isotropic =    24.0029   Anisotropy =     5.0075

     36  H    Isotropic =    24.1308   Anisotropy =     3.8154

     37  H    Isotropic =    24.0468   Anisotropy =     6.6817

     38  H    Isotropic =    23.9551   Anisotropy =     6.8344

     39  H    Isotropic =    25.4080   Anisotropy =     6.8012

     40  H    Isotropic =    24.6787   Anisotropy =     6.7105

     41  H    Isotropic =    24.5058   Anisotropy =     3.5747

     42  H    Isotropic =    24.3299   Anisotropy =     5.1409

     43  H    Isotropic =    24.8427   Anisotropy =     7.1380

     44  H    Isotropic =    24.6154   Anisotropy =     7.9524

     45  H    Isotropic =    24.1575   Anisotropy =     5.5914

     46  H    Isotropic =    24.3492   Anisotropy =     3.7926

     47  H    Isotropic =    24.5498   Anisotropy =     7.0792

     48  H    Isotropic =    25.9977   Anisotropy =     8.3010

     49  H    Isotropic =    24.4322   Anisotropy =     8.3948

     50  H    Isotropic =    24.1210   Anisotropy =     6.5233

     51  H    Isotropic =    24.1648   Anisotropy =     3.4530

     52  H    Isotropic =    24.0920   Anisotropy =     5.6637

     53  H    Isotropic =    24.4688   Anisotropy =     9.0683

     54  Rh   Isotropic =  -311.2851   Anisotropy =   367.2115

     55  C    Isotropic =    75.5595   Anisotropy =   127.7034

     56  C    Isotropic =    71.1316   Anisotropy =   126.6015

     57  C    Isotropic =    67.1913   Anisotropy =   142.8933

     58  C    Isotropic =    72.7709   Anisotropy =   125.0139

     59  C    Isotropic =   154.4033   Anisotropy =    24.4511

     60  H    Isotropic =    26.4475   Anisotropy =     7.2025

     61  H    Isotropic =    25.6680   Anisotropy =     4.2194

     62  C    Isotropic =   147.6320   Anisotropy =    29.3057

     63  C    Isotropic =   154.2464   Anisotropy =    24.4468

     64  H    Isotropic =    28.2874   Anisotropy =    10.0786

     65  C    Isotropic =   149.5591   Anisotropy =    27.8487

     66  H    Isotropic =    26.7509   Anisotropy =     3.0628

     67  H    Isotropic =    29.7925   Anisotropy =    11.5963

     68  H    Isotropic =    29.7988   Anisotropy =     9.1398

     69  H    Isotropic =    29.1342   Anisotropy =    12.3166

     70  H    Isotropic =    29.2347   Anisotropy =     7.2292

     71  H    Isotropic =    30.0545   Anisotropy =     8.7472

     72  H    Isotropic =    30.4747   Anisotropy =    10.1367

     73  H    Isotropic =    29.2427   Anisotropy =     8.0177

     74  H    Isotropic =    29.3785   Anisotropy =    11.8749

 The electronic state is 1-A.
 Alpha  occ. eigenvalues --  -77.31844 -77.31610 -19.27896 -19.27878 -19.27775
 Alpha  occ. eigenvalues --  -19.27713 -10.34364 -10.34323 -10.34089 -10.33849
 Alpha  occ. eigenvalues --  -10.30881 -10.30525 -10.30222 -10.30216 -10.30145
 Alpha  occ. eigenvalues --  -10.28683 -10.28594 -10.28354 -10.28343 -10.27866
 Alpha  occ. eigenvalues --  -10.27789 -10.27757 -10.27734 -10.27694 -10.27672
 Alpha  occ. eigenvalues --  -10.27640 -10.27582 -10.27576 -10.27482 -10.27472
 Alpha  occ. eigenvalues --  -10.27430 -10.27425 -10.27341 -10.27170 -10.27113
 Alpha  occ. eigenvalues --  -10.27091 -10.26945 -10.26886 -10.26627  -6.76855
 Alpha  occ. eigenvalues --   -6.76648  -4.93293  -4.93176  -4.93071  -4.92937
 Alpha  occ. eigenvalues --   -4.92652  -4.92474  -3.33606  -2.10725  -2.09807
 Alpha  occ. eigenvalues --   -2.06874  -1.18921  -1.18727  -1.15890  -1.15748
 Alpha  occ. eigenvalues --   -0.96320  -0.96067  -0.95781  -0.95654  -0.95552
 Alpha  occ. eigenvalues --   -0.90477  -0.89822  -0.89139  -0.86137  -0.85464
 Alpha  occ. eigenvalues --   -0.85297  -0.85273  -0.84985  -0.84542  -0.84373
 Alpha  occ. eigenvalues --   -0.84089  -0.81516  -0.79004  -0.77171  -0.75068
 Alpha  occ. eigenvalues --   -0.72092  -0.71848  -0.71713  -0.71670  -0.71550
 Alpha  occ. eigenvalues --   -0.71377  -0.71231  -0.67926  -0.67579  -0.66907
 Alpha  occ. eigenvalues --   -0.65351  -0.65014  -0.63684  -0.63540  -0.61391
 Alpha  occ. eigenvalues --   -0.61090  -0.60235  -0.59917  -0.59448  -0.58695
 Alpha  occ. eigenvalues --   -0.58289  -0.57792  -0.57676  -0.57261  -0.57188
 Alpha  occ. eigenvalues --   -0.56794  -0.56448  -0.56114  -0.55217  -0.54755
 Alpha  occ. eigenvalues --   -0.54343  -0.54208  -0.53981  -0.53709  -0.53648
 Alpha  occ. eigenvalues --   -0.53399  -0.53238  -0.52827  -0.52641  -0.52579
 Alpha  occ. eigenvalues --   -0.52272  -0.51159  -0.49336  -0.49108  -0.48352
 Alpha  occ. eigenvalues --   -0.48245  -0.47798  -0.47545  -0.47160  -0.46948
 Alpha  occ. eigenvalues --   -0.46624  -0.46499  -0.46384  -0.46204  -0.46006
 Alpha  occ. eigenvalues --   -0.45718  -0.45519  -0.45223  -0.44472  -0.44411
 Alpha  occ. eigenvalues --   -0.44251  -0.44059  -0.43656  -0.43284  -0.42255
 Alpha  occ. eigenvalues --   -0.41792  -0.38764  -0.38124  -0.37522  -0.36897
 Alpha  occ. eigenvalues --   -0.36076  -0.35903  -0.35855  -0.35610  -0.35454
 Alpha  occ. eigenvalues --   -0.34848  -0.34780  -0.34752  -0.34608  -0.32483
 Alpha virt. eigenvalues --   -0.18191  -0.16218  -0.12178  -0.11721  -0.11405
 Alpha virt. eigenvalues --   -0.11345  -0.11043  -0.10932  -0.10797  -0.10597
 Alpha virt. eigenvalues --   -0.10432  -0.09264  -0.08173  -0.07673  -0.06981

 Mulliken charges:
               1
     1  P    0.665692
     2  P    0.664503
     3  O   -0.317902
     4  O   -0.329553
     5  O   -0.345109
     6  O   -0.332800
     7  C   -0.574073
     8  C    0.101240
     9  C   -0.166703
    10  C   -0.086284
    11  C   -0.096659
    12  C   -0.105443
    13  C   -0.152080
    14  C    0.140282
    15  C   -0.176182
    16  C   -0.121185
    17  C   -0.098483
    18  C   -0.115341
    19  C   -0.132044
    20  C    0.027579
    21  C   -0.099120
    22  C   -0.130517
    23  C   -0.073325
    24  C   -0.140946
    25  C   -0.067716
    26  C    0.116728
    27  C   -0.158446
    28  C   -0.111584
    29  C   -0.095032
    30  C   -0.094707
    31  C   -0.138412
    32  H    0.235159
    33  H    0.239725
    34  H    0.150916
    35  H    0.138853
    36  H    0.138576
    37  H    0.133017
    38  H    0.163470
    39  H    0.177650
    40  H    0.135393
    41  H    0.139411
    42  H    0.135980
    43  H    0.139702
    44  H    0.135343
    45  H    0.134055
    46  H    0.140425
    47  H    0.135095
    48  H    0.169225
    49  H    0.162452
    50  H    0.136803
    51  H    0.138349
    52  H    0.139037
    53  H    0.135847
    54  Rh  -0.600049
    55  C    0.022469
    56  C   -0.113882
    57  C    0.026165
    58  C   -0.097488
    59  C   -0.352180
    60  H    0.188170
    61  H    0.207440
    62  C   -0.227639
    63  C   -0.354290
    64  H    0.189976
    65  C   -0.241186
    66  H    0.211462
    67  H    0.177520
    68  H    0.168709
    69  H    0.179189
    70  H    0.135301
    71  H    0.169692
    72  H    0.177022
    73  H    0.142524
    74  H    0.180213
 Sum of Mulliken charges =   1.00000

 Dipole moment (field-independent basis, Debye):
    X=              1.5301    Y=             -1.8579    Z=              1.1177  Tot=              2.6537
 Quadrupole moment (field-independent basis, Debye-Ang):
   XX=           -186.2245   YY=           -213.6960   ZZ=           -231.3695
   XY=             -0.1568   XZ=             11.6920   YZ=             -1.1540

 Summary of Natural Population Analysis:

                                       Natural Population
                Natural  -----------------------------------------------
    Atom  No    Charge         Core      Valence    Rydberg      Total
 -----------------------------------------------------------------------
      P    1    1.72169      9.99560     3.19375    0.08895    13.27831
      P    2    1.68114      9.99587     3.23724    0.08576    13.31886
      O    3   -0.74200      1.99978     6.72669    0.01553     8.74200
      O    4   -0.73977      1.99979     6.72426    0.01573     8.73977
      O    5   -0.75091      1.99977     6.73787    0.01327     8.75091
      O    6   -0.73429      1.99978     6.72007    0.01444     8.73429
      C    7   -1.08904      1.99944     5.07387    0.01573     7.08904
      C    8    0.24115      1.99867     3.73775    0.02243     5.75885
      C    9   -0.24513      1.99906     4.23107    0.01500     6.24513
      C   10   -0.18294      1.99921     4.16908    0.01464     6.18294
      C   11   -0.20342      1.99921     4.18945    0.01476     6.20342
      C   12   -0.18632      1.99922     4.17239    0.01471     6.18632
      C   13   -0.25065      1.99905     4.23672    0.01488     6.25065
      C   14    0.25062      1.99866     3.72802    0.02270     5.74938
      C   15   -0.26449      1.99904     4.25071    0.01474     6.26449
      C   16   -0.18258      1.99921     4.16842    0.01494     6.18258
      C   17   -0.20726      1.99921     4.19324    0.01481     6.20726
      C   18   -0.18338      1.99922     4.16934    0.01482     6.18338
      C   19   -0.23984      1.99906     4.22554    0.01524     6.23984
      C   20    0.24350      1.99866     3.73560    0.02223     5.75650
      C   21   -0.24190      1.99905     4.22774    0.01511     6.24190
      C   22   -0.18228      1.99922     4.16850    0.01457     6.18228
      C   23   -0.20161      1.99921     4.18779    0.01461     6.20161
      C   24   -0.18019      1.99922     4.16633    0.01464     6.18019
      C   25   -0.25506      1.99904     4.24105    0.01497     6.25506
      C   26    0.23564      1.99866     3.74249    0.02320     5.76436
      C   27   -0.24989      1.99905     4.23574    0.01510     6.24989
      C   28   -0.18390      1.99922     4.16985    0.01483     6.18390
      C   29   -0.20227      1.99921     4.18837    0.01469     6.20227
      C   30   -0.18426      1.99922     4.17032    0.01471     6.18426
      C   31   -0.24382      1.99905     4.22964    0.01513     6.24382
      H   32    0.28509      0.00000     0.71280    0.00211     0.71491
      H   33    0.28689      0.00000     0.71150    0.00161     0.71311
      H   34    0.23120      0.00000     0.76717    0.00163     0.76880
      H   35    0.22363      0.00000     0.77522    0.00115     0.77637
      H   36    0.22327      0.00000     0.77558    0.00114     0.77673
      H   37    0.21996      0.00000     0.77884    0.00119     0.78004
      H   38    0.22626      0.00000     0.77171    0.00202     0.77374
      H   39    0.22701      0.00000     0.77071    0.00229     0.77299
      H   40    0.22222      0.00000     0.77659    0.00120     0.77778
      H   41    0.22353      0.00000     0.77531    0.00116     0.77647
      H   42    0.22237      0.00000     0.77648    0.00116     0.77763
      H   43    0.22634      0.00000     0.77212    0.00153     0.77366
      H   44    0.22051      0.00000     0.77788    0.00162     0.77949
      H   45    0.22177      0.00000     0.77705    0.00118     0.77823
      H   46    0.22365      0.00000     0.77517    0.00118     0.77635
      H   47    0.22292      0.00000     0.77590    0.00118     0.77708
      H   48    0.23022      0.00000     0.76788    0.00190     0.76978
      H   49    0.22633      0.00000     0.77202    0.00165     0.77367
      H   50    0.22258      0.00000     0.77625    0.00116     0.77742
      H   51    0.22339      0.00000     0.77547    0.00114     0.77661
      H   52    0.22339      0.00000     0.77546    0.00116     0.77661
      H   53    0.23056      0.00000     0.76783    0.00161     0.76944
     Rh   54   -0.54461     35.98481     9.52918    0.03062    45.54461
      C   55   -0.16903      1.99906     4.15007    0.01989     6.16903
      C   56   -0.14392      1.99907     4.12433    0.02052     6.14392
      C   57   -0.15126      1.99909     4.13143    0.02074     6.15126
      C   58   -0.16880      1.99910     4.14869    0.02101     6.16880
      C   59   -0.42494      1.99936     4.41393    0.01165     6.42494
      H   60    0.23928      0.00000     0.75921    0.00151     0.76072
      H   61    0.23570      0.00000     0.76242    0.00188     0.76430
      C   62   -0.42316      1.99935     4.41133    0.01248     6.42316
      C   63   -0.42716      1.99936     4.41546    0.01234     6.42716
      H   64    0.24075      0.00000     0.75692    0.00233     0.75925
      C   65   -0.42351      1.99935     4.41101    0.01315     6.42351
      H   66    0.23759      0.00000     0.76020    0.00221     0.76241
      H   67    0.23333      0.00000     0.76525    0.00142     0.76667
      H   68    0.21629      0.00000     0.78185    0.00186     0.78371
      H   69    0.23842      0.00000     0.75972    0.00186     0.76158
      H   70    0.22127      0.00000     0.77724    0.00149     0.77873
      H   71    0.21321      0.00000     0.78456    0.00223     0.78679
      H   72    0.23319      0.00000     0.76539    0.00142     0.76681
      H   73    0.21872      0.00000     0.77950    0.00178     0.78128
      H   74    0.23900      0.00000     0.75922    0.00178     0.76100
 =======================================================================
   * Total *    1.00000    129.94620   207.20078    0.85302   338.00000

 Normal termination of Gaussian 16 at Tue Jan 21 23:45:16 2025.
