 Gaussian 16, Revision B.01,
 Gaussian 16:  ES64L-G16RevB.01 20-Dec-2017

 ------------------------------------------
 # nmr=giao b3lyp/genecp pop=nbo scfcyc=200
 ------------------------------------------

 ----------
 MB-129_SPE
 ----------
 Symbolic Z-matrix:
 Charge =  1 Multiplicity = 1

                         Standard orientation:
 ---------------------------------------------------------------------
 Center     Atomic      Atomic             Coordinates (Angstroms)
 Number     Number       Type             X           Y           Z
 ---------------------------------------------------------------------
      1         15           0       -1.432120   -0.192090   -0.030359
      2         15           0        1.432230   -0.192090    0.031131
      3          6           0        0.000020   -1.401680    0.001311
      4          1           0       -0.027840   -2.052360   -0.865559
      5          1           0        0.027950   -2.050660    0.869451
      6          6           0       -2.339710   -0.684080   -1.584429
      7          6           0       -2.231020    0.246880   -2.620459
      8          1           0       -1.684340    1.162680   -2.440359
      9          6           0       -2.804130    0.029560   -3.868189
     10          1           0       -2.701570    0.775940   -4.645549
     11          6           0       -3.510080   -1.138690   -4.101909
     12          1           0       -3.973410   -1.321590   -5.062669
     13          6           0       -3.618890   -2.087940   -3.092879
     14          1           0       -4.158210   -3.005240   -3.281839
     15          6           0       -3.036510   -1.886770   -1.842739
     16          6           0       -3.235170   -3.000650   -0.828759
     17          6           0       -2.505610   -0.511280    1.466081
     18          6           0       -1.902630   -1.161920    2.547211
     19          1           0       -0.879730   -1.499240    2.479411
     20          6           0       -2.580080   -1.400220    3.736081
     21          1           0       -2.076270   -1.917290    4.542671
     22          6           0       -3.893480   -0.982590    3.878681
     23          1           0       -4.438230   -1.170271    4.794501
     24          6           0       -4.506720   -0.308021    2.833301
     25          1           0       -5.525620    0.036129    2.944361
     26          6           0       -3.830100   -0.052350    1.640991
     27          6           0       -4.627450    0.689199    0.587961
     28          6           0        2.504900   -0.512610   -1.465589
     29          6           0        1.901460   -1.164480   -2.545719
     30          1           0        0.878730   -1.502090   -2.476959
     31          6           0        2.578270   -1.403690   -3.734789
     32          1           0        2.074140   -1.921710   -4.540559
     33          6           0        3.891440   -0.985790   -3.878589
     34          1           0        4.435690   -1.174140   -4.794559
     35          6           0        4.505140   -0.310090   -2.834189
     36          1           0        5.523880    0.034220   -2.946179
     37          6           0        3.829160   -0.053490   -1.641719
     38          6           0        4.626970    0.689070   -0.589749
     39          6           0        2.340610   -0.682760    1.585171
     40          6           0        2.232310    0.248980    2.620531
     41          1           0        1.685500    1.164610    2.439991
     42          6           0        2.805970    0.032640    3.868191
     43          1           0        2.703700    0.779610    4.645031
     44          6           0        3.512070   -1.135390    4.102501
     45          1           0        3.975810   -1.317550    5.063201
     46          6           0        3.620490   -2.085420    3.094151
     47          1           0        4.159930   -3.002540    3.283591
     48          6           0        3.037570   -1.885220    1.844111
     49          6           0        3.235690   -2.999870    0.830861
     50         45           0        0.000020    1.738080   -0.000439
     51          6           0       -1.456190    3.418690   -0.552089
     52          6           0       -1.431740    3.264770    0.818701
     53          6           0        1.456150    3.419200    0.550551
     54          6           0        1.431690    3.264790   -0.820159
     55          6           0       -0.749600    4.506980   -1.337039
     56          1           0       -2.255470    2.913040   -1.076959
     57          1           0       -2.219970    2.665320    1.258721
     58          6           0       -0.658480    4.096620    1.809851
     59          6           0        0.749330    4.507580    1.335161
     60          1           0        2.255490    2.913790    1.075571
     61          6           0        0.658280    4.096130   -1.811619
     62          1           0        2.219930    2.665180   -1.259939
     63          1           0       -1.354570    4.750630   -2.211839
     64          1           0       -0.702430    5.419480   -0.743589
     65          1           0       -1.242860    4.988280    2.069521
     66          1           0       -0.573550    3.519720    2.733481
     67          1           0        0.702000    5.419880    0.741431
     68          1           0        1.354250    4.751610    2.209891
     69          1           0        0.573440    3.518850   -2.735029
     70          1           0        1.242490    4.987790   -2.071629
     71          9           0       -3.832470    1.457900   -0.203609
     72          9           0       -5.526530    1.522279    1.141421
     73          9           0       -5.306940   -0.133691   -0.231789
     74          9           0       -2.127830   -3.210360   -0.072939
     75          9           0       -4.244760   -2.745651    0.025891
     76          9           0       -3.513669   -4.171540   -1.426229
     77          9           0        2.127620   -3.210610    0.076371
     78          9           0        4.244300   -2.745180   -0.025019
     79          9           0        3.515231   -4.170160    1.429001
     80          9           0        3.832310    1.458380    0.201561
     81          9           0        5.306930   -0.133060    0.230371
     82          9           0        5.525690    1.521750   -1.144369
 ---------------------------------------------------------------------

 SCF Done:  E(RB3LYP) =  -3420.27054475     A.U. after   16 cycles

      1  P    Isotropic =   310.8233   Anisotropy =   141.7623

      2  P    Isotropic =   310.8508   Anisotropy =   141.8004

      3  C    Isotropic =   121.0315   Anisotropy =    58.7748

      4  H    Isotropic =    27.3674   Anisotropy =     6.3733

      5  H    Isotropic =    27.3678   Anisotropy =     6.3743

      6  C    Isotropic =    43.4472   Anisotropy =   177.6682

      7  C    Isotropic =    39.9442   Anisotropy =   177.2558

      8  H    Isotropic =    23.0276   Anisotropy =     8.6730

      9  C    Isotropic =    47.2280   Anisotropy =   191.5739

     10  H    Isotropic =    23.9509   Anisotropy =     6.8444

     11  C    Isotropic =    44.8781   Anisotropy =   198.7703

     12  H    Isotropic =    23.8251   Anisotropy =     3.3572

     13  C    Isotropic =    47.4280   Anisotropy =   191.8066

     14  H    Isotropic =    23.6912   Anisotropy =     9.1637

     15  C    Isotropic =    43.6449   Anisotropy =   158.7905

     16  C    Isotropic =    48.9338   Anisotropy =    19.3287

     17  C    Isotropic =    46.5567   Anisotropy =   173.3944

     18  C    Isotropic =    49.2115   Anisotropy =   189.0732

     19  H    Isotropic =    24.5951   Anisotropy =     8.9030

     20  C    Isotropic =    46.5139   Anisotropy =   193.7906

     21  H    Isotropic =    24.2506   Anisotropy =     7.3621

     22  C    Isotropic =    46.7853   Anisotropy =   196.9237

     23  H    Isotropic =    24.0512   Anisotropy =     3.4551

     24  C    Isotropic =    47.5715   Anisotropy =   192.1065

     25  H    Isotropic =    23.8854   Anisotropy =     9.1677

     26  C    Isotropic =    44.1544   Anisotropy =   159.8269

     27  C    Isotropic =    48.3342   Anisotropy =    17.3951

     28  C    Isotropic =    46.5544   Anisotropy =   173.3936

     29  C    Isotropic =    49.2104   Anisotropy =   189.0737

     30  H    Isotropic =    24.5970   Anisotropy =     8.8956

     31  C    Isotropic =    46.5151   Anisotropy =   193.7954

     32  H    Isotropic =    24.2515   Anisotropy =     7.3640

     33  C    Isotropic =    46.7880   Anisotropy =   196.9309

     34  H    Isotropic =    24.0514   Anisotropy =     3.4564

     35  C    Isotropic =    47.5722   Anisotropy =   192.1151

     36  H    Isotropic =    23.8853   Anisotropy =     9.1678

     37  C    Isotropic =    44.1557   Anisotropy =   159.8372

     38  C    Isotropic =    48.3337   Anisotropy =    17.3949

     39  C    Isotropic =    43.4383   Anisotropy =   177.6864

     40  C    Isotropic =    39.9503   Anisotropy =   177.2582

     41  H    Isotropic =    23.0284   Anisotropy =     8.6749

     42  C    Isotropic =    47.2266   Anisotropy =   191.5718

     43  H    Isotropic =    23.9504   Anisotropy =     6.8454

     44  C    Isotropic =    44.8796   Anisotropy =   198.7701

     45  H    Isotropic =    23.8252   Anisotropy =     3.3581

     46  C    Isotropic =    47.4311   Anisotropy =   191.8063

     47  H    Isotropic =    23.6912   Anisotropy =     9.1648

     48  C    Isotropic =    43.6430   Anisotropy =   158.7907

     49  C    Isotropic =    48.9352   Anisotropy =    19.3351

     50  Rh   Isotropic =  -366.3321   Anisotropy =   405.1063

     51  C    Isotropic =    78.8158   Anisotropy =   124.5707

     52  C    Isotropic =    71.5192   Anisotropy =   125.3257

     53  C    Isotropic =    78.7855   Anisotropy =   124.6129

     54  C    Isotropic =    71.5058   Anisotropy =   125.3467

     55  C    Isotropic =   154.4838   Anisotropy =    24.7692

     56  H    Isotropic =    26.7541   Anisotropy =     4.0834

     57  H    Isotropic =    26.7426   Anisotropy =     5.1101

     58  C    Isotropic =   147.7519   Anisotropy =    29.5170

     59  C    Isotropic =   154.4860   Anisotropy =    24.7704

     60  H    Isotropic =    26.7521   Anisotropy =     4.0802

     61  C    Isotropic =   147.7548   Anisotropy =    29.5088

     62  H    Isotropic =    26.7411   Anisotropy =     5.1095

     63  H    Isotropic =    29.7827   Anisotropy =    11.3325

     64  H    Isotropic =    29.7385   Anisotropy =     9.7523

     65  H    Isotropic =    29.1905   Anisotropy =    12.4954

     66  H    Isotropic =    29.1686   Anisotropy =     6.2846

     67  H    Isotropic =    29.7386   Anisotropy =     9.7522

     68  H    Isotropic =    29.7826   Anisotropy =    11.3326

     69  H    Isotropic =    29.1685   Anisotropy =     6.2851

     70  H    Isotropic =    29.1907   Anisotropy =    12.4961

     71  F    Isotropic =   234.7683   Anisotropy =   118.5884

     72  F    Isotropic =   232.9315   Anisotropy =   142.2119

     73  F    Isotropic =   217.1649   Anisotropy =   129.6383

     74  F    Isotropic =   233.7384   Anisotropy =   124.8262

     75  F    Isotropic =   217.8981   Anisotropy =   128.2550

     76  F    Isotropic =   237.8239   Anisotropy =   135.9300

     77  F    Isotropic =   233.7224   Anisotropy =   124.8550

     78  F    Isotropic =   217.9216   Anisotropy =   128.2290

     79  F    Isotropic =   237.8459   Anisotropy =   135.8990

     80  F    Isotropic =   234.7711   Anisotropy =   118.5690

     81  F    Isotropic =   217.1614   Anisotropy =   129.6363

     82  F    Isotropic =   232.9520   Anisotropy =   142.1963

 The electronic state is 1-A.
 Alpha  occ. eigenvalues --  -77.25661 -77.25660 -24.81894 -24.81893 -24.81337
 Alpha  occ. eigenvalues --  -24.81336 -24.81119 -24.81119 -24.80868 -24.80868
 Alpha  occ. eigenvalues --  -24.80814 -24.80814 -24.80590 -24.80590 -10.52948
 Alpha  occ. eigenvalues --  -10.52948 -10.52733 -10.52733 -10.32443 -10.32443
 Alpha  occ. eigenvalues --  -10.32180 -10.32179 -10.32089 -10.32088 -10.31954
 Alpha  occ. eigenvalues --  -10.31953 -10.31051 -10.29928 -10.29927 -10.29863
 Alpha  occ. eigenvalues --  -10.29863 -10.29792 -10.29792 -10.29600 -10.29599
 Alpha  occ. eigenvalues --  -10.29524 -10.29524 -10.29425 -10.29423 -10.29296
 Alpha  occ. eigenvalues --  -10.29296 -10.29204 -10.29203 -10.29199 -10.29199
 Alpha  occ. eigenvalues --  -10.28964 -10.28964 -10.28107 -10.28107 -10.27838
 Alpha  occ. eigenvalues --  -10.27837  -6.71520  -6.71519  -4.87798  -4.87797
 Alpha  occ. eigenvalues --   -4.87778  -4.87777  -4.87399  -4.87399  -3.32579
 Alpha  occ. eigenvalues --   -2.09459  -2.08813  -2.06012  -1.41719  -1.41719
 Alpha  occ. eigenvalues --   -1.41401  -1.41400  -1.33034  -1.33034  -1.32616
 Alpha  occ. eigenvalues --   -1.32612  -1.32491  -1.32490  -1.32207  -1.32206
 Alpha  occ. eigenvalues --   -0.99130  -0.98992  -0.98648  -0.98629  -0.95160
 Alpha  occ. eigenvalues --   -0.91113  -0.89867  -0.89803  -0.89755  -0.89645
 Alpha  occ. eigenvalues --   -0.89600  -0.88771  -0.88670  -0.87265  -0.87195
 Alpha  occ. eigenvalues --   -0.85351  -0.81428  -0.81264  -0.80766  -0.80741
 Alpha  occ. eigenvalues --   -0.80619  -0.78463  -0.77104  -0.75491  -0.74015
 Alpha  occ. eigenvalues --   -0.73911  -0.73640  -0.73630  -0.73024  -0.72924
 Alpha  occ. eigenvalues --   -0.71707  -0.71139  -0.70307  -0.69453  -0.69376
 Alpha  occ. eigenvalues --   -0.69217  -0.69198  -0.68999  -0.68898  -0.68736
 Alpha  occ. eigenvalues --   -0.68702  -0.67855  -0.67558  -0.66437  -0.65856
 Alpha  occ. eigenvalues --   -0.65304  -0.63060  -0.61241  -0.60976  -0.60838
 Alpha  occ. eigenvalues --   -0.60606  -0.59983  -0.58944  -0.58615  -0.58535
 Alpha  occ. eigenvalues --   -0.58379  -0.58104  -0.57791  -0.57679  -0.57450
 Alpha  occ. eigenvalues --   -0.57291  -0.57121  -0.57091  -0.56832  -0.56763
 Alpha  occ. eigenvalues --   -0.56581  -0.56546  -0.56109  -0.55900  -0.55830
 Alpha  occ. eigenvalues --   -0.55578  -0.55305  -0.54301  -0.54196  -0.54083
 Alpha  occ. eigenvalues --   -0.53925  -0.53350  -0.53218  -0.53164  -0.52947
 Alpha  occ. eigenvalues --   -0.52818  -0.52508  -0.52422  -0.52048  -0.51596
 Alpha  occ. eigenvalues --   -0.51338  -0.51318  -0.51238  -0.51211  -0.51017
 Alpha  occ. eigenvalues --   -0.50935  -0.50855  -0.50768  -0.49620  -0.49456
 Alpha  occ. eigenvalues --   -0.49167  -0.49078  -0.48822  -0.48605  -0.48218
 Alpha  occ. eigenvalues --   -0.47771  -0.47256  -0.46951  -0.46927  -0.46798
 Alpha  occ. eigenvalues --   -0.46759  -0.46664  -0.46004  -0.45447  -0.44370
 Alpha  occ. eigenvalues --   -0.44096  -0.43731  -0.43324  -0.42526  -0.39290
 Alpha  occ. eigenvalues --   -0.38824  -0.38372  -0.38064  -0.38003  -0.37888
 Alpha  occ. eigenvalues --   -0.37733  -0.37595  -0.36959  -0.36753  -0.35989
 Alpha  occ. eigenvalues --   -0.35283  -0.34653  -0.31802
 Alpha virt. eigenvalues --   -0.17879  -0.16607  -0.15673  -0.15455  -0.14969
 Alpha virt. eigenvalues --   -0.13991  -0.13659  -0.13166  -0.12874  -0.12457
 Alpha virt. eigenvalues --   -0.09968  -0.08018  -0.07631  -0.07609  -0.06847

 Mulliken charges:
               1
     1  P    0.340683
     2  P    0.340602
     3  C   -0.561843
     4  H    0.233208
     5  H    0.233101
     6  C   -0.255088
     7  C    0.004636
     8  H    0.172079
     9  C   -0.116177
    10  H    0.133404
    11  C   -0.063839
    12  H    0.146710
    13  C   -0.058960
    14  H    0.155747
    15  C   -0.083260
    16  C    0.459718
    17  C   -0.066995
    18  C   -0.058126
    19  H    0.136176
    20  C   -0.095471
    21  H    0.137200
    22  C   -0.068157
    23  H    0.145586
    24  C   -0.072452
    25  H    0.150150
    26  C   -0.103964
    27  C    0.455765
    28  C   -0.066941
    29  C   -0.058038
    30  H    0.136200
    31  C   -0.095523
    32  H    0.137199
    33  C   -0.068161
    34  H    0.145580
    35  C   -0.072457
    36  H    0.150153
    37  C   -0.104027
    38  C    0.455756
    39  C   -0.254914
    40  C    0.004605
    41  H    0.172062
    42  C   -0.116156
    43  H    0.133401
    44  C   -0.063874
    45  H    0.146713
    46  C   -0.058912
    47  H    0.155756
    48  C   -0.083438
    49  C    0.459747
    50  Rh  -0.554370
    51  C   -0.046258
    52  C   -0.073614
    53  C   -0.046286
    54  C   -0.073526
    55  C   -0.355151
    56  H    0.211370
    57  H    0.195465
    58  C   -0.224329
    59  C   -0.355139
    60  H    0.211314
    61  C   -0.224297
    62  H    0.195437
    63  H    0.170816
    64  H    0.171532
    65  H    0.176763
    66  H    0.131878
    67  H    0.171540
    68  H    0.170810
    69  H    0.131884
    70  H    0.176768
    71  F   -0.178195
    72  F   -0.150903
    73  F   -0.137779
    74  F   -0.173082
    75  F   -0.142047
    76  F   -0.146881
    77  F   -0.173093
    78  F   -0.142039
    79  F   -0.146873
    80  F   -0.178203
    81  F   -0.137776
    82  F   -0.150899
 Sum of Mulliken charges =   1.00000

 Dipole moment (field-independent basis, Debye):
    X=              0.0001    Y=              3.5596    Z=              0.0009  Tot=              3.5596
 Quadrupole moment (field-independent basis, Debye-Ang):
   XX=           -290.3708   YY=           -294.9136   ZZ=           -242.1883
   XY=              0.0008   XZ=              0.4115   YZ=              0.0253

 Summary of Natural Population Analysis:

                                       Natural Population
                Natural  -----------------------------------------------
    Atom  No    Charge         Core      Valence    Rydberg      Total
 -----------------------------------------------------------------------
      P    1    1.08384      9.99660     3.86832    0.05124    13.91616
      P    2    1.08374      9.99660     3.86842    0.05124    13.91626
      C    3   -0.97281      1.99938     4.95552    0.01790     6.97281
      H    4    0.27306      0.00000     0.72512    0.00182     0.72694
      H    5    0.27304      0.00000     0.72514    0.00182     0.72696
      C    6   -0.30187      1.99891     4.27741    0.02555     6.30187
      C    7   -0.18002      1.99912     4.16524    0.01567     6.18002
      H    8    0.22550      0.00000     0.77240    0.00209     0.77450
      C    9   -0.17818      1.99918     4.16446    0.01453     6.17818
      H   10    0.22554      0.00000     0.77329    0.00117     0.77446
      C   11   -0.17059      1.99920     4.15671    0.01468     6.17059
      H   12    0.22946      0.00000     0.76942    0.00112     0.77054
      C   13   -0.16160      1.99914     4.14823    0.01424     6.16160
      H   14    0.24208      0.00000     0.75648    0.00144     0.75792
      C   15   -0.13193      1.99887     4.11236    0.02070     6.13193
      C   16    0.93576      1.99917     3.01373    0.05135     5.06424
      C   17   -0.28969      1.99890     4.26647    0.02432     6.28969
      C   18   -0.18850      1.99911     4.17403    0.01536     6.18850
      H   19    0.20998      0.00000     0.78784    0.00218     0.79002
      C   20   -0.16945      1.99918     4.15566    0.01461     6.16945
      H   21    0.22619      0.00000     0.77265    0.00117     0.77381
      C   22   -0.17555      1.99919     4.16161    0.01475     6.17555
      H   23    0.22980      0.00000     0.76908    0.00112     0.77020
      C   24   -0.15757      1.99913     4.14425    0.01419     6.15757
      H   25    0.23995      0.00000     0.75862    0.00143     0.76005
      C   26   -0.13772      1.99887     4.11927    0.01958     6.13772
      C   27    0.93716      1.99914     3.01258    0.05112     5.06284
      C   28   -0.28969      1.99890     4.26647    0.02432     6.28969
      C   29   -0.18850      1.99911     4.17403    0.01536     6.18850
      H   30    0.20999      0.00000     0.78783    0.00218     0.79001
      C   31   -0.16945      1.99918     4.15566    0.01460     6.16945
      H   32    0.22618      0.00000     0.77265    0.00117     0.77382
      C   33   -0.17555      1.99919     4.16162    0.01475     6.17555
      H   34    0.22980      0.00000     0.76908    0.00112     0.77020
      C   35   -0.15757      1.99913     4.14424    0.01419     6.15757
      H   36    0.23995      0.00000     0.75862    0.00143     0.76005
      C   37   -0.13773      1.99887     4.11928    0.01958     6.13773
      C   38    0.93716      1.99914     3.01258    0.05112     5.06284
      C   39   -0.30184      1.99891     4.27739    0.02555     6.30184
      C   40   -0.18004      1.99912     4.16525    0.01567     6.18004
      H   41    0.22549      0.00000     0.77241    0.00209     0.77451
      C   42   -0.17818      1.99918     4.16447    0.01453     6.17818
      H   43    0.22554      0.00000     0.77329    0.00117     0.77446
      C   44   -0.17059      1.99920     4.15671    0.01468     6.17059
      H   45    0.22946      0.00000     0.76942    0.00112     0.77054
      C   46   -0.16160      1.99914     4.14823    0.01424     6.16160
      H   47    0.24209      0.00000     0.75648    0.00144     0.75791
      C   48   -0.13193      1.99887     4.11236    0.02070     6.13193
      C   49    0.93576      1.99917     3.01372    0.05135     5.06424
     Rh   50   -0.34953     35.98581     9.33679    0.02693    45.34953
      C   51   -0.17448      1.99907     4.15604    0.01937     6.17448
      C   52   -0.14735      1.99908     4.12874    0.01953     6.14735
      C   53   -0.17441      1.99907     4.15597    0.01937     6.17441
      C   54   -0.14739      1.99908     4.12877    0.01953     6.14739
      C   55   -0.42514      1.99936     4.41401    0.01178     6.42514
      H   56    0.23227      0.00000     0.76548    0.00225     0.76773
      H   57    0.23076      0.00000     0.76714    0.00210     0.76924
      C   58   -0.41877      1.99935     4.40692    0.01250     6.41877
      C   59   -0.42516      1.99936     4.41402    0.01178     6.42516
      H   60    0.23226      0.00000     0.76549    0.00225     0.76774
      C   61   -0.41877      1.99935     4.40692    0.01250     6.41877
      H   62    0.23078      0.00000     0.76712    0.00210     0.76922
      H   63    0.22893      0.00000     0.76961    0.00146     0.77107
      H   64    0.21674      0.00000     0.78130    0.00195     0.78326
      H   65    0.23709      0.00000     0.76105    0.00186     0.76291
      H   66    0.21633      0.00000     0.78209    0.00158     0.78367
      H   67    0.21675      0.00000     0.78130    0.00195     0.78325
      H   68    0.22892      0.00000     0.76962    0.00146     0.77108
      H   69    0.21633      0.00000     0.78209    0.00158     0.78367
      H   70    0.23709      0.00000     0.76105    0.00186     0.76291
      F   71   -0.32329      1.99993     7.31600    0.00737     9.32329
      F   72   -0.30139      1.99992     7.29456    0.00690     9.30139
      F   73   -0.29980      1.99992     7.29285    0.00704     9.29980
      F   74   -0.32309      1.99993     7.31549    0.00767     9.32309
      F   75   -0.30265      1.99992     7.29568    0.00704     9.30265
      F   76   -0.30060      1.99992     7.29371    0.00696     9.30060
      F   77   -0.32311      1.99993     7.31550    0.00767     9.32311
      F   78   -0.30264      1.99992     7.29568    0.00704     9.30264
      F   79   -0.30059      1.99992     7.29370    0.00696     9.30059
      F   80   -0.32330      1.99993     7.31600    0.00737     9.32330
      F   81   -0.29981      1.99992     7.29285    0.00704     9.29981
      F   82   -0.30138      1.99992     7.29456    0.00690     9.30138
 =======================================================================
   * Total *    1.00000    153.94540   279.02420    1.03040   434.00000

 Normal termination of Gaussian 16 at Wed Jan 22 01:38:14 2025.
