 Gaussian 16, Revision B.01,
 Gaussian 16:  ES64L-G16RevB.01 20-Dec-2017

 ------------------------------------------
 # nmr=giao b3lyp/genecp pop=nbo scfcyc=200
 ------------------------------------------

 ----------
 MB-117_SPE
 ----------
 Symbolic Z-matrix:
 Charge =  1 Multiplicity = 1

                         Standard orientation:
 ---------------------------------------------------------------------
 Center     Atomic      Atomic             Coordinates (Angstroms)
 Number     Number       Type             X           Y           Z
 ---------------------------------------------------------------------
      1         15           0        1.388530   -0.028260   -0.396290
      2         15           0       -1.388790   -0.010648   -0.400410
      3          6           0        0.000850   -0.010799   -1.660050
      4          6           0        2.028692    1.697119   -0.360560
      5          6           0        2.102212    2.360679    0.863530
      6          6           0        2.572723    3.666219    0.886780
      7          6           0        2.967064    4.336598   -0.256920
      8          6           0        2.876873    3.646908   -1.457070
      9          6           0        2.416592    2.342999   -1.538410
     10          6           0        2.756459   -1.062441   -1.078000
     11          6           0        2.461388   -2.365511   -1.490850
     12          6           0        3.492407   -3.170222   -1.945350
     13          6           0        4.810308   -2.744313   -1.991550
     14          6           0        5.067279   -1.455763   -1.557690
     15          6           0        4.072780   -0.601863   -1.100100
     16          6           0       -1.984748    1.729303   -0.332090
     17          6           0       -2.379718    2.398223   -1.494390
     18          6           0       -2.807267    3.711273   -1.387860
     19          6           0       -2.858406    4.387293   -0.177460
     20          6           0       -2.459537    3.693153    0.950360
     21          6           0       -2.020858    2.377173    0.902050
     22          6           0       -2.789721   -0.985887   -1.101200
     23          6           0       -4.103030   -0.532136   -0.972180
     24          6           0       -5.133181   -1.337985   -1.436540
     25          6           0       -4.915442   -2.574615   -2.018660
     26          6           0       -3.599732   -2.996396   -2.120140
     27          6           0       -2.532622   -2.237357   -1.668490
     28          1           0       -0.000161   -0.949269   -2.213700
     29          1           0        0.006331    0.818301   -2.366260
     30          1           0        1.792812    1.890669    1.786050
     31          1           0        2.382812    1.859859   -2.505880
     32          1           0        5.601067   -3.389774   -2.347710
     33          1           0       -2.377128    1.925563   -2.467630
     34          1           0       -1.708848    1.884892    1.812450
     35          1           0       -5.733693   -3.182864   -2.378160
     36          1           0        3.329955    5.354468   -0.218860
     37          1           0        1.459778   -2.772850   -1.459090
     38          1           0        4.344380    0.394457   -0.782970
     39          1           0       -3.196905    5.412624   -0.119860
     40          1           0       -4.344920    0.426705   -0.536630
     41          1           0       -1.534172   -2.640658   -1.767470
     42         45           0       -0.006791   -0.807059    1.335840
     43          6           0       -1.436251   -1.174938    3.080910
     44          6           0       -1.485572   -2.261238    2.232930
     45          6           0        1.432388   -2.223010    2.414260
     46          6           0        1.483879   -0.988210    3.025010
     47          6           0       -0.685691   -1.113179    4.398000
     48          1           0       -2.199510   -0.415997    2.942100
     49          1           0       -2.297932   -2.290577    1.514550
     50          6           0       -0.749243   -3.568018    2.390760
     51          6           0        0.687557   -3.436610    2.937650
     52          1           0        2.183168   -2.426691    1.658800
     53          6           0        0.751360   -0.561170    4.272450
     54          1           0        2.299940   -0.333131    2.735170
     55          1           0       -1.241570   -0.470358    5.082020
     56          1           0       -0.674722   -2.100649    4.858330
     57          1           0       -1.331673   -4.238788    3.034510
     58          1           0       -0.718183   -4.051848    1.412320
     59          1           0        0.680427   -3.417110    4.026980
     60          1           0        1.246526   -4.330550    2.657120
     61          1           0        0.716961    0.530650    4.282700
     62          1           0        1.335149   -0.845270    5.156530
     63          9           0       -6.393111   -0.896124   -1.318130
     64          9           0       -3.347193   -4.192386   -2.673680
     65          9           0        3.203636   -4.417202   -2.349140
     66          9           0        6.330849   -1.009024   -1.582340
     67          9           0        2.640574    4.303069    2.065670
     68          9           0       -2.492066    4.315903    2.138420
     69          9           0       -3.187846    4.357794   -2.498730
     70          9           0        3.250804    4.269948   -2.583450
 ---------------------------------------------------------------------

 SCF Done:  E(RB3LYP) =  -2865.80210246     A.U. after   16 cycles

      1  P    Isotropic =   310.9992   Anisotropy =   101.1844

      2  P    Isotropic =   308.9062   Anisotropy =    97.2321

      3  C    Isotropic =   125.5813   Anisotropy =    45.3293

      4  C    Isotropic =    45.0729   Anisotropy =   176.4004

      5  C    Isotropic =    59.5073   Anisotropy =   143.8865

      6  C    Isotropic =    10.3100   Anisotropy =   110.9906

      7  C    Isotropic =    68.9253   Anisotropy =   135.5197

      8  C    Isotropic =     9.4046   Anisotropy =   111.9654

      9  C    Isotropic =    64.8674   Anisotropy =   150.2611

     10  C    Isotropic =    41.3599   Anisotropy =   168.2615

     11  C    Isotropic =    67.3467   Anisotropy =   144.4212

     12  C    Isotropic =     9.2779   Anisotropy =   109.1333

     13  C    Isotropic =    70.5975   Anisotropy =   131.2101

     14  C    Isotropic =     9.9199   Anisotropy =   108.9782

     15  C    Isotropic =    64.1889   Anisotropy =   150.4792

     16  C    Isotropic =    44.8674   Anisotropy =   177.4276

     17  C    Isotropic =    65.1321   Anisotropy =   150.0447

     18  C    Isotropic =     9.3403   Anisotropy =   111.9499

     19  C    Isotropic =    68.9045   Anisotropy =   135.4732

     20  C    Isotropic =    10.5296   Anisotropy =   110.6442

     21  C    Isotropic =    58.8763   Anisotropy =   143.5713

     22  C    Isotropic =    41.5372   Anisotropy =   169.4203

     23  C    Isotropic =    64.4897   Anisotropy =   150.2514

     24  C    Isotropic =     9.6306   Anisotropy =   109.4454

     25  C    Isotropic =    70.5417   Anisotropy =   131.0738

     26  C    Isotropic =     9.3220   Anisotropy =   109.2632

     27  C    Isotropic =    67.8994   Anisotropy =   144.6788

     28  H    Isotropic =    27.6174   Anisotropy =     2.5408

     29  H    Isotropic =    28.2695   Anisotropy =     8.2629

     30  H    Isotropic =    24.4733   Anisotropy =     9.0465

     31  H    Isotropic =    25.2522   Anisotropy =     9.8631

     32  H    Isotropic =    24.7059   Anisotropy =     3.3424

     33  H    Isotropic =    25.3127   Anisotropy =     9.9262

     34  H    Isotropic =    24.4109   Anisotropy =     9.2918

     35  H    Isotropic =    24.6972   Anisotropy =     3.2567

     36  H    Isotropic =    24.7371   Anisotropy =     3.1195

     37  H    Isotropic =    24.4574   Anisotropy =     9.9228

     38  H    Isotropic =    25.7663   Anisotropy =    12.5030

     39  H    Isotropic =    24.7516   Anisotropy =     3.1018

     40  H    Isotropic =    25.8400   Anisotropy =    12.3603

     41  H    Isotropic =    24.5243   Anisotropy =     9.9276

     42  Rh   Isotropic =  -313.8776   Anisotropy =   348.7355

     43  C    Isotropic =    77.6663   Anisotropy =   122.5445

     44  C    Isotropic =    69.2883   Anisotropy =   127.6219

     45  C    Isotropic =    70.6138   Anisotropy =   133.1259

     46  C    Isotropic =    76.4016   Anisotropy =   116.4274

     47  C    Isotropic =   154.4101   Anisotropy =    25.1670

     48  H    Isotropic =    26.9517   Anisotropy =     6.8216

     49  H    Isotropic =    26.9647   Anisotropy =     3.5883

     50  C    Isotropic =   147.6323   Anisotropy =    29.2510

     51  C    Isotropic =   154.0003   Anisotropy =    25.5294

     52  H    Isotropic =    27.3027   Anisotropy =     5.1810

     53  C    Isotropic =   148.1844   Anisotropy =    29.3998

     54  H    Isotropic =    26.4573   Anisotropy =     4.4704

     55  H    Isotropic =    29.7220   Anisotropy =    11.8362

     56  H    Isotropic =    29.7429   Anisotropy =     9.4594

     57  H    Isotropic =    29.2127   Anisotropy =    12.2655

     58  H    Isotropic =    29.1094   Anisotropy =     7.2497

     59  H    Isotropic =    29.7577   Anisotropy =     9.4738

     60  H    Isotropic =    29.9043   Anisotropy =    10.9814

     61  H    Isotropic =    28.9061   Anisotropy =     8.3492

     62  H    Isotropic =    28.9792   Anisotropy =    12.6817

     63  F    Isotropic =   272.1327   Anisotropy =   113.2088

     64  F    Isotropic =   274.6620   Anisotropy =   107.1131

     65  F    Isotropic =   275.3460   Anisotropy =   106.8259

     66  F    Isotropic =   272.4073   Anisotropy =   112.7269

     67  F    Isotropic =   275.3586   Anisotropy =   109.6552

     68  F    Isotropic =   275.9878   Anisotropy =   109.2780

     69  F    Isotropic =   271.6610   Anisotropy =   115.0356

     70  F    Isotropic =   271.6553   Anisotropy =   115.0503

 The electronic state is 1-A.
 Alpha  occ. eigenvalues --  -77.26803 -77.26796 -24.80509 -24.80474 -24.80410
 Alpha  occ. eigenvalues --  -24.80374 -24.80367 -24.80366 -24.80127 -24.80099
 Alpha  occ. eigenvalues --  -10.38723 -10.38683 -10.38677 -10.38641 -10.38567
 Alpha  occ. eigenvalues --  -10.38553 -10.38439 -10.38412 -10.33218 -10.33193
 Alpha  occ. eigenvalues --  -10.33176 -10.33120 -10.33018 -10.31173 -10.31113
 Alpha  occ. eigenvalues --  -10.31113 -10.31062 -10.31057 -10.31044 -10.31012
 Alpha  occ. eigenvalues --  -10.31005 -10.30967 -10.30874 -10.30726 -10.30706
 Alpha  occ. eigenvalues --  -10.30696 -10.30660 -10.30333 -10.30326 -10.29267
 Alpha  occ. eigenvalues --  -10.29243 -10.28983 -10.28965  -6.72757  -6.72751
 Alpha  occ. eigenvalues --   -4.89038  -4.89033  -4.88993  -4.88988  -4.88647
 Alpha  occ. eigenvalues --   -4.88639  -3.34040  -2.10982  -2.10264  -2.07462
 Alpha  occ. eigenvalues --   -1.34324  -1.34283  -1.34246  -1.34201  -1.34178
 Alpha  occ. eigenvalues --   -1.34175  -1.33971  -1.33944  -1.00428  -1.00253
 Alpha  occ. eigenvalues --   -0.99703  -0.99684  -0.96354  -0.92823  -0.91172
 Alpha  occ. eigenvalues --   -0.90798  -0.89795  -0.88878  -0.88805  -0.88185
 Alpha  occ. eigenvalues --   -0.88122  -0.88016  -0.87880  -0.87132  -0.82212
 Alpha  occ. eigenvalues --   -0.80121  -0.79659  -0.77692  -0.75561  -0.75500
 Alpha  occ. eigenvalues --   -0.75107  -0.75011  -0.74669  -0.74594  -0.72373
 Alpha  occ. eigenvalues --   -0.71507  -0.70887  -0.67889  -0.67681  -0.67651
 Alpha  occ. eigenvalues --   -0.66056  -0.64948  -0.64533  -0.64496  -0.64297
 Alpha  occ. eigenvalues --   -0.64220  -0.64195  -0.63165  -0.63133  -0.63021
 Alpha  occ. eigenvalues --   -0.62888  -0.61941  -0.61721  -0.61628  -0.61388
 Alpha  occ. eigenvalues --   -0.61345  -0.59371  -0.59185  -0.59139  -0.59033
 Alpha  occ. eigenvalues --   -0.58813  -0.58372  -0.58059  -0.57675  -0.57627
 Alpha  occ. eigenvalues --   -0.57591  -0.57451  -0.57438  -0.55382  -0.55369
 Alpha  occ. eigenvalues --   -0.55073  -0.55001  -0.54797  -0.54493  -0.54459
 Alpha  occ. eigenvalues --   -0.54389  -0.53507  -0.52750  -0.52678  -0.52550
 Alpha  occ. eigenvalues --   -0.52457  -0.51798  -0.50776  -0.50258  -0.49734
 Alpha  occ. eigenvalues --   -0.49598  -0.49312  -0.49292  -0.49110  -0.49073
 Alpha  occ. eigenvalues --   -0.48603  -0.48280  -0.48265  -0.48045  -0.47695
 Alpha  occ. eigenvalues --   -0.47241  -0.47022  -0.45898  -0.45330  -0.45235
 Alpha  occ. eigenvalues --   -0.44844  -0.43753  -0.40286  -0.39749  -0.39276
 Alpha  occ. eigenvalues --   -0.38547  -0.38394  -0.37715  -0.37673  -0.37285
 Alpha  occ. eigenvalues --   -0.37180  -0.37150  -0.36929  -0.36876  -0.36236
 Alpha  occ. eigenvalues --   -0.33260
 Alpha virt. eigenvalues --   -0.18890  -0.17695  -0.16808  -0.16084  -0.15918
 Alpha virt. eigenvalues --   -0.13841  -0.13496  -0.13219  -0.12428  -0.12185
 Alpha virt. eigenvalues --   -0.11331  -0.09353  -0.09065  -0.08898  -0.07821

 Mulliken charges:
               1
     1  P    0.292415
     2  P    0.327238
     3  C   -0.596333
     4  C   -0.114781
     5  C   -0.170853
     6  C    0.310016
     7  C   -0.267783
     8  C    0.329244
     9  C   -0.220084
    10  C   -0.063649
    11  C   -0.209662
    12  C    0.303882
    13  C   -0.261049
    14  C    0.301746
    15  C   -0.173994
    16  C   -0.144176
    17  C   -0.212195
    18  C    0.325618
    19  C   -0.267439
    20  C    0.314334
    21  C   -0.163124
    22  C   -0.065278
    23  C   -0.174815
    24  C    0.306668
    25  C   -0.265516
    26  C    0.301216
    27  C   -0.211170
    28  H    0.219650
    29  H    0.221972
    30  H    0.171132
    31  H    0.174004
    32  H    0.183152
    33  H    0.171836
    34  H    0.163008
    35  H    0.183221
    36  H    0.183965
    37  H    0.168580
    38  H    0.182618
    39  H    0.183981
    40  H    0.181866
    41  H    0.156622
    42  Rh  -0.495413
    43  C    0.000272
    44  C   -0.107302
    45  C   -0.017654
    46  C   -0.086281
    47  C   -0.350398
    48  H    0.181667
    49  H    0.214512
    50  C   -0.234254
    51  C   -0.358435
    52  H    0.205887
    53  C   -0.231929
    54  H    0.187558
    55  H    0.178191
    56  H    0.172094
    57  H    0.181796
    58  H    0.137482
    59  H    0.172614
    60  H    0.176692
    61  H    0.138957
    62  H    0.182609
    63  F   -0.164145
    64  F   -0.167328
    65  F   -0.168028
    66  F   -0.164100
    67  F   -0.166745
    68  F   -0.167049
    69  F   -0.163765
    70  F   -0.163588
 Sum of Mulliken charges =   1.00000

 Dipole moment (field-independent basis, Debye):
    X=              0.0099    Y=             -2.2221    Z=              2.5742  Tot=              3.4007
 Quadrupole moment (field-independent basis, Debye-Ang):
   XX=           -248.5396   YY=           -247.7333   ZZ=           -250.8864
   XY=              0.1649   XZ=              0.2294   YZ=             -9.3307

 Summary of Natural Population Analysis:

                                       Natural Population
                Natural  -----------------------------------------------
    Atom  No    Charge         Core      Valence    Rydberg      Total
 -----------------------------------------------------------------------
      P    1    1.11748      9.99647     3.83451    0.05154    13.88252
      P    2    1.11848      9.99646     3.83371    0.05135    13.88152
      C    3   -0.96345      1.99942     4.94542    0.01861     6.96345
      C    4   -0.31169      1.99904     4.29000    0.02264     6.31169
      C    5   -0.26160      1.99895     4.24707    0.01558     6.26160
      C    6    0.39997      1.99847     3.57711    0.02445     5.60003
      C    7   -0.30125      1.99891     4.28902    0.01331     6.30125
      C    8    0.40373      1.99847     3.57326    0.02453     5.59627
      C    9   -0.27749      1.99895     4.26243    0.01611     6.27749
      C   10   -0.30116      1.99902     4.28032    0.02182     6.30116
      C   11   -0.28356      1.99894     4.26947    0.01515     6.28356
      C   12    0.40384      1.99847     3.57313    0.02457     5.59616
      C   13   -0.30734      1.99891     4.29491    0.01352     6.30734
      C   14    0.40658      1.99848     3.57024    0.02470     5.59342
      C   15   -0.27472      1.99895     4.26054    0.01523     6.27472
      C   16   -0.31181      1.99904     4.28998    0.02280     6.31181
      C   17   -0.27578      1.99895     4.26067    0.01616     6.27578
      C   18    0.40384      1.99848     3.57314    0.02454     5.59616
      C   19   -0.30140      1.99891     4.28915    0.01333     6.30140
      C   20    0.39948      1.99847     3.57761    0.02444     5.60052
      C   21   -0.26174      1.99895     4.24726    0.01554     6.26174
      C   22   -0.30165      1.99903     4.28094    0.02169     6.30165
      C   23   -0.27625      1.99895     4.26210    0.01520     6.27625
      C   24    0.40689      1.99848     3.56994    0.02469     5.59311
      C   25   -0.30778      1.99891     4.29534    0.01353     6.30778
      C   26    0.40458      1.99847     3.57235    0.02460     5.59542
      C   27   -0.28335      1.99894     4.26911    0.01529     6.28335
      H   28    0.26232      0.00000     0.73606    0.00162     0.73768
      H   29    0.26125      0.00000     0.73680    0.00195     0.73875
      H   30    0.23804      0.00000     0.75974    0.00222     0.76196
      H   31    0.23728      0.00000     0.76056    0.00216     0.76272
      H   32    0.25952      0.00000     0.73905    0.00142     0.74048
      H   33    0.23734      0.00000     0.76053    0.00213     0.76266
      H   34    0.23987      0.00000     0.75807    0.00206     0.76013
      H   35    0.25965      0.00000     0.73893    0.00142     0.74035
      H   36    0.25981      0.00000     0.73878    0.00141     0.74019
      H   37    0.22836      0.00000     0.76960    0.00204     0.77164
      H   38    0.24371      0.00000     0.75442    0.00187     0.75629
      H   39    0.25965      0.00000     0.73894    0.00141     0.74035
      H   40    0.24339      0.00000     0.75479    0.00182     0.75661
      H   41    0.22635      0.00000     0.77152    0.00213     0.77365
     Rh   42   -0.41682     35.98577     9.40048    0.03057    45.41682
      C   43   -0.17704      1.99907     4.15820    0.01977     6.17704
      C   44   -0.14336      1.99908     4.12411    0.02016     6.14336
      C   45   -0.15063      1.99907     4.13196    0.01961     6.15063
      C   46   -0.16721      1.99908     4.14798    0.02015     6.16721
      C   47   -0.42474      1.99936     4.41369    0.01170     6.42474
      H   48    0.22660      0.00000     0.77140    0.00200     0.77340
      H   49    0.23038      0.00000     0.76753    0.00209     0.76962
      C   50   -0.42044      1.99935     4.40834    0.01275     6.42044
      C   51   -0.42669      1.99936     4.41544    0.01189     6.42669
      H   52    0.22993      0.00000     0.76794    0.00212     0.77007
      C   53   -0.42183      1.99935     4.41009    0.01239     6.42183
      H   54    0.22607      0.00000     0.77194    0.00199     0.77393
      H   55    0.23350      0.00000     0.76502    0.00148     0.76650
      H   56    0.21825      0.00000     0.77982    0.00194     0.78175
      H   57    0.23949      0.00000     0.75866    0.00184     0.76051
      H   58    0.21828      0.00000     0.78012    0.00160     0.78172
      H   59    0.21819      0.00000     0.77984    0.00196     0.78181
      H   60    0.23334      0.00000     0.76523    0.00143     0.76666
      H   61    0.22052      0.00000     0.77802    0.00146     0.77948
      H   62    0.24025      0.00000     0.75790    0.00186     0.75975
      F   63   -0.28675      1.99994     7.27965    0.00717     9.28675
      F   64   -0.28967      1.99994     7.28264    0.00709     9.28967
      F   65   -0.29026      1.99994     7.28324    0.00708     9.29026
      F   66   -0.28680      1.99994     7.27970    0.00716     9.28680
      F   67   -0.28914      1.99994     7.28209    0.00711     9.28914
      F   68   -0.28939      1.99994     7.28235    0.00711     9.28939
      F   69   -0.28677      1.99994     7.27968    0.00715     9.28677
      F   70   -0.28666      1.99994     7.27957    0.00715     9.28666
 =======================================================================
   * Total *    1.00000    137.94245   231.20918    0.84838   370.00000

 Normal termination of Gaussian 16 at Tue Jan 21 23:42:05 2025.
