 Gaussian 16, Revision B.01,
 Gaussian 16:  ES64L-G16RevB.01 20-Dec-2017

 ------------------------------------------
 # nmr=giao b3lyp/genecp pop=nbo scfcyc=200
 ------------------------------------------

 ----------
 MB-139_SPE
 ----------
 Symbolic Z-matrix:
 Charge =  1 Multiplicity = 1

                         Standard orientation:
 ---------------------------------------------------------------------
 Center     Atomic      Atomic             Coordinates (Angstroms)
 Number     Number       Type             X           Y           Z
 ---------------------------------------------------------------------
      1         15           0       -1.382320   -0.503180    0.089530
      2          6           0       -1.965050    1.251140   -0.039690
      3          6           0       -2.087890    2.069270    1.077690
      4          9           0       -1.770790    1.613280    2.293850
      5          6           0       -2.543640    3.383140    0.983180
      6          9           0       -2.619720    4.080730    2.110260
      7          6           0       -2.902180    3.924120   -0.248790
      8          6           0       -2.789250    3.104930   -1.374880
      9          9           0       -3.118920    3.564600   -2.576680
     10          6           0       -2.336080    1.801170   -1.266610
     11          9           0       -2.259630    1.056050   -2.378240
     12          6           0       -2.876980   -1.422130   -0.513740
     13          6           0       -4.003440   -1.397800    0.302990
     14          9           0       -3.961880   -0.694730    1.449010
     15          6           0       -5.180540   -2.062300   -0.015990
     16          9           0       -6.190950   -1.963200    0.839270
     17          6           0       -5.269170   -2.802510   -1.193930
     18          6           0       -4.145820   -2.834950   -2.020210
     19          9           0       -4.171700   -3.519210   -3.157980
     20          6           0       -2.978140   -2.159660   -1.690600
     21          9           0       -1.953600   -2.235880   -2.547520
     22          6           0        0.001950   -0.658920   -1.155950
     23          1           0       -0.006410    0.005410   -2.015390
     24          1           0        0.015430   -1.685600   -1.509540
     25         15           0        1.381290   -0.457810    0.090870
     26          6           0        2.883540   -1.391080   -0.472000
     27          6           0        2.987590   -2.193480   -1.605400
     28          9           0        1.962000   -2.326790   -2.454450
     29          6           0        4.159240   -2.877590   -1.900380
     30          9           0        4.186810   -3.624310   -2.998260
     31          6           0        5.284770   -2.791050   -1.081120
     32          6           0        5.193340   -1.986730    0.053620
     33          9           0        6.205100   -1.832430    0.899220
     34          6           0        4.012110   -1.314060    0.338420
     35          9           0        3.969910   -0.548860    1.444340
     36          6           0        1.950510    1.294960   -0.117930
     37          6           0        2.364280    1.772450   -1.361480
     38          9           0        2.337650    0.959280   -2.426610
     39          6           0        2.807080    3.072950   -1.534080
     40          9           0        3.181780    3.460040   -2.748050
     41          6           0        2.861860    3.963830   -0.459360
     42          6           0        2.455000    3.497630    0.788030
     43          9           0        2.469960    4.267630    1.869760
     44          6           0        2.011180    2.186000    0.946970
     45          9           0        1.638700    1.806330    2.174710
     46         45           0        0.006240   -1.136750    1.890680
     47          6           0       -1.434040   -1.497900    3.615020
     48          6           0       -1.397250   -2.632720    2.828670
     49          6           0        1.493610   -2.419560    3.073860
     50          6           0        1.463240   -1.149630    3.611720
     51          6           0       -0.725920   -1.318310    4.943370
     52          1           0       -2.224220   -0.786060    3.405930
     53          1           0       -2.192380   -2.751610    2.100820
     54          6           0       -0.600430   -3.888090    3.079840
     55          6           0        0.809000   -3.643470    3.652520
     56          1           0        2.276030   -2.624820    2.352270
     57          6           0        0.677170   -0.688590    4.811510
     58          1           0        2.235100   -0.460550    3.288590
     59          1           0       -1.336310   -0.668640    5.571610
     60          1           0       -0.670240   -2.274930    5.461920
     61          1           0       -1.167320   -4.549300    3.746820
     62          1           0       -0.515310   -4.424500    2.132700
     63          1           0        0.772380   -3.558540    4.737950
     64          1           0        1.426700   -4.517020    3.439600
     65          1           0        0.580040    0.396690    4.745700
     66          1           0        1.259000   -0.880010    5.721380
     67          6           0        6.532110   -3.576650   -1.476700
     68          6           0        3.358540    5.383540   -0.723650
     69          6           0       -3.406980    5.352220   -0.443460
     70          6           0       -6.512090   -3.574370   -1.629230
     71          9           0       -2.585040    6.018210   -1.273010
     72          9           0       -4.631960    5.337300   -0.992340
     73          9           0       -3.475150    6.031950    0.701830
     74          9           0       -7.513800   -3.462780   -0.754970
     75          9           0       -6.219430   -4.879850   -1.759700
     76          9           0       -6.944650   -3.123130   -2.817210
     77          9           0        6.958290   -3.189140   -2.689180
     78          9           0        6.248900   -4.889660   -1.533660
     79          9           0        7.535290   -3.409570   -0.612970
     80          9           0        3.370190    6.135250    0.377900
     81          9           0        2.565940    5.984370   -1.627840
     82          9           0        4.606140    5.350440   -1.218200
 ---------------------------------------------------------------------

 SCF Done:  E(RB3LYP) =  -5008.56359632     A.U. after   16 cycles

      1  P    Isotropic =   342.3270   Anisotropy =    63.1246

      2  C    Isotropic =    65.6299   Anisotropy =   124.6704

      3  C    Isotropic =    27.0652   Anisotropy =    97.2573

      4  F    Isotropic =   300.5469   Anisotropy =   159.9437

      5  C    Isotropic =    29.8465   Anisotropy =    95.6586

      6  F    Isotropic =   305.2780   Anisotropy =   203.9714

      7  C    Isotropic =    57.7509   Anisotropy =   131.0498

      8  C    Isotropic =    29.1036   Anisotropy =    98.8741

      9  F    Isotropic =   300.7806   Anisotropy =   191.8305

     10  C    Isotropic =    28.7794   Anisotropy =    89.8178

     11  F    Isotropic =   303.6555   Anisotropy =   160.0482

     12  C    Isotropic =    66.2770   Anisotropy =   121.2612

     13  C    Isotropic =    28.8343   Anisotropy =    90.1969

     14  F    Isotropic =   306.7455   Anisotropy =   143.5805

     15  C    Isotropic =    30.1386   Anisotropy =    93.4917

     16  F    Isotropic =   307.1735   Anisotropy =   204.3359

     17  C    Isotropic =    58.7758   Anisotropy =   128.5140

     18  C    Isotropic =    27.8402   Anisotropy =    98.6802

     19  F    Isotropic =   297.4146   Anisotropy =   193.3541

     20  C    Isotropic =    28.8817   Anisotropy =    85.7679

     21  F    Isotropic =   308.3254   Anisotropy =   168.8528

     22  C    Isotropic =   131.5327   Anisotropy =    46.9118

     23  H    Isotropic =    27.3775   Anisotropy =     7.7519

     24  H    Isotropic =    25.8469   Anisotropy =     5.9704

     25  P    Isotropic =   344.9058   Anisotropy =    56.7219

     26  C    Isotropic =    66.2078   Anisotropy =   122.3106

     27  C    Isotropic =    29.0117   Anisotropy =    85.4790

     28  F    Isotropic =   308.7178   Anisotropy =   169.5520

     29  C    Isotropic =    27.8697   Anisotropy =    98.8007

     30  F    Isotropic =   297.4550   Anisotropy =   193.0117

     31  C    Isotropic =    58.9238   Anisotropy =   127.8758

     32  C    Isotropic =    30.1888   Anisotropy =    93.4062

     33  F    Isotropic =   307.3072   Anisotropy =   203.5879

     34  C    Isotropic =    29.0062   Anisotropy =    89.8090

     35  F    Isotropic =   307.3951   Anisotropy =   140.9682

     36  C    Isotropic =    64.8985   Anisotropy =   126.0439

     37  C    Isotropic =    28.8545   Anisotropy =    89.7424

     38  F    Isotropic =   303.1967   Anisotropy =   159.1954

     39  C    Isotropic =    28.9912   Anisotropy =    98.8112

     40  F    Isotropic =   300.4161   Anisotropy =   192.1266

     41  C    Isotropic =    57.7931   Anisotropy =   130.9448

     42  C    Isotropic =    29.9730   Anisotropy =    95.3889

     43  F    Isotropic =   305.7935   Anisotropy =   204.0349

     44  C    Isotropic =    27.2315   Anisotropy =    96.0629

     45  F    Isotropic =   303.8016   Anisotropy =   161.2931

     46  Rh   Isotropic =  -357.5171   Anisotropy =   369.8990

     47  C    Isotropic =    73.0537   Anisotropy =   131.0337

     48  C    Isotropic =    68.5204   Anisotropy =   126.8829

     49  C    Isotropic =    69.0164   Anisotropy =   134.1969

     50  C    Isotropic =    69.4786   Anisotropy =   129.1888

     51  C    Isotropic =   154.5026   Anisotropy =    24.8924

     52  H    Isotropic =    26.4475   Anisotropy =     4.4734

     53  H    Isotropic =    26.6577   Anisotropy =     4.3489

     54  C    Isotropic =   146.5136   Anisotropy =    32.1606

     55  C    Isotropic =   154.1671   Anisotropy =    26.1622

     56  H    Isotropic =    27.0963   Anisotropy =     5.6301

     57  C    Isotropic =   148.4761   Anisotropy =    27.7991

     58  H    Isotropic =    25.7790   Anisotropy =     1.9764

     59  H    Isotropic =    29.5231   Anisotropy =    11.2868

     60  H    Isotropic =    29.6308   Anisotropy =     9.6827

     61  H    Isotropic =    29.2155   Anisotropy =    12.3431

     62  H    Isotropic =    29.2489   Anisotropy =     6.3131

     63  H    Isotropic =    29.6561   Anisotropy =     9.2077

     64  H    Isotropic =    30.0305   Anisotropy =    11.0200

     65  H    Isotropic =    28.5964   Anisotropy =     6.6402

     66  H    Isotropic =    28.9128   Anisotropy =    12.6838

     67  C    Isotropic =    52.5769   Anisotropy =    12.0932

     68  C    Isotropic =    53.0105   Anisotropy =    11.7155

     69  C    Isotropic =    52.9966   Anisotropy =    11.6596

     70  C    Isotropic =    52.5808   Anisotropy =    12.1489

     71  F    Isotropic =   219.8070   Anisotropy =   144.4929

     72  F    Isotropic =   220.2038   Anisotropy =   143.2893

     73  F    Isotropic =   238.1060   Anisotropy =   122.3816

     74  F    Isotropic =   237.6232   Anisotropy =   124.3063

     75  F    Isotropic =   219.6366   Anisotropy =   144.8150

     76  F    Isotropic =   220.1030   Anisotropy =   142.7729

     77  F    Isotropic =   220.1193   Anisotropy =   142.6846

     78  F    Isotropic =   219.6357   Anisotropy =   145.0188

     79  F    Isotropic =   237.6575   Anisotropy =   124.2962

     80  F    Isotropic =   237.9610   Anisotropy =   122.7066

     81  F    Isotropic =   219.9781   Anisotropy =   144.4163

     82  F    Isotropic =   220.2197   Anisotropy =   143.3057

 The electronic state is 1-A.
 Alpha  occ. eigenvalues --  -77.30635 -77.30620 -24.85181 -24.85179 -24.85049
 Alpha  occ. eigenvalues --  -24.85004 -24.84830 -24.84766 -24.84652 -24.84645
 Alpha  occ. eigenvalues --  -24.83708 -24.83680 -24.83631 -24.83622 -24.83591
 Alpha  occ. eigenvalues --  -24.83575 -24.83471 -24.83451 -24.82172 -24.82146
 Alpha  occ. eigenvalues --  -24.81988 -24.81980 -24.81883 -24.81859 -24.81849
 Alpha  occ. eigenvalues --  -24.81832 -24.81685 -24.81675 -24.81658 -24.81647
 Alpha  occ. eigenvalues --  -10.54932 -10.54905 -10.54736 -10.54723 -10.42665
 Alpha  occ. eigenvalues --  -10.42655 -10.42561 -10.42527 -10.42526 -10.42522
 Alpha  occ. eigenvalues --  -10.42501 -10.42485 -10.42461 -10.42456 -10.42426
 Alpha  occ. eigenvalues --  -10.42396 -10.42328 -10.42309 -10.42152 -10.42120
 Alpha  occ. eigenvalues --  -10.36746 -10.36734 -10.36597 -10.36569 -10.36283
 Alpha  occ. eigenvalues --  -10.36258 -10.36004 -10.35966 -10.35192 -10.32729
 Alpha  occ. eigenvalues --  -10.32565 -10.32205 -10.32047 -10.30393 -10.30108
 Alpha  occ. eigenvalues --  -10.29988 -10.29801  -6.76450  -6.76425  -4.92746
 Alpha  occ. eigenvalues --   -4.92721  -4.92718  -4.92699  -4.92301  -4.92276
 Alpha  occ. eigenvalues --   -3.36094  -2.13161  -2.12335  -2.09374  -1.42781
 Alpha  occ. eigenvalues --   -1.42753  -1.42581  -1.42569  -1.39299  -1.39287
 Alpha  occ. eigenvalues --   -1.39255  -1.39226  -1.39185  -1.39148  -1.39014
 Alpha  occ. eigenvalues --   -1.38999  -1.37470  -1.37442  -1.37412  -1.37395
 Alpha  occ. eigenvalues --   -1.37371  -1.37354  -1.37211  -1.37189  -1.33813
 Alpha  occ. eigenvalues --   -1.33785  -1.33617  -1.33606  -1.33517  -1.33489
 Alpha  occ. eigenvalues --   -1.33316  -1.33304  -1.04445  -1.04354  -1.04053
 Alpha  occ. eigenvalues --   -1.04029  -0.97614  -0.96941  -0.95880  -0.94521
 Alpha  occ. eigenvalues --   -0.94482  -0.92406  -0.91983  -0.91230  -0.91208
 Alpha  occ. eigenvalues --   -0.91108  -0.91077  -0.90886  -0.87205  -0.84994
 Alpha  occ. eigenvalues --   -0.84576  -0.84511  -0.83350  -0.80766  -0.80302
 Alpha  occ. eigenvalues --   -0.79501  -0.79193  -0.79162  -0.79098  -0.79051
 Alpha  occ. eigenvalues --   -0.78921  -0.78900  -0.76162  -0.75245  -0.73487
 Alpha  occ. eigenvalues --   -0.73323  -0.73295  -0.73158  -0.73093  -0.72890
 Alpha  occ. eigenvalues --   -0.72701  -0.72598  -0.72281  -0.70570  -0.70450
 Alpha  occ. eigenvalues --   -0.70439  -0.70421  -0.70253  -0.70242  -0.69927
 Alpha  occ. eigenvalues --   -0.69607  -0.69515  -0.69461  -0.69412  -0.69287
 Alpha  occ. eigenvalues --   -0.68867  -0.67968  -0.67932  -0.67792  -0.67727
 Alpha  occ. eigenvalues --   -0.67659  -0.67579  -0.67531  -0.67333  -0.65578
 Alpha  occ. eigenvalues --   -0.65347  -0.65198  -0.64847  -0.64739  -0.64294
 Alpha  occ. eigenvalues --   -0.64233  -0.64099  -0.63946  -0.63258  -0.63185
 Alpha  occ. eigenvalues --   -0.63032  -0.62863  -0.62742  -0.61565  -0.61288
 Alpha  occ. eigenvalues --   -0.60668  -0.60538  -0.60510  -0.60073  -0.59943
 Alpha  occ. eigenvalues --   -0.59854  -0.59762  -0.59720  -0.59438  -0.59264
 Alpha  occ. eigenvalues --   -0.59021  -0.58260  -0.58037  -0.57978  -0.57888
 Alpha  occ. eigenvalues --   -0.57701  -0.57512  -0.57487  -0.57460  -0.57317
 Alpha  occ. eigenvalues --   -0.57307  -0.57253  -0.56676  -0.56374  -0.56168
 Alpha  occ. eigenvalues --   -0.56013  -0.55646  -0.55485  -0.55441  -0.55216
 Alpha  occ. eigenvalues --   -0.55179  -0.55140  -0.54935  -0.54121  -0.54109
 Alpha  occ. eigenvalues --   -0.54084  -0.53913  -0.53902  -0.53658  -0.53562
 Alpha  occ. eigenvalues --   -0.53536  -0.53444  -0.52860  -0.52468  -0.52450
 Alpha  occ. eigenvalues --   -0.52385  -0.52206  -0.52148  -0.51720  -0.51690
 Alpha  occ. eigenvalues --   -0.51531  -0.51522  -0.51452  -0.50939  -0.50451
 Alpha  occ. eigenvalues --   -0.50294  -0.50166  -0.50146  -0.49934  -0.49921
 Alpha  occ. eigenvalues --   -0.49374  -0.49295  -0.48910  -0.48683  -0.47517
 Alpha  occ. eigenvalues --   -0.47023  -0.45995  -0.45604  -0.43031  -0.42805
 Alpha  occ. eigenvalues --   -0.41970  -0.41694  -0.40585  -0.40422  -0.39636
 Alpha  occ. eigenvalues --   -0.39166  -0.39015  -0.38993  -0.38861  -0.38798
 Alpha  occ. eigenvalues --   -0.37940  -0.35078
 Alpha virt. eigenvalues --   -0.21011  -0.20671  -0.20477  -0.19433  -0.17970
 Alpha virt. eigenvalues --   -0.17515  -0.15589  -0.15147  -0.15011  -0.14754
 Alpha virt. eigenvalues --   -0.14691  -0.13141  -0.12667  -0.12513  -0.11624

 Mulliken charges:
               1
     1  P    0.431433
     2  C   -0.404245
     3  C    0.314132
     4  F   -0.161198
     5  C    0.280207
     6  F   -0.129009
     7  C   -0.342076
     8  C    0.320766
     9  F   -0.129005
    10  C    0.250744
    11  F   -0.163009
    12  C   -0.324493
    13  C    0.246676
    14  F   -0.175961
    15  C    0.270169
    16  F   -0.129692
    17  C   -0.334658
    18  C    0.281846
    19  F   -0.129168
    20  C    0.350739
    21  F   -0.168866
    22  C   -0.529854
    23  H    0.263239
    24  H    0.238757
    25  P    0.422102
    26  C   -0.303380
    27  C    0.351819
    28  F   -0.170296
    29  C    0.284573
    30  F   -0.129488
    31  C   -0.336162
    32  C    0.270265
    33  F   -0.129936
    34  C    0.225478
    35  F   -0.177292
    36  C   -0.373726
    37  C    0.251365
    38  F   -0.162247
    39  C    0.324025
    40  F   -0.128812
    41  C   -0.341188
    42  C    0.281195
    43  F   -0.129843
    44  C    0.286194
    45  F   -0.165475
    46  Rh  -0.542548
    47  C    0.045288
    48  C   -0.116190
    49  C   -0.035518
    50  C   -0.027201
    51  C   -0.358149
    52  H    0.201421
    53  H    0.194571
    54  C   -0.230163
    55  C   -0.352813
    56  H    0.188058
    57  C   -0.234065
    58  H    0.202630
    59  H    0.183670
    60  H    0.174647
    61  H    0.185139
    62  H    0.139753
    63  H    0.178958
    64  H    0.179131
    65  H    0.154138
    66  H    0.187868
    67  C    0.491213
    68  C    0.494090
    69  C    0.493889
    70  C    0.491267
    71  F   -0.133997
    72  F   -0.130478
    73  F   -0.126156
    74  F   -0.127750
    75  F   -0.133978
    76  F   -0.130354
    77  F   -0.130315
    78  F   -0.134342
    79  F   -0.127858
    80  F   -0.126368
    81  F   -0.133525
    82  F   -0.130608
 Sum of Mulliken charges =   1.00000

 Dipole moment (field-independent basis, Debye):
    X=              0.0228    Y=             -5.5252    Z=              7.2679  Tot=              9.1297
 Quadrupole moment (field-independent basis, Debye-Ang):
   XX=           -383.4772   YY=           -385.1782   ZZ=           -374.5131
   XY=              0.2780   XZ=              0.7036   YZ=            -21.3051

 Summary of Natural Population Analysis:

                                       Natural Population
                Natural  -----------------------------------------------
    Atom  No    Charge         Core      Valence    Rydberg      Total
 -----------------------------------------------------------------------
      P    1    1.08702      9.99644     3.86041    0.05612    13.91298
      C    2   -0.41735      1.99877     4.39625    0.02232     6.41735
      C    3    0.33892      1.99832     3.63617    0.02659     5.66108
      F    4   -0.26836      1.99994     7.25935    0.00907     9.26836
      C    5    0.35405      1.99837     3.62326    0.02433     5.64595
      F    6   -0.25269      1.99993     7.24493    0.00782     9.25269
      C    7   -0.20308      1.99878     4.18817    0.01612     6.20308
      C    8    0.35383      1.99835     3.62384    0.02398     5.64617
      F    9   -0.25372      1.99993     7.24598    0.00781     9.25372
      C   10    0.32686      1.99830     3.64667    0.02817     5.67314
      F   11   -0.28302      1.99994     7.27448    0.00859     9.28302
      C   12   -0.40432      1.99876     4.38464    0.02093     6.40432
      C   13    0.31934      1.99832     3.65579    0.02654     5.68066
      F   14   -0.28661      1.99994     7.27832    0.00835     9.28661
      C   15    0.35593      1.99834     3.62143    0.02430     5.64407
      F   16   -0.25236      1.99993     7.24461    0.00781     9.25236
      C   17   -0.20727      1.99878     4.19243    0.01606     6.20727
      C   18    0.35919      1.99837     3.61734    0.02510     5.64081
      F   19   -0.25319      1.99993     7.24553    0.00773     9.25319
      C   20    0.33324      1.99830     3.64218    0.02629     5.66676
      F   21   -0.27953      1.99994     7.27201    0.00759     9.27953
      C   22   -0.94926      1.99938     4.93317    0.01671     6.94926
      H   23    0.27917      0.00000     0.71895    0.00189     0.72083
      H   24    0.29712      0.00000     0.70153    0.00135     0.70288
      P   25    1.08066      9.99648     3.86665    0.05621    13.91934
      C   26   -0.40137      1.99876     4.38054    0.02208     6.40137
      C   27    0.33495      1.99830     3.64238    0.02437     5.66505
      F   28   -0.28039      1.99994     7.27284    0.00761     9.28039
      C   29    0.35901      1.99837     3.61743    0.02519     5.64099
      F   30   -0.25343      1.99993     7.24579    0.00771     9.25343
      C   31   -0.20823      1.99878     4.19323    0.01622     6.20823
      C   32    0.35586      1.99834     3.62140    0.02440     5.64414
      F   33   -0.25259      1.99993     7.24485    0.00781     9.25259
      C   34    0.31881      1.99832     3.65646    0.02641     5.68119
      F   35   -0.28732      1.99994     7.27936    0.00802     9.28732
      C   36   -0.41554      1.99877     4.39451    0.02226     6.41554
      C   37    0.32647      1.99830     3.64698    0.02826     5.67353
      F   38   -0.28267      1.99994     7.27413    0.00860     9.28267
      C   39    0.35458      1.99835     3.62307    0.02399     5.64542
      F   40   -0.25352      1.99993     7.24577    0.00781     9.25352
      C   41   -0.20313      1.99878     4.18823    0.01612     6.20313
      C   42    0.35366      1.99837     3.62364    0.02433     5.64634
      F   43   -0.25303      1.99993     7.24528    0.00782     9.25303
      C   44    0.33673      1.99832     3.63836    0.02659     5.66327
      F   45   -0.27193      1.99994     7.26303    0.00896     9.27193
     Rh   46   -0.36187     35.98451     9.35181    0.02555    45.36187
      C   47   -0.16426      1.99906     4.14494    0.02026     6.16426
      C   48   -0.13377      1.99908     4.11340    0.02129     6.13377
      C   49   -0.14342      1.99907     4.12396    0.02038     6.14342
      C   50   -0.14831      1.99906     4.12909    0.02016     6.14831
      C   51   -0.42630      1.99936     4.41533    0.01160     6.42630
      H   52    0.24461      0.00000     0.75377    0.00163     0.75539
      H   53    0.22283      0.00000     0.77509    0.00208     0.77717
      C   54   -0.42424      1.99935     4.41172    0.01316     6.42424
      C   55   -0.42890      1.99936     4.41693    0.01260     6.42890
      H   56    0.22305      0.00000     0.77481    0.00214     0.77695
      C   57   -0.42686      1.99935     4.41502    0.01249     6.42686
      H   58    0.24243      0.00000     0.75570    0.00187     0.75757
      H   59    0.23786      0.00000     0.76078    0.00136     0.76214
      H   60    0.21779      0.00000     0.78031    0.00190     0.78221
      H   61    0.24218      0.00000     0.75611    0.00171     0.75782
      H   62    0.22216      0.00000     0.77635    0.00149     0.77784
      H   63    0.22075      0.00000     0.77736    0.00189     0.77925
      H   64    0.23471      0.00000     0.76395    0.00134     0.76529
      H   65    0.23041      0.00000     0.76809    0.00150     0.76959
      H   66    0.24399      0.00000     0.75427    0.00174     0.75601
      C   67    0.94557      1.99933     3.00139    0.05372     5.05443
      C   68    0.94527      1.99933     3.00176    0.05364     5.05473
      C   69    0.94524      1.99933     3.00180    0.05363     5.05476
      C   70    0.94558      1.99933     3.00141    0.05368     5.05442
      F   71   -0.29210      1.99992     7.28442    0.00775     9.29210
      F   72   -0.28930      1.99992     7.28158    0.00779     9.28930
      F   73   -0.28250      1.99992     7.27484    0.00774     9.28250
      F   74   -0.28353      1.99992     7.27589    0.00772     9.28353
      F   75   -0.29209      1.99992     7.28442    0.00775     9.29209
      F   76   -0.28936      1.99992     7.28164    0.00780     9.28936
      F   77   -0.28933      1.99992     7.28160    0.00781     9.28933
      F   78   -0.29238      1.99992     7.28471    0.00775     9.29238
      F   79   -0.28362      1.99992     7.27598    0.00772     9.28362
      F   80   -0.28265      1.99992     7.27500    0.00773     9.28265
      F   81   -0.29177      1.99992     7.28409    0.00776     9.29177
      F   82   -0.28937      1.99992     7.28166    0.00779     9.28937
 =======================================================================
   * Total *    1.00000    185.92937   374.76236    1.30828   562.00000

 Normal termination of Gaussian 16 at Wed Jan 22 02:28:14 2025.
