 Gaussian 16, Revision B.01,
 Gaussian 16:  ES64L-G16RevB.01 20-Dec-2017

 ------------------------------------------
 # nmr=giao b3lyp/genecp pop=nbo scfcyc=200
 ------------------------------------------

 ---------
 MB-13_SPE
 ---------
 Symbolic Z-matrix:
 Charge =  1 Multiplicity = 1

                         Standard orientation:
 ---------------------------------------------------------------------
 Center     Atomic      Atomic             Coordinates (Angstroms)
 Number     Number       Type             X           Y           Z
 ---------------------------------------------------------------------
      1         15           0       -1.395969   -0.970549   -0.022770
      2         15           0        1.390621   -0.988919   -0.008120
      3          6           0       -0.008019   -2.181929   -0.361180
      4          6           0       -3.329969   -0.742318    2.086050
      5          6           0       -3.872369   -1.277828    3.413050
      6          6           0       -3.317379   -2.660198   -1.375690
      7          6           0       -4.316819   -2.797388   -2.527160
      8          6           0        3.245401   -0.702590    2.154200
      9          6           0        3.728191   -1.178880    3.525920
     10          6           0        3.317721   -2.749300   -1.255530
     11          6           0        4.355000   -2.934620   -2.366040
     12          1           0       -0.003789   -2.441279   -1.421240
     13          1           0       -0.017880   -3.102089    0.224640
     14          1           0       -4.127029   -0.761018    1.337400
     15          1           0       -3.042429    0.305251    2.208610
     16          1           0       -4.727399   -0.689328    3.748890
     17          1           0       -3.112259   -1.237808    4.196540
     18          1           0       -4.200109   -2.315378    3.317730
     19          1           0       -3.821229   -2.886068   -0.432720
     20          1           0       -2.526730   -3.407529   -1.491300
     21          1           0       -4.745770   -3.800248   -2.550190
     22          1           0       -5.139519   -2.086268   -2.424650
     23          1           0       -3.837699   -2.617858   -3.492220
     24          1           0        2.957441    0.350430    2.215250
     25          1           0        4.073321   -0.758580    1.441700
     26          1           0        4.572541   -0.579770    3.869970
     27          1           0        2.936311   -1.098670    4.274090
     28          1           0        4.052461   -2.221370    3.492580
     29          1           0        2.514710   -3.481140   -1.383890
     30          1           0        3.781700   -2.964750   -0.289930
     31          1           0        4.761260   -3.947030   -2.351320
     32          1           0        3.915651   -2.766400   -3.351850
     33          1           0        5.189611   -2.239850   -2.248720
     34         45           0        0.014441    0.925171   -0.128320
     35          6           0       -1.426629    2.491021   -0.965710
     36          6           0       -1.441219    2.563361    0.410720
     37          6           0        1.469102    2.653091    0.191170
     38          6           0        1.479751    2.301111   -1.142660
     39          6           0       -0.694378    3.444141   -1.891580
     40          1           0       -2.200389    1.893111   -1.434340
     41          1           0       -2.244039    2.043661    0.923190
     42          6           0       -0.678078    3.533921    1.276920
     43          6           0        0.750352    3.850411    0.783350
     44          1           0        2.239061    2.216801    0.818100
     45          6           0        0.727752    2.974991   -2.263640
     46          1           0        2.280631    1.649481   -1.475900
     47          1           0       -1.274508    3.548931   -2.809830
     48          1           0       -0.662758    4.436801   -1.443280
     49          1           0       -1.248858    4.465121    1.380630
     50          1           0       -0.621908    3.107331    2.280920
     51          1           0        0.730742    4.662721    0.057280
     52          1           0        1.332212    4.219891    1.629230
     53          1           0        0.664271    2.266531   -3.092430
     54          1           0        1.311782    3.823891   -2.640770
     55          6           0       -2.701489   -1.257419   -1.314890
     56          1           0       -2.230169   -1.001469   -2.267950
     57          1           0       -3.477159   -0.504228   -1.148580
     58          6           0       -2.126289   -1.550179    1.588230
     59          1           0       -1.319519   -1.509129    2.324490
     60          1           0       -2.394299   -2.603939    1.470070
     61          6           0        2.059311   -1.527669    1.641950
     62          1           0        2.328621   -2.584939    1.566470
     63          1           0        1.227251   -1.460739    2.347460
     64          6           0        2.732581   -1.331970   -1.247840
     65          1           0        3.519981   -0.593490   -1.071180
     66          1           0        2.301131   -1.088819   -2.222990
 ---------------------------------------------------------------------

 SCF Done:  E(RB3LYP) =  -1619.05617078     A.U. after   15 cycles

      1  P    Isotropic =   329.4512   Anisotropy =    66.2721

      2  P    Isotropic =   327.7487   Anisotropy =    63.9091

      3  C    Isotropic =   140.3624   Anisotropy =    43.0392

      4  C    Isotropic =   162.3145   Anisotropy =    16.7383

      5  C    Isotropic =   167.7047   Anisotropy =    31.8531

      6  C    Isotropic =   164.5372   Anisotropy =    15.1506

      7  C    Isotropic =   168.1942   Anisotropy =    31.4142

      8  C    Isotropic =   162.2920   Anisotropy =    17.0375

      9  C    Isotropic =   167.7132   Anisotropy =    31.8665

     10  C    Isotropic =   164.6571   Anisotropy =    14.9734

     11  C    Isotropic =   168.1908   Anisotropy =    31.4206

     12  H    Isotropic =    29.1036   Anisotropy =     4.7330

     13  H    Isotropic =    29.4694   Anisotropy =     8.5126

     14  H    Isotropic =    30.5913   Anisotropy =     5.3404

     15  H    Isotropic =    30.4534   Anisotropy =     7.5718

     16  H    Isotropic =    30.4268   Anisotropy =    11.8560

     17  H    Isotropic =    30.8941   Anisotropy =     8.4897

     18  H    Isotropic =    30.9005   Anisotropy =     9.4777

     19  H    Isotropic =    30.5071   Anisotropy =     6.0995

     20  H    Isotropic =    30.6797   Anisotropy =     5.0134

     21  H    Isotropic =    30.4640   Anisotropy =    12.1299

     22  H    Isotropic =    30.9573   Anisotropy =     9.0672

     23  H    Isotropic =    30.9960   Anisotropy =     8.8293

     24  H    Isotropic =    30.5496   Anisotropy =     7.3900

     25  H    Isotropic =    30.6244   Anisotropy =     5.4773

     26  H    Isotropic =    30.4483   Anisotropy =    11.8471

     27  H    Isotropic =    30.9058   Anisotropy =     8.4554

     28  H    Isotropic =    30.8997   Anisotropy =     9.5366

     29  H    Isotropic =    30.6798   Anisotropy =     5.0510

     30  H    Isotropic =    30.5010   Anisotropy =     6.0912

     31  H    Isotropic =    30.4543   Anisotropy =    12.1202

     32  H    Isotropic =    30.9856   Anisotropy =     8.8403

     33  H    Isotropic =    30.9477   Anisotropy =     9.0786

     34  Rh   Isotropic =  -312.0929   Anisotropy =   344.2782

     35  C    Isotropic =    77.4700   Anisotropy =   123.3973

     36  C    Isotropic =    78.1169   Anisotropy =   114.9018

     37  C    Isotropic =    80.6897   Anisotropy =   119.1181

     38  C    Isotropic =    76.1087   Anisotropy =   117.1897

     39  C    Isotropic =   153.9176   Anisotropy =    25.0618

     40  H    Isotropic =    26.9938   Anisotropy =     6.5388

     41  H    Isotropic =    26.4371   Anisotropy =     4.9482

     42  C    Isotropic =   147.8384   Anisotropy =    30.0354

     43  C    Isotropic =   154.1979   Anisotropy =    24.4540

     44  H    Isotropic =    27.1362   Anisotropy =     6.8675

     45  C    Isotropic =   147.2527   Anisotropy =    30.8657

     46  H    Isotropic =    26.5133   Anisotropy =     4.2313

     47  H    Isotropic =    29.8800   Anisotropy =    11.3881

     48  H    Isotropic =    29.7833   Anisotropy =     9.1447

     49  H    Isotropic =    29.1099   Anisotropy =    12.3390

     50  H    Isotropic =    29.2025   Anisotropy =     7.7113

     51  H    Isotropic =    29.8244   Anisotropy =     9.3171

     52  H    Isotropic =    29.8815   Anisotropy =    11.4072

     53  H    Isotropic =    29.1630   Anisotropy =     7.6360

     54  H    Isotropic =    29.1192   Anisotropy =    12.3566

     55  C    Isotropic =   150.4870   Anisotropy =    41.0007

     56  H    Isotropic =    30.4789   Anisotropy =     4.7644

     57  H    Isotropic =    30.2209   Anisotropy =     4.3378

     58  C    Isotropic =   148.7741   Anisotropy =    40.7820

     59  H    Isotropic =    30.4022   Anisotropy =     4.9377

     60  H    Isotropic =    29.9790   Anisotropy =     5.8080

     61  C    Isotropic =   149.1316   Anisotropy =    39.5257

     62  H    Isotropic =    29.9601   Anisotropy =     5.9045

     63  H    Isotropic =    30.4183   Anisotropy =     5.0730

     64  C    Isotropic =   151.1035   Anisotropy =    39.3136

     65  H    Isotropic =    30.2071   Anisotropy =     4.4050

     66  H    Isotropic =    30.4614   Anisotropy =     4.8426

 The electronic state is 1-A.
 Alpha  occ. eigenvalues --  -77.23754 -77.23752 -10.30884 -10.29823 -10.29784
 Alpha  occ. eigenvalues --  -10.29775 -10.29762 -10.29758 -10.29634 -10.29565
 Alpha  occ. eigenvalues --  -10.29372 -10.28234 -10.28188 -10.28178 -10.28156
 Alpha  occ. eigenvalues --  -10.28062 -10.28009 -10.27823 -10.27764 -10.25620
 Alpha  occ. eigenvalues --  -10.25597 -10.25580 -10.25572  -6.69811  -6.69803
 Alpha  occ. eigenvalues --   -4.86109  -4.86103  -4.86003  -4.85996  -4.85707
 Alpha  occ. eigenvalues --   -4.85699  -3.32091  -2.08985  -2.08314  -2.05537
 Alpha  occ. eigenvalues --   -0.95028  -0.92732  -0.91474  -0.89764  -0.89509
 Alpha  occ. eigenvalues --   -0.89465  -0.88552  -0.86991  -0.82451  -0.80917
 Alpha  occ. eigenvalues --   -0.79810  -0.79248  -0.79091  -0.78378  -0.71454
 Alpha  occ. eigenvalues --   -0.71117  -0.71012  -0.70463  -0.70433  -0.66530
 Alpha  occ. eigenvalues --   -0.66273  -0.66212  -0.63028  -0.60702  -0.59385
 Alpha  occ. eigenvalues --   -0.58826  -0.58264  -0.57981  -0.57255  -0.56768
 Alpha  occ. eigenvalues --   -0.56105  -0.55606  -0.54158  -0.53823  -0.53272
 Alpha  occ. eigenvalues --   -0.53173  -0.52695  -0.52384  -0.52199  -0.52141
 Alpha  occ. eigenvalues --   -0.51584  -0.51051  -0.49715  -0.49560  -0.49287
 Alpha  occ. eigenvalues --   -0.48972  -0.48557  -0.48453  -0.46916  -0.46765
 Alpha  occ. eigenvalues --   -0.46493  -0.45849  -0.45594  -0.45438  -0.45119
 Alpha  occ. eigenvalues --   -0.44573  -0.44470  -0.44272  -0.44185  -0.43818
 Alpha  occ. eigenvalues --   -0.43561  -0.43303  -0.43221  -0.42821  -0.42501
 Alpha  occ. eigenvalues --   -0.41265  -0.37262  -0.37025  -0.35568  -0.35128
 Alpha  occ. eigenvalues --   -0.34310  -0.31342
 Alpha virt. eigenvalues --   -0.16745  -0.14343  -0.09997  -0.09211  -0.08992
 Alpha virt. eigenvalues --   -0.08478  -0.07852  -0.07178  -0.06909  -0.06064
 Alpha virt. eigenvalues --   -0.05866  -0.05686  -0.05015  -0.04561  -0.04149

 Mulliken charges:
               1
     1  P    0.428807
     2  P    0.434612
     3  C   -0.572415
     4  C   -0.216944
     5  C   -0.365724
     6  C   -0.208505
     7  C   -0.353858
     8  C   -0.216797
     9  C   -0.364415
    10  C   -0.211757
    11  C   -0.353747
    12  H    0.206900
    13  H    0.210575
    14  H    0.134499
    15  H    0.108236
    16  H    0.148104
    17  H    0.121895
    18  H    0.125958
    19  H    0.133023
    20  H    0.126200
    21  H    0.147651
    22  H    0.122570
    23  H    0.120803
    24  H    0.109207
    25  H    0.133624
    26  H    0.147765
    27  H    0.121651
    28  H    0.125411
    29  H    0.126917
    30  H    0.133690
    31  H    0.147829
    32  H    0.120912
    33  H    0.122661
    34  Rh  -0.513184
    35  C   -0.027145
    36  C   -0.101809
    37  C   -0.030200
    38  C   -0.111865
    39  C   -0.349300
    40  H    0.180189
    41  H    0.189929
    42  C   -0.221822
    43  C   -0.342995
    44  H    0.182070
    45  C   -0.215333
    46  H    0.189837
    47  H    0.169373
    48  H    0.169004
    49  H    0.172774
    50  H    0.131544
    51  H    0.167537
    52  H    0.169806
    53  H    0.129326
    54  H    0.172276
    55  C   -0.359196
    56  H    0.157944
    57  H    0.161359
    58  C   -0.317983
    59  H    0.140718
    60  H    0.167220
    61  C   -0.314610
    62  H    0.167070
    63  H    0.138214
    64  C   -0.368228
    65  H    0.163556
    66  H    0.158587
 Sum of Mulliken charges =   1.00000

 Dipole moment (field-independent basis, Debye):
    X=             -0.0213    Y=             -1.4790    Z=             -0.2896  Tot=              1.5073
 Quadrupole moment (field-independent basis, Debye-Ang):
   XX=           -144.8641   YY=           -148.0993   ZZ=           -161.9051
   XY=             -0.0602   XZ=              0.1219   YZ=              0.3785

 Summary of Natural Population Analysis:

                                       Natural Population
                Natural  -----------------------------------------------
    Atom  No    Charge         Core      Valence    Rydberg      Total
 -----------------------------------------------------------------------
      P    1    1.12174      9.99680     3.83360    0.04786    13.87826
      P    2    1.12678      9.99677     3.82839    0.04805    13.87322
      C    3   -0.99278      1.99945     4.97571    0.01762     6.99278
      C    4   -0.38725      1.99944     4.37723    0.01058     6.38725
      C    5   -0.58601      1.99947     4.58018    0.00636     6.58601
      C    6   -0.38889      1.99945     4.37892    0.01052     6.38889
      C    7   -0.58592      1.99947     4.57992    0.00654     6.58592
      C    8   -0.38756      1.99944     4.37741    0.01071     6.38756
      C    9   -0.58607      1.99947     4.58026    0.00635     6.58607
      C   10   -0.38853      1.99945     4.37853    0.01055     6.38853
      C   11   -0.58598      1.99947     4.57998    0.00654     6.58598
      H   12    0.25885      0.00000     0.73952    0.00163     0.74115
      H   13    0.25177      0.00000     0.74613    0.00209     0.74823
      H   14    0.19608      0.00000     0.80193    0.00199     0.80392
      H   15    0.19969      0.00000     0.79853    0.00178     0.80031
      H   16    0.21938      0.00000     0.77957    0.00105     0.78062
      H   17    0.20275      0.00000     0.79586    0.00139     0.79725
      H   18    0.20483      0.00000     0.79386    0.00130     0.79517
      H   19    0.19806      0.00000     0.80022    0.00172     0.80194
      H   20    0.19553      0.00000     0.80252    0.00195     0.80447
      H   21    0.21997      0.00000     0.77897    0.00106     0.78003
      H   22    0.20439      0.00000     0.79421    0.00140     0.79561
      H   23    0.20266      0.00000     0.79592    0.00141     0.79734
      H   24    0.20107      0.00000     0.79699    0.00194     0.79893
      H   25    0.19581      0.00000     0.80220    0.00198     0.80419
      H   26    0.21924      0.00000     0.77971    0.00105     0.78076
      H   27    0.20250      0.00000     0.79610    0.00139     0.79750
      H   28    0.20483      0.00000     0.79387    0.00130     0.79517
      H   29    0.19573      0.00000     0.80233    0.00195     0.80427
      H   30    0.19810      0.00000     0.80018    0.00172     0.80190
      H   31    0.22006      0.00000     0.77889    0.00105     0.77994
      H   32    0.20271      0.00000     0.79588    0.00141     0.79729
      H   33    0.20444      0.00000     0.79416    0.00140     0.79556
     Rh   34   -0.43668     35.98559     9.42439    0.02670    45.43668
      C   35   -0.16072      1.99905     4.14189    0.01978     6.16072
      C   36   -0.16347      1.99905     4.14389    0.02053     6.16347
      C   37   -0.17907      1.99905     4.16013    0.01989     6.17907
      C   38   -0.14903      1.99905     4.12941    0.02057     6.14903
      C   39   -0.42522      1.99936     4.41384    0.01202     6.42522
      H   40    0.22168      0.00000     0.77618    0.00214     0.77832
      H   41    0.22203      0.00000     0.77535    0.00263     0.77797
      C   42   -0.42181      1.99936     4.40993    0.01252     6.42181
      C   43   -0.42371      1.99937     4.41249    0.01185     6.42371
      H   44    0.22589      0.00000     0.77209    0.00202     0.77411
      C   45   -0.42133      1.99936     4.40940    0.01256     6.42133
      H   46    0.22112      0.00000     0.77678    0.00210     0.77888
      H   47    0.22914      0.00000     0.76946    0.00140     0.77086
      H   48    0.21503      0.00000     0.78302    0.00195     0.78497
      H   49    0.23468      0.00000     0.76351    0.00181     0.76532
      H   50    0.21861      0.00000     0.77986    0.00153     0.78139
      H   51    0.21444      0.00000     0.78361    0.00195     0.78556
      H   52    0.22933      0.00000     0.76927    0.00140     0.77067
      H   53    0.21797      0.00000     0.78048    0.00155     0.78203
      H   54    0.23425      0.00000     0.76394    0.00181     0.76575
      C   55   -0.67637      1.99939     4.66348    0.01350     6.67637
      H   56    0.23356      0.00000     0.76466    0.00178     0.76644
      H   57    0.23281      0.00000     0.76543    0.00175     0.76719
      C   58   -0.67200      1.99938     4.65816    0.01446     6.67200
      H   59    0.22751      0.00000     0.77041    0.00208     0.77249
      H   60    0.22516      0.00000     0.77218    0.00266     0.77484
      C   61   -0.67217      1.99938     4.65818    0.01460     6.67217
      H   62    0.22526      0.00000     0.77213    0.00261     0.77474
      H   63    0.22765      0.00000     0.77026    0.00209     0.77235
      C   64   -0.67842      1.99939     4.66562    0.01341     6.67842
      H   65    0.23300      0.00000     0.76524    0.00176     0.76700
      H   66    0.23288      0.00000     0.76534    0.00179     0.76712
 =======================================================================
   * Total *    1.00000     97.96544   143.56771    0.46685   242.00000

 Normal termination of Gaussian 16 at Tue Jan 21 10:12:10 2025.
