 Gaussian 16, Revision B.01,
 Gaussian 16:  ES64L-G16RevB.01 20-Dec-2017

 ------------------------------------------
 # nmr=giao b3lyp/genecp pop=nbo scfcyc=200
 ------------------------------------------

 ---------
 MB-15_SPE
 ---------
 Symbolic Z-matrix:
 Charge =  1 Multiplicity = 1

                         Standard orientation:
 ---------------------------------------------------------------------
 Center     Atomic      Atomic             Coordinates (Angstroms)
 Number     Number       Type             X           Y           Z
 ---------------------------------------------------------------------
      1          6           0        0.013569   -2.145651   -0.857069
      2          1           0        0.017049   -2.196841   -1.946479
      3          1           0        0.015049   -3.154651   -0.449039
      4         45           0        0.001170    0.859889   -0.045939
      5          6           0       -1.451890    2.564119   -0.456379
      6          6           0       -1.486810    2.261269    0.889591
      7          6           0        1.428610    2.441618    0.753771
      8          6           0        1.466370    2.465418   -0.625509
      9          6           0       -0.720330    3.739619   -1.077619
     10          1           0       -2.207060    2.100329   -1.081399
     11          1           0       -2.285080    1.608449    1.228541
     12          6           0       -0.749160    2.970309    1.998241
     13          6           0        0.680920    3.425828    1.633501
     14          1           0        2.188550    1.851018    1.254301
     15          6           0        0.716230    3.406488   -1.535739
     16          1           0        2.276240    1.926278   -1.106069
     17          1           0       -1.287670    4.079389   -1.945509
     18          1           0       -0.712870    4.575889   -0.379009
     19          1           0       -1.336410    3.831989    2.339371
     20          1           0       -0.699960    2.288809    2.850201
     21          1           0        0.657990    4.403108    1.152071
     22          1           0        1.244710    3.560058    2.557961
     23          1           0        0.677040    2.947038   -2.525669
     24          1           0        1.289990    4.333438   -1.659989
     25         15           0       -1.389531   -1.025381   -0.310569
     26         15           0        1.406559   -1.016862   -0.301889
     27          6           0        2.861579   -1.220162   -1.358229
     28          1           0        2.900249   -0.945262   -2.402219
     29          6           0        3.896879   -1.689642   -0.634779
     30          6           0        3.558989   -1.988462    0.790591
     31          6           0        2.273779   -1.744652    1.111821
     32          1           0        1.838239   -1.881332    2.090701
     33          6           0       -3.558481   -2.010881    0.736151
     34          6           0       -2.278221   -1.771681    1.080011
     35          1           0       -1.856711   -1.925851    2.062481
     36          6           0       -3.875301   -1.690671   -0.689519
     37          6           0       -2.828771   -1.213441   -1.391219
     38          1           0       -2.851901   -0.920731   -2.430759
     39          6           0       -5.246861   -1.908061   -1.249699
     40          1           0       -5.545791   -2.955531   -1.158989
     41          1           0       -5.991071   -1.317911   -0.708249
     42          1           0       -5.292411   -1.631081   -2.301699
     43          6           0       -4.601821   -2.556831    1.661451
     44          1           0       -5.442411   -1.864731    1.759981
     45          1           0       -5.008821   -3.497851    1.282511
     46          1           0       -4.192801   -2.738611    2.654061
     47          6           0        5.275729   -1.918322   -1.171969
     48          1           0        6.013629   -1.322412   -0.628209
     49          1           0        5.570439   -2.965162   -1.061929
     50          1           0        5.337249   -1.656592   -2.227059
     51          6           0        4.588719   -2.519032    1.739801
     52          1           0        5.003099   -3.464792    1.381181
     53          1           0        5.426449   -1.823912    1.841301
     54          1           0        4.164559   -2.686952    2.728501
 ---------------------------------------------------------------------

 SCF Done:  E(RB3LYP) =  -1611.73481157     A.U. after   15 cycles

      1  C    Isotropic =   141.7049   Anisotropy =    63.2796

      2  H    Isotropic =    27.9848   Anisotropy =     6.4951

      3  H    Isotropic =    29.0359   Anisotropy =    10.7935

      4  Rh   Isotropic =  -324.0453   Anisotropy =   384.7232

      5  C    Isotropic =    76.4431   Anisotropy =   124.4096

      6  C    Isotropic =    76.0076   Anisotropy =   118.2462

      7  C    Isotropic =    77.4268   Anisotropy =   123.7665

      8  C    Isotropic =    74.9991   Anisotropy =   119.2580

      9  C    Isotropic =   153.9611   Anisotropy =    24.7086

     10  H    Isotropic =    27.0289   Anisotropy =     6.9222

     11  H    Isotropic =    26.9567   Anisotropy =     4.3974

     12  C    Isotropic =   147.8053   Anisotropy =    29.2732

     13  C    Isotropic =   154.0856   Anisotropy =    24.5121

     14  H    Isotropic =    27.4011   Anisotropy =     6.7846

     15  C    Isotropic =   147.5518   Anisotropy =    29.9245

     16  H    Isotropic =    26.4626   Anisotropy =     4.6880

     17  H    Isotropic =    29.8906   Anisotropy =    11.3267

     18  H    Isotropic =    29.8635   Anisotropy =     8.7266

     19  H    Isotropic =    29.2253   Anisotropy =    12.0589

     20  H    Isotropic =    29.2144   Anisotropy =     7.9317

     21  H    Isotropic =    29.8988   Anisotropy =     8.9053

     22  H    Isotropic =    29.9699   Anisotropy =    11.2971

     23  H    Isotropic =    29.0385   Anisotropy =     8.0281

     24  H    Isotropic =    29.1520   Anisotropy =    12.0249

     25  P    Isotropic =   319.5315   Anisotropy =   146.5950

     26  P    Isotropic =   319.9274   Anisotropy =   146.3267

     27  C    Isotropic =    55.6390   Anisotropy =   115.8022

     28  H    Isotropic =    25.6949   Anisotropy =     6.0832

     29  C    Isotropic =    14.0509   Anisotropy =   176.5993

     30  C    Isotropic =    17.2123   Anisotropy =   171.4329

     31  C    Isotropic =    55.8145   Anisotropy =   118.8105

     32  H    Isotropic =    25.5281   Anisotropy =     6.5931

     33  C    Isotropic =    16.9255   Anisotropy =   171.8272

     34  C    Isotropic =    55.9798   Anisotropy =   119.2766

     35  H    Isotropic =    25.4989   Anisotropy =     6.4630

     36  C    Isotropic =    14.2153   Anisotropy =   176.0732

     37  C    Isotropic =    55.5495   Anisotropy =   115.0127

     38  H    Isotropic =    25.7496   Anisotropy =     6.1335

     39  C    Isotropic =   164.8981   Anisotropy =    30.9507

     40  H    Isotropic =    29.7319   Anisotropy =     8.6128

     41  H    Isotropic =    29.7571   Anisotropy =     7.7472

     42  H    Isotropic =    29.6761   Anisotropy =     7.1290

     43  C    Isotropic =   164.9849   Anisotropy =    30.8503

     44  H    Isotropic =    29.7188   Anisotropy =     7.8216

     45  H    Isotropic =    29.7030   Anisotropy =     8.6552

     46  H    Isotropic =    29.6390   Anisotropy =     6.9047

     47  C    Isotropic =   164.8380   Anisotropy =    31.0215

     48  H    Isotropic =    29.7496   Anisotropy =     7.7559

     49  H    Isotropic =    29.7272   Anisotropy =     8.6029

     50  H    Isotropic =    29.6612   Anisotropy =     7.1052

     51  C    Isotropic =   164.9839   Anisotropy =    30.9012

     52  H    Isotropic =    29.7124   Anisotropy =     8.6379

     53  H    Isotropic =    29.7386   Anisotropy =     7.8393

     54  H    Isotropic =    29.6584   Anisotropy =     6.9425

 The electronic state is 1-A.
 Alpha  occ. eigenvalues --  -77.24028 -77.24019 -10.31544 -10.31000 -10.30995
 Alpha  occ. eigenvalues --  -10.30911 -10.30883 -10.29750 -10.29736 -10.29601
 Alpha  occ. eigenvalues --  -10.29557 -10.28835 -10.28829 -10.28828 -10.28822
 Alpha  occ. eigenvalues --  -10.28040 -10.28038 -10.27813 -10.27804 -10.27229
 Alpha  occ. eigenvalues --  -10.27224 -10.27222 -10.27211  -6.70122  -6.70112
 Alpha  occ. eigenvalues --   -4.86403  -4.86393  -4.86329  -4.86319  -4.86025
 Alpha  occ. eigenvalues --   -4.86014  -3.32492  -2.09454  -2.08731  -2.05898
 Alpha  occ. eigenvalues --   -0.97357  -0.97085  -0.95033  -0.89800  -0.88601
 Alpha  occ. eigenvalues --   -0.88552  -0.87060  -0.87043  -0.84659  -0.82349
 Alpha  occ. eigenvalues --   -0.80911  -0.78392  -0.78305  -0.78230  -0.73936
 Alpha  occ. eigenvalues --   -0.72097  -0.71120  -0.67037  -0.66933  -0.66405
 Alpha  occ. eigenvalues --   -0.62999  -0.62217  -0.61553  -0.60655  -0.59680
 Alpha  occ. eigenvalues --   -0.58323  -0.57534  -0.56784  -0.56464  -0.55369
 Alpha  occ. eigenvalues --   -0.54379  -0.54190  -0.54148  -0.53636  -0.53165
 Alpha  occ. eigenvalues --   -0.53123  -0.51451  -0.51380  -0.50868  -0.50857
 Alpha  occ. eigenvalues --   -0.50382  -0.50358  -0.50030  -0.49295  -0.48436
 Alpha  occ. eigenvalues --   -0.48252  -0.46773  -0.46527  -0.46270  -0.46168
 Alpha  occ. eigenvalues --   -0.45792  -0.45667  -0.45154  -0.43953  -0.43692
 Alpha  occ. eigenvalues --   -0.42310  -0.41461  -0.40649  -0.37464  -0.37053
 Alpha  occ. eigenvalues --   -0.35920  -0.35733  -0.35384  -0.34779  -0.34377
 Alpha  occ. eigenvalues --   -0.31701
 Alpha virt. eigenvalues --   -0.17900  -0.17829  -0.16941  -0.11889  -0.09817
 Alpha virt. eigenvalues --   -0.08066  -0.07716  -0.07639  -0.07249  -0.06314
 Alpha virt. eigenvalues --   -0.06153  -0.05819  -0.05745  -0.04489  -0.04372

 Mulliken charges:
               1
     1  C   -0.537495
     2  H    0.216530
     3  H    0.218866
     4  Rh  -0.589174
     5  C   -0.021929
     6  C   -0.082590
     7  C   -0.009106
     8  C   -0.105228
     9  C   -0.344709
    10  H    0.185496
    11  H    0.186557
    12  C   -0.217544
    13  C   -0.342781
    14  H    0.180948
    15  C   -0.212303
    16  H    0.192359
    17  H    0.171004
    18  H    0.167416
    19  H    0.172002
    20  H    0.134514
    21  H    0.166442
    22  H    0.171114
    23  H    0.133751
    24  H    0.172889
    25  P    0.383241
    26  P    0.389341
    27  C   -0.142570
    28  H    0.175249
    29  C   -0.025603
    30  C   -0.024605
    31  C   -0.150717
    32  H    0.163578
    33  C   -0.013176
    34  C   -0.163625
    35  H    0.163790
    36  C   -0.033616
    37  C   -0.132724
    38  H    0.174143
    39  C   -0.391803
    40  H    0.153267
    41  H    0.149427
    42  H    0.149259
    43  C   -0.395895
    44  H    0.149881
    45  H    0.152849
    46  H    0.148224
    47  C   -0.391421
    48  H    0.149529
    49  H    0.153459
    50  H    0.149221
    51  C   -0.396577
    52  H    0.152575
    53  H    0.150062
    54  H    0.148205
 Sum of Mulliken charges =   1.00000

 Dipole moment (field-independent basis, Debye):
    X=             -0.0051    Y=             -1.6839    Z=             -0.1133  Tot=              1.6877
 Quadrupole moment (field-independent basis, Debye-Ang):
   XX=           -111.4358   YY=           -139.6951   ZZ=           -154.4550
   XY=             -0.0189   XZ=              0.1896   YZ=             -1.4066

 Summary of Natural Population Analysis:

                                       Natural Population
                Natural  -----------------------------------------------
    Atom  No    Charge         Core      Valence    Rydberg      Total
 -----------------------------------------------------------------------
      C    1   -0.93148      1.99941     4.91495    0.01711     6.93148
      H    2    0.26432      0.00000     0.73441    0.00128     0.73568
      H    3    0.26375      0.00000     0.73451    0.00174     0.73625
     Rh    4   -0.44780     35.98473     9.43638    0.02669    45.44780
      C    5   -0.16057      1.99904     4.14144    0.02009     6.16057
      C    6   -0.15078      1.99904     4.13132    0.02043     6.15078
      C    7   -0.16455      1.99904     4.14563    0.01988     6.16455
      C    8   -0.14768      1.99904     4.12804    0.02061     6.14768
      C    9   -0.42365      1.99937     4.41237    0.01192     6.42365
      H   10    0.23118      0.00000     0.76722    0.00160     0.76882
      H   11    0.22943      0.00000     0.76871    0.00186     0.77057
      C   12   -0.42327      1.99936     4.41150    0.01240     6.42327
      C   13   -0.42317      1.99937     4.41193    0.01187     6.42317
      H   14    0.23204      0.00000     0.76639    0.00156     0.76796
      C   15   -0.42322      1.99936     4.41143    0.01243     6.42322
      H   16    0.22899      0.00000     0.76908    0.00193     0.77101
      H   17    0.23024      0.00000     0.76836    0.00140     0.76976
      H   18    0.21202      0.00000     0.78596    0.00202     0.78798
      H   19    0.23542      0.00000     0.76282    0.00176     0.76458
      H   20    0.21975      0.00000     0.77876    0.00149     0.78025
      H   21    0.21187      0.00000     0.78611    0.00202     0.78813
      H   22    0.23037      0.00000     0.76822    0.00140     0.76963
      H   23    0.21945      0.00000     0.77908    0.00147     0.78055
      H   24    0.23520      0.00000     0.76304    0.00176     0.76480
      P   25    1.09525      9.99662     3.85714    0.05098    13.90475
      P   26    1.09459      9.99663     3.85788    0.05091    13.90541
      C   27   -0.50828      1.99894     4.49398    0.01536     6.50828
      H   28    0.23953      0.00000     0.75882    0.00165     0.76047
      C   29    0.02786      1.99902     3.95785    0.01526     5.97214
      C   30    0.01973      1.99902     3.96588    0.01537     5.98027
      C   31   -0.49992      1.99894     4.48535    0.01563     6.49992
      H   32    0.23797      0.00000     0.76039    0.00164     0.76203
      C   33    0.02042      1.99902     3.96520    0.01536     5.97958
      C   34   -0.50195      1.99894     4.48735    0.01565     6.50195
      H   35    0.23793      0.00000     0.76043    0.00165     0.76207
      C   36    0.02681      1.99902     3.95891    0.01526     5.97319
      C   37   -0.50624      1.99894     4.49175    0.01555     6.50624
      H   38    0.23969      0.00000     0.75868    0.00163     0.76031
      C   39   -0.63057      1.99938     4.62348    0.00772     6.63057
      H   40    0.23109      0.00000     0.76743    0.00148     0.76891
      H   41    0.22957      0.00000     0.76894    0.00149     0.77043
      H   42    0.22753      0.00000     0.77120    0.00127     0.77247
      C   43   -0.62985      1.99938     4.62280    0.00767     6.62985
      H   44    0.22903      0.00000     0.76947    0.00150     0.77097
      H   45    0.23072      0.00000     0.76781    0.00148     0.76928
      H   46    0.22684      0.00000     0.77189    0.00127     0.77316
      C   47   -0.63067      1.99938     4.62358    0.00771     6.63067
      H   48    0.22969      0.00000     0.76882    0.00149     0.77031
      H   49    0.23114      0.00000     0.76738    0.00148     0.76886
      H   50    0.22748      0.00000     0.77125    0.00127     0.77252
      C   51   -0.62964      1.99938     4.62260    0.00766     6.62964
      H   52    0.23056      0.00000     0.76797    0.00148     0.76944
      H   53    0.22900      0.00000     0.76950    0.00150     0.77100
      H   54    0.22684      0.00000     0.77190    0.00127     0.77316
 =======================================================================
   * Total *    1.00000     97.96035   131.56330    0.47635   230.00000

 Normal termination of Gaussian 16 at Tue Jan 21 10:09:55 2025.
