 Gaussian 16, Revision B.01,
 Gaussian 16:  ES64L-G16RevB.01 20-Dec-2017

 ------------------------------------------
 # nmr=giao b3lyp/genecp pop=nbo scfcyc=200
 ------------------------------------------

 ----------
 MB-136_SPE
 ----------
 Symbolic Z-matrix:
 Charge =  1 Multiplicity = 1

                         Standard orientation:
 ---------------------------------------------------------------------
 Center     Atomic      Atomic             Coordinates (Angstroms)
 Number     Number       Type             X           Y           Z
 ---------------------------------------------------------------------
      1         15           0       -2.806364   -0.346341   -1.130870
      2         15           0       -0.253159    0.091643   -0.133810
      3          6           0        3.806171    2.106422   -0.865810
      4          8           0        0.471824    1.394146    0.567530
      5          6           0        2.744004    1.424752   -0.180470
      6          6           0       -1.591066   -2.500814   -2.405410
      7          1           0       -1.674775   -3.393723   -3.028630
      8          1           0       -1.291729   -2.828257   -1.408640
      9          1           0       -0.786140   -1.895252   -2.819540
     10          8           0        1.010043   -0.690550   -0.878500
     11          6           0       -4.038621    1.937841   -0.116160
     12          1           0       -3.092525    2.478452   -0.154360
     13          1           0       -4.103596    1.438442    0.849400
     14          1           0       -4.835053    2.684959   -0.164950
     15          6           0       -4.213101    0.957463   -1.290730
     16          6           0       -2.946218   -1.774910   -2.403730
     17          6           0       -1.236674    0.603183   -1.601710
     18          1           0       -0.795097    0.363118   -2.567530
     19          1           0       -1.417113    1.676365   -1.545980
     20          6           0        3.616135    3.470224   -1.244500
     21          6           0        1.536911    2.076915   -0.040410
     22          6           0        5.839495    3.536431   -2.209680
     23          1           0        6.630411    4.073343   -2.717860
     24          6           0        5.738604    0.387642    2.807870
     25          1           0        6.284411    1.165337    3.327310
     26          6           0        4.743417    0.727762    1.926450
     27          1           0        4.511048    1.769565    1.756440
     28          6           0       -3.264123   -1.295577   -3.826940
     29          1           0       -3.167202   -2.143298   -4.510650
     30          1           0       -2.576316   -0.522094   -4.172970
     31          1           0       -4.282590   -0.921206   -3.922070
     32          6           0       -4.143413    1.753472   -2.604300
     33          1           0       -4.915545    2.527340   -2.579900
     34          1           0       -4.326479    1.139614   -3.482440
     35          1           0       -3.188237    2.262833   -2.733330
     36          6           0        1.321404    3.430637   -0.409490
     37          6           0        2.153949   -1.003992   -0.128740
     38          6           0       -4.021138   -2.770709   -1.934850
     39          1           0       -5.014904   -2.331439   -1.867590
     40          1           0       -3.766993   -3.205962   -0.968270
     41          1           0       -4.075057   -3.591258   -2.654810
     42          6           0        4.662152    4.165553   -1.902580
     43          1           0        4.507362    5.204345   -2.169490
     44          6           0        4.002737   -0.270250    1.243590
     45          6           0        5.030035    1.482539   -1.220010
     46          1           0        5.186664    0.441828   -0.977760
     47          6           0        2.943870    0.035690    0.327350
     48          6           0        6.015102    2.177569   -1.875490
     49          1           0        6.937337    1.676420   -2.141760
     50          6           0        4.307143   -1.638913    1.510640
     51          6           0        5.356170   -1.955744    2.410380
     52          1           0        5.587859   -2.998486    2.593000
     53          6           0        2.380511    4.099306   -0.976060
     54          1           0        2.260882    5.141857   -1.246020
     55          6           0        2.490626   -2.374615    0.046780
     56          6           0        6.058020   -0.965671    3.046680
     57          1           0        6.852997   -1.217159    3.737260
     58          6           0        3.571783   -2.650116    0.852480
     59          1           0        3.875772   -3.681019    0.988410
     60          6           0       -5.583948    0.271307   -1.177680
     61          1           0       -6.357470    1.039205   -1.096690
     62          1           0       -5.664314   -0.364882   -0.294430
     63          1           0       -5.818624   -0.330841   -2.054810
     64         45           0       -1.927599   -0.847820    1.091960
     65          6           0       -3.895041   -1.070880    2.359680
     66          6           0       -3.450264   -2.318115    2.009590
     67          6           0       -0.844515   -1.413841    2.995420
     68          6           0       -1.229161   -0.085877    3.065640
     69          6           0       -3.700474   -0.403252    3.705520
     70          1           0       -4.639587   -0.619303    1.715820
     71          1           0       -3.891668   -2.767100    1.126530
     72          6           0       -2.620743   -3.256273    2.848190
     73          6           0       -1.530506   -2.570644    3.698850
     74          1           0        0.173483   -1.602821    2.674330
     75          6           0       -2.431906    0.472235    3.784030
     76          1           0       -0.481094    0.657795    2.814330
     77          1           0       -4.568718    0.226727    3.906580
     78          1           0       -3.690802   -1.159762    4.489420
     79          1           0       -3.281869   -3.846736    3.494960
     80          1           0       -2.148001   -3.972138    2.173080
     81          1           0       -1.945013   -2.231260    4.648060
     82          1           0       -0.777154   -3.317322    3.953310
     83          1           0       -2.645666    1.453867    3.356310
     84          1           0       -2.174524    0.654212    4.835240
     85          6           0        0.022702    4.137040   -0.186050
     86          6           0       -0.765764    4.527688   -1.283890
     87          6           0       -0.373595    4.491884    1.119440
     88          6           0       -1.943737    5.243650   -1.054510
     89          6           0       -1.553298    5.210056    1.298720
     90          6           0       -2.354424    5.599944    0.225700
     91          1           0       -2.546674    5.542076   -1.905800
     92          1           0       -1.845115    5.490979    2.305240
     93          6           0        1.805124   -3.484828   -0.685610
     94          6           0        1.131504   -4.505611    0.008820
     95          6           0        1.939193   -3.572929   -2.088210
     96          6           0        0.573333   -5.566746   -0.707460
     97          6           0        1.378532   -4.657704   -2.757830
     98          6           0        0.687872   -5.667347   -2.089480
     99          1           0        0.049265   -6.344880   -0.162140
    100          1           0        1.499222   -4.723545   -3.834010
    101          6           0       -0.366247    4.234654   -2.712710
    102          1           0       -1.238827    4.250403   -3.367370
    103          1           0        0.329010    4.988477   -3.091580
    104          1           0        0.132493    3.271229   -2.821120
    105          6           0       -3.600935    6.417437    0.447860
    106          1           0       -4.136809    6.096362    1.343060
    107          1           0       -3.353425    7.474344    0.581940
    108          1           0       -4.281926    6.348044   -0.401370
    109          6           0        0.475222    4.151755    2.319260
    110          1           0        0.540821    3.073275    2.475710
    111          1           0        1.496455    4.520565    2.200400
    112          1           0        0.061746    4.598840    3.223130
    113          6           0        2.712454   -2.547677   -2.881040
    114          1           0        2.204184   -1.581222   -2.901790
    115          1           0        3.705076   -2.379997   -2.458020
    116          1           0        2.840880   -2.878678   -3.911380
    117          6           0        0.126620   -6.849821   -2.836540
    118          1           0       -0.238617   -6.563697   -3.824460
    119          1           0        0.893922   -7.615049   -2.985620
    120          1           0       -0.694954   -7.315193   -2.290180
    121          6           0        1.020954   -4.526720    1.514610
    122          1           0        0.140008   -5.089761    1.826080
    123          1           0        1.887399   -5.015969    1.968350
    124          1           0        0.964344   -3.526159    1.938320
 ---------------------------------------------------------------------

 SCF Done:  E(RB3LYP) =  -3078.87811548     A.U. after   19 cycles

      1  P    Isotropic =   279.6346   Anisotropy =   138.6308

      2  P    Isotropic =   133.2060   Anisotropy =   210.9643

      3  C    Isotropic =    44.4235   Anisotropy =   199.9866

      4  O    Isotropic =   154.7044   Anisotropy =    34.1076

      5  C    Isotropic =    52.3159   Anisotropy =   134.9467

      6  C    Isotropic =   152.2696   Anisotropy =    45.4360

      7  H    Isotropic =    31.7069   Anisotropy =    10.0725

      8  H    Isotropic =    31.6274   Anisotropy =    12.6085

      9  H    Isotropic =    31.2593   Anisotropy =     7.5897

     10  O    Isotropic =   142.7711   Anisotropy =    91.6684

     11  C    Isotropic =   152.5053   Anisotropy =    40.6441

     12  H    Isotropic =    31.6172   Anisotropy =    13.4755

     13  H    Isotropic =    30.6204   Anisotropy =     6.7371

     14  H    Isotropic =    31.3933   Anisotropy =     8.5544

     15  C    Isotropic =   135.9434   Anisotropy =    31.6544

     16  C    Isotropic =   135.3979   Anisotropy =    33.8541

     17  C    Isotropic =   129.9673   Anisotropy =    66.0206

     18  H    Isotropic =    28.9029   Anisotropy =     3.0725

     19  H    Isotropic =    28.5931   Anisotropy =     8.8818

     20  C    Isotropic =    46.1033   Anisotropy =   211.5327

     21  C    Isotropic =    29.7265   Anisotropy =   102.0532

     22  C    Isotropic =    51.8053   Anisotropy =   185.3536

     23  H    Isotropic =    24.0984   Anisotropy =     4.2254

     24  C    Isotropic =    51.0764   Anisotropy =   185.6242

     25  H    Isotropic =    24.3241   Anisotropy =     7.9146

     26  C    Isotropic =    51.5158   Anisotropy =   177.7360

     27  H    Isotropic =    24.5995   Anisotropy =    14.3273

     28  C    Isotropic =   157.3702   Anisotropy =    33.8352

     29  H    Isotropic =    31.0567   Anisotropy =    10.2017

     30  H    Isotropic =    31.0368   Anisotropy =     5.4691

     31  H    Isotropic =    30.7900   Anisotropy =     8.7429

     32  C    Isotropic =   158.5151   Anisotropy =    36.2291

     33  H    Isotropic =    31.0589   Anisotropy =     9.9262

     34  H    Isotropic =    30.6852   Anisotropy =     7.5544

     35  H    Isotropic =    31.0534   Anisotropy =     6.9894

     36  C    Isotropic =    46.0677   Anisotropy =   158.7180

     37  C    Isotropic =    29.3702   Anisotropy =   108.9403

     38  C    Isotropic =   155.1672   Anisotropy =    39.7882

     39  H    Isotropic =    30.6688   Anisotropy =     7.3686

     40  H    Isotropic =    31.0509   Anisotropy =     5.2587

     41  H    Isotropic =    31.0677   Anisotropy =    10.0496

     42  C    Isotropic =    50.6136   Anisotropy =   162.9613

     43  H    Isotropic =    23.7609   Anisotropy =     8.6927

     44  C    Isotropic =    44.5546   Anisotropy =   202.1923

     45  C    Isotropic =    52.0807   Anisotropy =   178.8480

     46  H    Isotropic =    24.9429   Anisotropy =    15.7196

     47  C    Isotropic =    51.8500   Anisotropy =   137.1490

     48  C    Isotropic =    51.1472   Anisotropy =   185.3120

     49  H    Isotropic =    24.3910   Anisotropy =     8.5516

     50  C    Isotropic =    46.5206   Anisotropy =   210.2646

     51  C    Isotropic =    50.7760   Anisotropy =   162.8928

     52  H    Isotropic =    23.7792   Anisotropy =     8.6071

     53  C    Isotropic =    44.5201   Anisotropy =   149.8942

     54  H    Isotropic =    23.9042   Anisotropy =    11.4870

     55  C    Isotropic =    44.8317   Anisotropy =   161.3199

     56  C    Isotropic =    51.4817   Anisotropy =   184.6788

     57  H    Isotropic =    24.0921   Anisotropy =     4.2597

     58  C    Isotropic =    44.6808   Anisotropy =   150.4914

     59  H    Isotropic =    23.9223   Anisotropy =    11.3510

     60  C    Isotropic =   155.8551   Anisotropy =    36.1074

     61  H    Isotropic =    30.8554   Anisotropy =    10.6913

     62  H    Isotropic =    31.1426   Anisotropy =     5.7441

     63  H    Isotropic =    30.6807   Anisotropy =     8.3691

     64  Rh   Isotropic =  -335.4430   Anisotropy =   401.0019

     65  C    Isotropic =    68.3134   Anisotropy =   138.4312

     66  C    Isotropic =    67.9489   Anisotropy =   131.3579

     67  C    Isotropic =    88.8080   Anisotropy =   106.6559

     68  C    Isotropic =    76.2685   Anisotropy =   118.5439

     69  C    Isotropic =   154.3585   Anisotropy =    25.1754

     70  H    Isotropic =    26.6802   Anisotropy =     5.1774

     71  H    Isotropic =    26.0672   Anisotropy =     3.4700

     72  C    Isotropic =   149.3300   Anisotropy =    25.0935

     73  C    Isotropic =   155.0578   Anisotropy =    21.4561

     74  H    Isotropic =    27.9929   Anisotropy =     8.4250

     75  C    Isotropic =   147.1222   Anisotropy =    30.8285

     76  H    Isotropic =    26.2294   Anisotropy =     3.2987

     77  H    Isotropic =    30.0931   Anisotropy =    11.4334

     78  H    Isotropic =    29.9402   Anisotropy =     9.6762

     79  H    Isotropic =    29.3228   Anisotropy =    12.9492

     80  H    Isotropic =    29.2385   Anisotropy =     7.7478

     81  H    Isotropic =    30.0801   Anisotropy =     9.7916

     82  H    Isotropic =    30.1470   Anisotropy =     9.0128

     83  H    Isotropic =    29.3147   Anisotropy =     7.5801

     84  H    Isotropic =    29.3290   Anisotropy =    11.5304

     85  C    Isotropic =    42.2039   Anisotropy =   162.1291

     86  C    Isotropic =    41.3837   Anisotropy =   187.7116

     87  C    Isotropic =    36.5730   Anisotropy =   196.4612

     88  C    Isotropic =    49.8570   Anisotropy =   139.7408

     89  C    Isotropic =    49.6916   Anisotropy =   140.4768

     90  C    Isotropic =    37.4240   Anisotropy =   201.1857

     91  H    Isotropic =    24.5806   Anisotropy =     6.9805

     92  H    Isotropic =    24.5619   Anisotropy =     7.9394

     93  C    Isotropic =    43.4567   Anisotropy =   158.2466

     94  C    Isotropic =    41.6290   Anisotropy =   187.0962

     95  C    Isotropic =    37.4114   Anisotropy =   194.2521

     96  C    Isotropic =    50.4155   Anisotropy =   139.3799

     97  C    Isotropic =    49.2523   Anisotropy =   140.6960

     98  C    Isotropic =    37.3796   Anisotropy =   201.1541

     99  H    Isotropic =    24.5349   Anisotropy =     8.0955

    100  H    Isotropic =    24.7565   Anisotropy =     8.2005

    101  C    Isotropic =   160.8894   Anisotropy =    24.3293

    102  H    Isotropic =    29.8310   Anisotropy =     7.2905

    103  H    Isotropic =    29.1289   Anisotropy =     9.9421

    104  H    Isotropic =    30.1923   Anisotropy =     5.0131

    105  C    Isotropic =   162.1684   Anisotropy =    42.7647

    106  H    Isotropic =    29.5177   Anisotropy =     7.0242

    107  H    Isotropic =    29.0759   Anisotropy =    10.8207

    108  H    Isotropic =    29.7170   Anisotropy =     6.8216

    109  C    Isotropic =   161.4742   Anisotropy =    33.3197

    110  H    Isotropic =    29.3065   Anisotropy =     7.2972

    111  H    Isotropic =    29.7182   Anisotropy =     5.9606

    112  H    Isotropic =    29.8545   Anisotropy =     9.3710

    113  C    Isotropic =   161.7874   Anisotropy =    33.8257

    114  H    Isotropic =    29.6137   Anisotropy =     7.4554

    115  H    Isotropic =    30.1490   Anisotropy =     5.1494

    116  H    Isotropic =    30.0942   Anisotropy =    10.1276

    117  C    Isotropic =   162.3319   Anisotropy =    42.8004

    118  H    Isotropic =    29.6026   Anisotropy =     7.2742

    119  H    Isotropic =    29.1319   Anisotropy =    10.7498

    120  H    Isotropic =    29.6886   Anisotropy =     7.1432

    121  C    Isotropic =   160.2531   Anisotropy =    24.9781

    122  H    Isotropic =    29.5767   Anisotropy =     6.2201

    123  H    Isotropic =    28.9322   Anisotropy =     9.4864

    124  H    Isotropic =    29.6821   Anisotropy =     4.2640

 The electronic state is 1-A.
 Alpha  occ. eigenvalues --  -77.30119 -77.22483 -19.26582 -19.26542 -10.33191
 Alpha  occ. eigenvalues --  -10.33050 -10.30763 -10.30503 -10.29517 -10.29398
 Alpha  occ. eigenvalues --  -10.29325 -10.28833 -10.28296 -10.28143 -10.28100
 Alpha  occ. eigenvalues --  -10.27539 -10.27456 -10.27409 -10.27388 -10.27328
 Alpha  occ. eigenvalues --  -10.27179 -10.27178 -10.27086 -10.26672 -10.26589
 Alpha  occ. eigenvalues --  -10.26557 -10.26346 -10.26157 -10.26135 -10.26134
 Alpha  occ. eigenvalues --  -10.26113 -10.26097 -10.26053 -10.26037 -10.26021
 Alpha  occ. eigenvalues --  -10.25877 -10.25837 -10.25772 -10.25705 -10.25417
 Alpha  occ. eigenvalues --  -10.25357 -10.25311 -10.25192 -10.25191 -10.25118
 Alpha  occ. eigenvalues --  -10.25061 -10.25038 -10.24995 -10.24906 -10.24595
 Alpha  occ. eigenvalues --  -10.24491 -10.24254 -10.24141 -10.23889 -10.23856
 Alpha  occ. eigenvalues --  -10.23832 -10.23762 -10.23541 -10.23534  -6.75149
 Alpha  occ. eigenvalues --   -6.68447  -4.91634  -4.91420  -4.90940  -4.84762
 Alpha  occ. eigenvalues --   -4.84609  -4.84355  -3.31736  -2.08753  -2.07886
 Alpha  occ. eigenvalues --   -2.05135  -1.18094  -1.14339  -0.97515  -0.96122
 Alpha  occ. eigenvalues --   -0.94603  -0.94507  -0.94261  -0.93137  -0.91561
 Alpha  occ. eigenvalues --   -0.91091  -0.90731  -0.89199  -0.89147  -0.88029
 Alpha  occ. eigenvalues --   -0.86746  -0.86341  -0.86129  -0.85911  -0.85718
 Alpha  occ. eigenvalues --   -0.84401  -0.82694  -0.82374  -0.81699  -0.80378
 Alpha  occ. eigenvalues --   -0.79869  -0.79503  -0.79072  -0.78620  -0.78349
 Alpha  occ. eigenvalues --   -0.77894  -0.77856  -0.77671  -0.76350  -0.75926
 Alpha  occ. eigenvalues --   -0.75769  -0.75597  -0.75286  -0.72531  -0.71312
 Alpha  occ. eigenvalues --   -0.70951  -0.70566  -0.69681  -0.69258  -0.67615
 Alpha  occ. eigenvalues --   -0.66342  -0.65887  -0.65515  -0.65479  -0.65210
 Alpha  occ. eigenvalues --   -0.64826  -0.64227  -0.63823  -0.62674  -0.62306
 Alpha  occ. eigenvalues --   -0.61528  -0.60230  -0.60170  -0.59775  -0.59095
 Alpha  occ. eigenvalues --   -0.58472  -0.57738  -0.57443  -0.56673  -0.56662
 Alpha  occ. eigenvalues --   -0.56284  -0.56109  -0.55921  -0.55709  -0.54910
 Alpha  occ. eigenvalues --   -0.54688  -0.54599  -0.54402  -0.53873  -0.53703
 Alpha  occ. eigenvalues --   -0.53665  -0.53297  -0.52917  -0.52612  -0.52542
 Alpha  occ. eigenvalues --   -0.52415  -0.51950  -0.51855  -0.51327  -0.50992
 Alpha  occ. eigenvalues --   -0.50827  -0.50652  -0.50555  -0.50259  -0.50093
 Alpha  occ. eigenvalues --   -0.49766  -0.49367  -0.49100  -0.49010  -0.48871
 Alpha  occ. eigenvalues --   -0.48704  -0.48580  -0.48398  -0.48323  -0.48267
 Alpha  occ. eigenvalues --   -0.48217  -0.48125  -0.48059  -0.47909  -0.47832
 Alpha  occ. eigenvalues --   -0.47600  -0.47527  -0.47427  -0.47216  -0.47013
 Alpha  occ. eigenvalues --   -0.46861  -0.46665  -0.46521  -0.46434  -0.46022
 Alpha  occ. eigenvalues --   -0.45963  -0.45234  -0.44786  -0.44751  -0.44635
 Alpha  occ. eigenvalues --   -0.44366  -0.44147  -0.44018  -0.43560  -0.43406
 Alpha  occ. eigenvalues --   -0.43322  -0.42976  -0.42899  -0.42720  -0.42508
 Alpha  occ. eigenvalues --   -0.41908  -0.41818  -0.41688  -0.41493  -0.41227
 Alpha  occ. eigenvalues --   -0.40929  -0.40766  -0.40625  -0.40370  -0.40021
 Alpha  occ. eigenvalues --   -0.39774  -0.39727  -0.37620  -0.37141  -0.36497
 Alpha  occ. eigenvalues --   -0.36383  -0.35271  -0.34840  -0.33488  -0.33103
 Alpha  occ. eigenvalues --   -0.32947  -0.31976  -0.31588  -0.31420  -0.31210
 Alpha  occ. eigenvalues --   -0.30770  -0.30249  -0.29402
 Alpha virt. eigenvalues --   -0.16653  -0.14388  -0.13923  -0.12497  -0.10797
 Alpha virt. eigenvalues --   -0.10408  -0.09415  -0.08677  -0.08487  -0.08363
 Alpha virt. eigenvalues --   -0.07960  -0.07813  -0.07481  -0.07227  -0.06965

 Mulliken charges:
               1
     1  P    0.331070
     2  P    0.853889
     3  C   -0.043206
     4  O   -0.330596
     5  C    0.120073
     6  C   -0.460650
     7  H    0.157772
     8  H    0.184363
     9  H    0.148652
    10  O   -0.320312
    11  C   -0.392301
    12  H    0.173911
    13  H    0.127751
    14  H    0.153912
    15  C   -0.081184
    16  C    0.040510
    17  C   -0.628954
    18  H    0.217847
    19  H    0.215917
    20  C    0.130572
    21  C    0.145962
    22  C   -0.066076
    23  H    0.121859
    24  C   -0.079623
    25  H    0.119653
    26  C   -0.110489
    27  H    0.146888
    28  C   -0.389691
    29  H    0.150183
    30  H    0.140176
    31  H    0.140119
    32  C   -0.372213
    33  H    0.147460
    34  H    0.154070
    35  H    0.146077
    36  C   -0.186526
    37  C    0.062229
    38  C   -0.412572
    39  H    0.154714
    40  H    0.125576
    41  H    0.154884
    42  C   -0.155658
    43  H    0.115249
    44  C    0.006321
    45  C   -0.104660
    46  H    0.156550
    47  C    0.016367
    48  C   -0.082459
    49  H    0.118634
    50  C    0.123400
    51  C   -0.159311
    52  H    0.113114
    53  C   -0.268797
    54  H    0.119588
    55  C   -0.225390
    56  C   -0.066649
    57  H    0.122344
    58  C   -0.247887
    59  H    0.127701
    60  C   -0.420655
    61  H    0.154324
    62  H    0.143605
    63  H    0.148926
    64  Rh  -0.498730
    65  C   -0.052189
    66  C   -0.073725
    67  C   -0.085750
    68  C   -0.100355
    69  C   -0.359052
    70  H    0.173783
    71  H    0.184878
    72  C   -0.213807
    73  C   -0.370493
    74  H    0.217220
    75  C   -0.233589
    76  H    0.237664
    77  H    0.168926
    78  H    0.168747
    79  H    0.175097
    80  H    0.129475
    81  H    0.171844
    82  H    0.175520
    83  H    0.140587
    84  H    0.172283
    85  C    0.015992
    86  C    0.009124
    87  C    0.117982
    88  C   -0.199595
    89  C   -0.208050
    90  C    0.174422
    91  H    0.103527
    92  H    0.107028
    93  C    0.119122
    94  C    0.079129
    95  C    0.087158
    96  C   -0.208382
    97  C   -0.205679
    98  C    0.173555
    99  H    0.104808
   100  H    0.105444
   101  C   -0.407833
   102  H    0.134478
   103  H    0.161107
   104  H    0.142326
   105  C   -0.445157
   106  H    0.130597
   107  H    0.156416
   108  H    0.130319
   109  C   -0.470140
   110  H    0.142745
   111  H    0.152076
   112  H    0.140025
   113  C   -0.463800
   114  H    0.150588
   115  H    0.148741
   116  H    0.142987
   117  C   -0.446468
   118  H    0.129629
   119  H    0.155740
   120  H    0.131428
   121  C   -0.471574
   122  H    0.133865
   123  H    0.161974
   124  H    0.129657
 Sum of Mulliken charges =   1.00000

 Dipole moment (field-independent basis, Debye):
    X=             -5.7468    Y=             -1.0402    Z=              0.3365  Tot=              5.8499
 Quadrupole moment (field-independent basis, Debye-Ang):
   XX=           -306.6652   YY=           -326.8482   ZZ=           -342.0418
   XY=              3.4723   XZ=              2.2634   YZ=             -6.1409

 Summary of Natural Population Analysis:

                                       Natural Population
                Natural  -----------------------------------------------
    Atom  No    Charge         Core      Valence    Rydberg      Total
 -----------------------------------------------------------------------
      P    1    1.05309      9.99694     3.90479    0.04518    13.94691
      P    2    1.73099      9.99584     3.18604    0.08713    13.26901
      C    3   -0.03269      1.99903     4.01750    0.01616     6.03269
      O    4   -0.75302      1.99979     6.74056    0.01267     8.75302
      C    5   -0.06092      1.99888     4.04255    0.01948     6.06092
      C    6   -0.60513      1.99937     4.59617    0.00958     6.60513
      H    7    0.22376      0.00000     0.77392    0.00232     0.77624
      H    8    0.22608      0.00000     0.77174    0.00218     0.77392
      H    9    0.21101      0.00000     0.78671    0.00228     0.78899
      O   10   -0.74810      1.99979     6.73430    0.01401     8.74810
      C   11   -0.60096      1.99936     4.59154    0.01006     6.60096
      H   12    0.22005      0.00000     0.77784    0.00210     0.77995
      H   13    0.21051      0.00000     0.78746    0.00204     0.78949
      H   14    0.21970      0.00000     0.77841    0.00190     0.78030
      C   15   -0.25769      1.99942     4.24156    0.01671     6.25769
      C   16   -0.26553      1.99941     4.24875    0.01737     6.26553
      C   17   -1.07436      1.99940     5.05641    0.01855     7.07436
      H   18    0.27020      0.00000     0.72748    0.00232     0.72980
      H   19    0.27889      0.00000     0.71917    0.00194     0.72111
      C   20   -0.06198      1.99909     4.04637    0.01652     6.06198
      C   21    0.27205      1.99855     3.70549    0.02391     5.72795
      C   22   -0.19552      1.99920     4.18141    0.01491     6.19552
      H   23    0.21896      0.00000     0.77988    0.00116     0.78104
      C   24   -0.18854      1.99920     4.17444    0.01490     6.18854
      H   25    0.21779      0.00000     0.78103    0.00118     0.78221
      C   26   -0.18610      1.99913     4.17304    0.01393     6.18610
      H   27    0.21967      0.00000     0.77850    0.00183     0.78033
      C   28   -0.60532      1.99935     4.59707    0.00889     6.60532
      H   29    0.22228      0.00000     0.77606    0.00166     0.77772
      H   30    0.20767      0.00000     0.79055    0.00178     0.79233
      H   31    0.20647      0.00000     0.79181    0.00172     0.79353
      C   32   -0.60662      1.99935     4.59731    0.00997     6.60662
      H   33    0.22067      0.00000     0.77752    0.00181     0.77933
      H   34    0.21260      0.00000     0.78572    0.00169     0.78740
      H   35    0.20626      0.00000     0.79151    0.00223     0.79374
      C   36   -0.07155      1.99894     4.05326    0.01936     6.07155
      C   37    0.27756      1.99856     3.70067    0.02321     5.72244
      C   38   -0.60023      1.99935     4.59276    0.00811     6.60023
      H   39    0.20959      0.00000     0.78875    0.00165     0.79041
      H   40    0.20736      0.00000     0.79118    0.00146     0.79264
      H   41    0.22144      0.00000     0.77689    0.00168     0.77856
      C   42   -0.17118      1.99915     4.15790    0.01414     6.17118
      H   43    0.21312      0.00000     0.78535    0.00153     0.78688
      C   44   -0.03671      1.99903     4.02122    0.01646     6.03671
      C   45   -0.18714      1.99913     4.17415    0.01386     6.18714
      H   46    0.21953      0.00000     0.77857    0.00189     0.78047
      C   47   -0.05989      1.99889     4.04200    0.01900     6.05989
      C   48   -0.18706      1.99920     4.17297    0.01489     6.18706
      H   49    0.21753      0.00000     0.78129    0.00118     0.78247
      C   50   -0.06438      1.99909     4.04876    0.01653     6.06438
      C   51   -0.17234      1.99915     4.15902    0.01417     6.17234
      H   52    0.21310      0.00000     0.78537    0.00153     0.78690
      C   53   -0.13966      1.99905     4.12791    0.01270     6.13966
      H   54    0.21597      0.00000     0.78196    0.00207     0.78403
      C   55   -0.06921      1.99894     4.05105    0.01923     6.06921
      C   56   -0.19576      1.99920     4.18165    0.01491     6.19576
      H   57    0.21885      0.00000     0.78000    0.00116     0.78115
      C   58   -0.14222      1.99905     4.13066    0.01251     6.14222
      H   59    0.21598      0.00000     0.78185    0.00216     0.78402
      C   60   -0.60366      1.99935     4.59603    0.00828     6.60366
      H   61    0.22236      0.00000     0.77582    0.00182     0.77764
      H   62    0.20562      0.00000     0.79286    0.00152     0.79438
      H   63    0.20909      0.00000     0.78916    0.00175     0.79091
     Rh   64   -0.38942     35.98515     9.37695    0.02732    45.38942
      C   65   -0.16358      1.99909     4.14449    0.02001     6.16358
      C   66   -0.16912      1.99910     4.14925    0.02077     6.16912
      C   67   -0.20155      1.99908     4.18270    0.01977     6.20155
      C   68   -0.14892      1.99910     4.13016    0.01966     6.14892
      C   69   -0.42821      1.99935     4.41681    0.01205     6.42821
      H   70    0.22155      0.00000     0.77613    0.00232     0.77845
      H   71    0.22638      0.00000     0.77148    0.00214     0.77362
      C   72   -0.42182      1.99935     4.40958    0.01290     6.42182
      C   73   -0.42131      1.99935     4.41008    0.01188     6.42131
      H   74    0.22869      0.00000     0.76914    0.00217     0.77131
      C   75   -0.41833      1.99934     4.40646    0.01253     6.41833
      H   76    0.23671      0.00000     0.76037    0.00292     0.76329
      H   77    0.22906      0.00000     0.76946    0.00148     0.77094
      H   78    0.21736      0.00000     0.78071    0.00193     0.78264
      H   79    0.23557      0.00000     0.76257    0.00186     0.76443
      H   80    0.21956      0.00000     0.77841    0.00203     0.78044
      H   81    0.21467      0.00000     0.78334    0.00199     0.78533
      H   82    0.22987      0.00000     0.76858    0.00155     0.77013
      H   83    0.22032      0.00000     0.77796    0.00172     0.77968
      H   84    0.23410      0.00000     0.76400    0.00190     0.76590
      C   85   -0.06972      1.99889     4.05197    0.01887     6.06972
      C   86    0.00197      1.99905     3.98355    0.01543     5.99803
      C   87    0.02388      1.99906     3.96152    0.01555     5.97612
      C   88   -0.21797      1.99901     4.20522    0.01374     6.21797
      C   89   -0.21079      1.99902     4.19845    0.01333     6.21079
      C   90    0.00388      1.99911     3.98289    0.01411     5.99612
      H   91    0.20289      0.00000     0.79519    0.00191     0.79711
      H   92    0.20323      0.00000     0.79478    0.00200     0.79677
      C   93   -0.06888      1.99889     4.05112    0.01888     6.06888
      C   94    0.00926      1.99906     3.97636    0.01531     5.99074
      C   95    0.02570      1.99906     3.95992    0.01533     5.97430
      C   96   -0.21450      1.99901     4.20185    0.01364     6.21450
      C   97   -0.21202      1.99902     4.19965    0.01335     6.21202
      C   98    0.00463      1.99911     3.98220    0.01406     5.99537
      H   99    0.20130      0.00000     0.79689    0.00182     0.79870
      H  100    0.20323      0.00000     0.79474    0.00203     0.79677
      C  101   -0.62174      1.99940     4.61435    0.00799     6.62174
      H  102    0.21210      0.00000     0.78657    0.00133     0.78790
      H  103    0.22554      0.00000     0.77295    0.00151     0.77446
      H  104    0.21047      0.00000     0.78768    0.00185     0.78953
      C  105   -0.61392      1.99941     4.60755    0.00696     6.61392
      H  106    0.21350      0.00000     0.78523    0.00127     0.78650
      H  107    0.22493      0.00000     0.77370    0.00137     0.77507
      H  108    0.21155      0.00000     0.78722    0.00123     0.78845
      C  109   -0.61875      1.99940     4.61126    0.00809     6.61875
      H  110    0.21650      0.00000     0.78177    0.00173     0.78350
      H  111    0.22242      0.00000     0.77613    0.00145     0.77758
      H  112    0.21453      0.00000     0.78427    0.00119     0.78547
      C  113   -0.62096      1.99940     4.61323    0.00834     6.62096
      H  114    0.21863      0.00000     0.77944    0.00193     0.78137
      H  115    0.21878      0.00000     0.77961    0.00160     0.78122
      H  116    0.21588      0.00000     0.78288    0.00123     0.78412
      C  117   -0.61381      1.99941     4.60755    0.00685     6.61381
      H  118    0.21294      0.00000     0.78581    0.00125     0.78706
      H  119    0.22424      0.00000     0.77438    0.00138     0.77576
      H  120    0.21240      0.00000     0.78640    0.00120     0.78760
      C  121   -0.61284      1.99940     4.60495    0.00849     6.61284
      H  122    0.20904      0.00000     0.78947    0.00149     0.79096
      H  123    0.22089      0.00000     0.77759    0.00152     0.77911
      H  124    0.20771      0.00000     0.79045    0.00184     0.79229
 =======================================================================
   * Total *    1.00000    169.93079   312.97501    1.09420   484.00000

 Normal termination of Gaussian 16 at Wed Jan 22 03:17:54 2025.
