 Gaussian 16, Revision B.01,
 Gaussian 16:  ES64L-G16RevB.01 20-Dec-2017

 ------------------------------------------
 # nmr=giao b3lyp/genecp pop=nbo scfcyc=200
 ------------------------------------------

 ----------
 MB-115_SPE
 ----------
 Symbolic Z-matrix:
 Charge =  1 Multiplicity = 1

                         Standard orientation:
 ---------------------------------------------------------------------
 Center     Atomic      Atomic             Coordinates (Angstroms)
 Number     Number       Type             X           Y           Z
 ---------------------------------------------------------------------
      1         15           0       -0.299078    1.411980   -0.003640
      2         15           0       -0.439013   -1.362040    0.014520
      3          6           0        0.123693    2.135489   -1.681760
      4          1           0        0.294722    1.276509   -2.333100
      5          1           0       -0.771246    2.643151   -2.047420
      6          6           0       -0.125654   -2.167090   -1.651040
      7          1           0        0.054857   -1.340760   -2.340550
      8          1           0       -1.061355   -2.640299   -1.956740
      9          6           0       -1.561200    0.082522   -0.377070
     10          1           0       -1.981740    0.097033   -1.383190
     11          1           0       -2.389770    0.130834    0.328640
     12          6           0       -1.440905   -2.605348    1.011850
     13          1           0       -1.459694   -2.203048    2.025640
     14          1           0       -0.832036   -3.511479    1.043290
     15          6           0       -1.175986    2.786962    0.937430
     16          1           0       -0.508184    3.649461    0.878950
     17          1           0       -1.183996    2.462332    1.978540
     18         45           0        1.205670   -0.048762    1.074530
     19          6           0        2.947372    1.299895    1.682760
     20          6           0        1.961962    1.386816    2.642880
     21          6           0        2.012307   -1.534214    2.614520
     22          6           0        2.783017   -1.615575    1.474850
     23          6           0        4.223701    0.489763    1.802570
     24          1           0        2.944973    2.054615    0.904330
     25          1           0        1.290233    2.236757    2.583460
     26          6           0        1.909041    0.647606    3.957460
     27          6           0        2.399928   -0.814364    3.893090
     28          1           0        1.207526   -2.254222    2.714230
     29          6           0        4.109838   -0.941457    1.232890
     30          1           0        2.547336   -2.403105    0.767040
     31          1           0        5.014401    1.012741    1.261980
     32          1           0        4.543240    0.459472    2.844130
     33          1           0        2.482912    1.198115    4.713630
     34          1           0        0.873191    0.660668    4.303850
     35          1           0        3.481158   -0.857536    4.022350
     36          1           0        1.975927   -1.358144    4.739010
     37          1           0        4.269898   -0.911188    0.153100
     38          1           0        4.918427   -1.564609    1.635350
     39          6           0        1.325695    3.044797   -1.694050
     40          6           0        2.606454    2.527645   -1.904350
     41          6           0        1.202267    4.423738   -1.511630
     42          6           0        3.719615    3.358263   -1.929370
     43          1           0        2.734892    1.461945   -2.058110
     44          6           0        2.318429    5.252646   -1.532470
     45          1           0        0.224018    4.867139   -1.369380
     46          6           0        3.598658    4.738004   -1.743610
     47          1           0        4.699265    2.928912   -2.106760
     48          1           0        2.188390    6.319646   -1.392650
     49          6           0       -2.570115    3.123724    0.481290
     50          6           0       -2.813394    4.030924   -0.553700
     51          6           0       -3.675726    2.543126    1.109410
     52          6           0       -4.109713    4.331647   -0.952810
     53          1           0       -1.986683    4.534713   -1.039250
     54          6           0       -4.971046    2.846748    0.708980
     55          1           0       -3.525157    1.867636    1.944860
     56          6           0       -5.214594    3.740978   -0.335380
     57          1           0       -4.264992    5.050237   -1.749380
     58          1           0       -5.807336    2.392449    1.227860
     59          6           0       -2.837545   -2.884506    0.525570
     60          6           0       -3.921304   -2.169764    1.043890
     61          6           0       -3.105067   -3.862545   -0.436580
     62          6           0       -5.217474   -2.413662    0.607510
     63          1           0       -3.755203   -1.427594    1.817330
     64          6           0       -4.402277   -4.103733   -0.871660
     65          1           0       -2.298528   -4.462006   -0.840970
     66          6           0       -5.484456   -3.383601   -0.360820
     67          1           0       -6.036943   -1.847290    1.034960
     68          1           0       -4.576879   -4.873383   -1.614750
     69          6           0        1.031854   -3.131602   -1.691210
     70          6           0        2.289105   -2.709084   -2.129330
     71          6           0        0.891522   -4.468112   -1.309540
     72          6           0        3.364164   -3.587736   -2.181120
     73          1           0        2.428407   -1.681304   -2.445800
     74          6           0        1.969691   -5.344414   -1.357550
     75          1           0       -0.071589   -4.842850   -0.984640
     76          6           0        3.226791   -4.923576   -1.796160
     77          1           0        4.324364   -3.232018   -2.537270
     78          1           0        1.826699   -6.376733   -1.059390
     79          6           0        4.800889    5.642652   -1.811520
     80          1           0        4.962340    5.997231   -2.833650
     81          1           0        4.675161    6.521762   -1.178240
     82          1           0        5.708848    5.125020   -1.499340
     83          6           0       -6.617393    4.053291   -0.785430
     84          1           0       -6.699072    5.076731   -1.153680
     85          1           0       -6.922845    3.388701   -1.599050
     86          1           0       -7.334054    3.926682    0.026820
     87          6           0       -6.893227   -3.675329   -0.806090
     88          1           0       -6.923137   -4.002389   -1.846270
     89          1           0       -7.334588   -4.472458   -0.200790
     90          1           0       -7.533095   -2.797738   -0.706450
     91          6           0        4.380850   -5.886538   -1.892000
     92          1           0        4.384259   -6.392258   -2.861920
     93          1           0        5.338351   -5.374589   -1.788420
     94          1           0        4.321948   -6.658228   -1.123300
 ---------------------------------------------------------------------

 SCF Done:  E(RB3LYP) =  -2386.25505008     A.U. after   16 cycles

      1  P    Isotropic =   316.2820   Anisotropy =    69.4361

      2  P    Isotropic =   317.3257   Anisotropy =    66.7799

      3  C    Isotropic =   144.7809   Anisotropy =    40.8723

      4  H    Isotropic =    29.2044   Anisotropy =     4.6934

      5  H    Isotropic =    28.3452   Anisotropy =     6.8760

      6  C    Isotropic =   145.0827   Anisotropy =    41.7232

      7  H    Isotropic =    29.4059   Anisotropy =     4.4445

      8  H    Isotropic =    28.2292   Anisotropy =     6.9171

      9  C    Isotropic =   142.3551   Anisotropy =    44.6287

     10  H    Isotropic =    30.6109   Anisotropy =     5.8938

     11  H    Isotropic =    28.7650   Anisotropy =     7.6523

     12  C    Isotropic =   147.1836   Anisotropy =    36.1101

     13  H    Isotropic =    29.0295   Anisotropy =     4.7073

     14  H    Isotropic =    28.5653   Anisotropy =     5.5764

     15  C    Isotropic =   148.8318   Anisotropy =    35.9281

     16  H    Isotropic =    28.6212   Anisotropy =     5.8162

     17  H    Isotropic =    29.0464   Anisotropy =     5.1725

     18  Rh   Isotropic =  -310.3985   Anisotropy =   340.2268

     19  C    Isotropic =    78.9804   Anisotropy =   123.2045

     20  C    Isotropic =    76.6497   Anisotropy =   115.7502

     21  C    Isotropic =    77.9594   Anisotropy =   122.4968

     22  C    Isotropic =    77.8273   Anisotropy =   117.8855

     23  C    Isotropic =   154.5175   Anisotropy =    23.7844

     24  H    Isotropic =    27.9267   Anisotropy =     9.7626

     25  H    Isotropic =    26.8275   Anisotropy =     3.3018

     26  C    Isotropic =   147.6005   Anisotropy =    30.6810

     27  C    Isotropic =   154.0748   Anisotropy =    25.4806

     28  H    Isotropic =    27.2197   Anisotropy =     5.8847

     29  C    Isotropic =   148.5029   Anisotropy =    28.8504

     30  H    Isotropic =    27.8124   Anisotropy =     9.4830

     31  H    Isotropic =    30.1504   Anisotropy =    10.7011

     32  H    Isotropic =    30.0925   Anisotropy =     9.6563

     33  H    Isotropic =    29.3444   Anisotropy =    12.6677

     34  H    Isotropic =    29.2876   Anisotropy =     7.9955

     35  H    Isotropic =    30.0192   Anisotropy =     9.2112

     36  H    Isotropic =    30.0621   Anisotropy =    11.6301

     37  H    Isotropic =    29.4045   Anisotropy =     6.7523

     38  H    Isotropic =    29.4846   Anisotropy =    11.6245

     39  C    Isotropic =    49.1132   Anisotropy =   181.5874

     40  C    Isotropic =    48.8243   Anisotropy =   165.3926

     41  C    Isotropic =    50.3573   Anisotropy =   165.4024

     42  C    Isotropic =    48.7812   Anisotropy =   166.8639

     43  H    Isotropic =    24.1772   Anisotropy =     7.7798

     44  C    Isotropic =    48.6479   Anisotropy =   168.3049

     45  H    Isotropic =    24.3607   Anisotropy =     9.3010

     46  C    Isotropic =    35.8038   Anisotropy =   207.0773

     47  H    Isotropic =    24.3158   Anisotropy =     8.3455

     48  H    Isotropic =    24.3694   Anisotropy =     7.3083

     49  C    Isotropic =    50.1273   Anisotropy =   178.8724

     50  C    Isotropic =    50.4894   Anisotropy =   165.3548

     51  C    Isotropic =    48.9431   Anisotropy =   159.9637

     52  C    Isotropic =    48.2034   Anisotropy =   169.2849

     53  H    Isotropic =    24.3681   Anisotropy =     9.6240

     54  C    Isotropic =    48.3856   Anisotropy =   167.2094

     55  H    Isotropic =    24.6491   Anisotropy =     9.1548

     56  C    Isotropic =    35.8002   Anisotropy =   207.6761

     57  H    Isotropic =    24.3572   Anisotropy =     7.7119

     58  H    Isotropic =    24.3294   Anisotropy =     7.6955

     59  C    Isotropic =    50.8112   Anisotropy =   178.0174

     60  C    Isotropic =    48.8537   Anisotropy =   160.4062

     61  C    Isotropic =    50.4895   Anisotropy =   165.3300

     62  C    Isotropic =    48.3213   Anisotropy =   167.2382

     63  H    Isotropic =    24.6803   Anisotropy =     9.1378

     64  C    Isotropic =    48.3543   Anisotropy =   169.1706

     65  H    Isotropic =    24.3869   Anisotropy =     9.5169

     66  C    Isotropic =    35.5391   Anisotropy =   207.9484

     67  H    Isotropic =    24.3803   Anisotropy =     7.9995

     68  H    Isotropic =    24.3690   Anisotropy =     7.8266

     69  C    Isotropic =    47.8452   Anisotropy =   183.5665

     70  C    Isotropic =    48.9907   Anisotropy =   161.8752

     71  C    Isotropic =    51.1031   Anisotropy =   167.1839

     72  C    Isotropic =    48.4312   Anisotropy =   167.4880

     73  H    Isotropic =    24.2354   Anisotropy =     7.8675

     74  C    Isotropic =    48.3865   Anisotropy =   169.4180

     75  H    Isotropic =    24.3501   Anisotropy =     9.3941

     76  C    Isotropic =    35.5681   Anisotropy =   207.6474

     77  H    Isotropic =    24.2641   Anisotropy =     7.7505

     78  H    Isotropic =    24.3246   Anisotropy =     7.4314

     79  C    Isotropic =   162.3011   Anisotropy =    42.3451

     80  H    Isotropic =    29.1993   Anisotropy =     9.8755

     81  H    Isotropic =    29.5361   Anisotropy =     8.0926

     82  H    Isotropic =    29.6075   Anisotropy =     7.2499

     83  C    Isotropic =   162.1941   Anisotropy =    42.2763

     84  H    Isotropic =    29.5044   Anisotropy =     8.8560

     85  H    Isotropic =    29.3340   Anisotropy =     8.1570

     86  H    Isotropic =    29.5687   Anisotropy =     7.9430

     87  C    Isotropic =   162.3616   Anisotropy =    42.1264

     88  H    Isotropic =    29.5757   Anisotropy =     7.9409

     89  H    Isotropic =    29.2179   Anisotropy =     9.7178

     90  H    Isotropic =    29.6489   Anisotropy =     7.5083

     91  C    Isotropic =   162.3265   Anisotropy =    42.2559

     92  H    Isotropic =    29.1729   Anisotropy =     9.9547

     93  H    Isotropic =    29.5712   Anisotropy =     7.3572

     94  H    Isotropic =    29.5088   Anisotropy =     7.9335

 The electronic state is 1-A.
 Alpha  occ. eigenvalues --  -77.23026 -77.23020 -10.29549 -10.29419 -10.29386
 Alpha  occ. eigenvalues --  -10.29373 -10.29345 -10.28721 -10.28600 -10.28353
 Alpha  occ. eigenvalues --  -10.28188 -10.27982 -10.27975 -10.27954 -10.27922
 Alpha  occ. eigenvalues --  -10.27223 -10.27042 -10.26978 -10.26948 -10.26878
 Alpha  occ. eigenvalues --  -10.26840 -10.26828 -10.26804 -10.26593 -10.26522
 Alpha  occ. eigenvalues --  -10.26514 -10.26508 -10.26505 -10.26486 -10.26472
 Alpha  occ. eigenvalues --  -10.26459 -10.25990 -10.25948 -10.25943 -10.25880
 Alpha  occ. eigenvalues --  -10.25847 -10.25838 -10.25832 -10.25803 -10.24337
 Alpha  occ. eigenvalues --  -10.24279 -10.24223 -10.24192  -6.69028  -6.69022
 Alpha  occ. eigenvalues --   -4.85318  -4.85312  -4.85229  -4.85223  -4.84923
 Alpha  occ. eigenvalues --   -4.84916  -3.31080  -2.07984  -2.07299  -2.04530
 Alpha  occ. eigenvalues --   -0.95745  -0.95650  -0.95417  -0.95399  -0.94012
 Alpha  occ. eigenvalues --   -0.90790  -0.89522  -0.88712  -0.88155  -0.88117
 Alpha  occ. eigenvalues --   -0.87601  -0.86195  -0.83786  -0.83741  -0.83668
 Alpha  occ. eigenvalues --   -0.83651  -0.83437  -0.81403  -0.81303  -0.81079
 Alpha  occ. eigenvalues --   -0.79897  -0.77406  -0.76224  -0.75402  -0.74854
 Alpha  occ. eigenvalues --   -0.74794  -0.70332  -0.70287  -0.70151  -0.69954
 Alpha  occ. eigenvalues --   -0.69913  -0.68293  -0.67664  -0.66822  -0.66746
 Alpha  occ. eigenvalues --   -0.65569  -0.65441  -0.65358  -0.62022  -0.59733
 Alpha  occ. eigenvalues --   -0.59356  -0.59285  -0.58660  -0.58341  -0.57922
 Alpha  occ. eigenvalues --   -0.57467  -0.57175  -0.56780  -0.56486  -0.55832
 Alpha  occ. eigenvalues --   -0.55128  -0.54848  -0.54746  -0.54363  -0.54269
 Alpha  occ. eigenvalues --   -0.54154  -0.53249  -0.52557  -0.52225  -0.52116
 Alpha  occ. eigenvalues --   -0.51598  -0.51510  -0.51286  -0.51068  -0.50821
 Alpha  occ. eigenvalues --   -0.50750  -0.50343  -0.50207  -0.50128  -0.50023
 Alpha  occ. eigenvalues --   -0.49952  -0.49882  -0.49771  -0.49654  -0.49431
 Alpha  occ. eigenvalues --   -0.48064  -0.47814  -0.47563  -0.47296  -0.46417
 Alpha  occ. eigenvalues --   -0.46294  -0.46095  -0.46083  -0.45972  -0.45625
 Alpha  occ. eigenvalues --   -0.45350  -0.44397  -0.44135  -0.43826  -0.43708
 Alpha  occ. eigenvalues --   -0.43600  -0.43133  -0.43095  -0.43069  -0.42951
 Alpha  occ. eigenvalues --   -0.42809  -0.42533  -0.42518  -0.42457  -0.42063
 Alpha  occ. eigenvalues --   -0.41678  -0.40787  -0.36854  -0.36155  -0.35019
 Alpha  occ. eigenvalues --   -0.34670  -0.34576  -0.34562  -0.34433  -0.34397
 Alpha  occ. eigenvalues --   -0.33432  -0.33004  -0.32919  -0.32425  -0.32360
 Alpha  occ. eigenvalues --   -0.30304
 Alpha virt. eigenvalues --   -0.15989  -0.13871  -0.10925  -0.10775  -0.10499
 Alpha virt. eigenvalues --   -0.10358  -0.10348  -0.10282  -0.10186  -0.09419
 Alpha virt. eigenvalues --   -0.08869  -0.07860  -0.07575  -0.06836  -0.06290

 Mulliken charges:
               1
     1  P    0.422187
     2  P    0.435949
     3  C   -0.555032
     4  H    0.186462
     5  H    0.219748
     6  C   -0.547727
     7  H    0.188038
     8  H    0.223308
     9  C   -0.527520
    10  H    0.208932
    11  H    0.183007
    12  C   -0.586974
    13  H    0.207404
    14  H    0.206877
    15  C   -0.579587
    16  H    0.214477
    17  H    0.203877
    18  Rh  -0.537641
    19  C   -0.008479
    20  C   -0.121051
    21  C   -0.025582
    22  C   -0.086141
    23  C   -0.367361
    24  H    0.227603
    25  H    0.190287
    26  C   -0.215830
    27  C   -0.341662
    28  H    0.178406
    29  C   -0.239223
    30  H    0.222556
    31  H    0.166246
    32  H    0.165626
    33  H    0.170018
    34  H    0.126216
    35  H    0.167208
    36  H    0.166823
    37  H    0.132152
    38  H    0.168585
    39  C    0.057504
    40  C   -0.109011
    41  C   -0.071051
    42  C   -0.141872
    43  H    0.111391
    44  C   -0.138788
    45  H    0.135362
    46  C    0.093944
    47  H    0.119541
    48  H    0.121676
    49  C    0.124682
    50  C   -0.103813
    51  C   -0.162736
    52  C   -0.129147
    53  H    0.138842
    54  C   -0.117196
    55  H    0.124008
    56  C    0.084605
    57  H    0.123568
    58  H    0.120870
    59  C    0.146605
    60  C   -0.157099
    61  C   -0.110213
    62  C   -0.122610
    63  H    0.121420
    64  C   -0.124920
    65  H    0.138565
    66  C    0.079590
    67  H    0.119834
    68  H    0.122901
    69  C    0.033975
    70  C   -0.100713
    71  C   -0.050584
    72  C   -0.155226
    73  H    0.118744
    74  C   -0.147931
    75  H    0.126929
    76  C    0.098083
    77  H    0.121044
    78  H    0.121865
    79  C   -0.432344
    80  H    0.157001
    81  H    0.139373
    82  H    0.133733
    83  C   -0.434075
    84  H    0.142075
    85  H    0.149651
    86  H    0.139535
    87  C   -0.429157
    88  H    0.138675
    89  H    0.156550
    90  H    0.134836
    91  C   -0.431214
    92  H    0.157579
    93  H    0.134410
    94  H    0.138549
 Sum of Mulliken charges =   1.00000

 Dipole moment (field-independent basis, Debye):
    X=              0.1122    Y=             -0.1178    Z=              0.7325  Tot=              0.7503
 Quadrupole moment (field-independent basis, Debye-Ang):
   XX=           -212.3911   YY=           -230.8521   ZZ=           -272.9199
   XY=             -0.6036   XZ=              3.6336   YZ=             -1.0999

 Summary of Natural Population Analysis:

                                       Natural Population
                Natural  -----------------------------------------------
    Atom  No    Charge         Core      Valence    Rydberg      Total
 -----------------------------------------------------------------------
      P    1    1.10452      9.99678     3.85028    0.04841    13.89548
      P    2    1.10417      9.99678     3.85062    0.04843    13.89583
      C    3   -0.67797      1.99932     4.66354    0.01511     6.67797
      H    4    0.23398      0.00000     0.76386    0.00216     0.76602
      H    5    0.24396      0.00000     0.75303    0.00301     0.75604
      C    6   -0.67965      1.99931     4.66523    0.01511     6.67965
      H    7    0.23344      0.00000     0.76439    0.00217     0.76656
      H    8    0.24673      0.00000     0.75021    0.00306     0.75327
      C    9   -0.99677      1.99943     4.97968    0.01766     6.99677
      H   10    0.25743      0.00000     0.74053    0.00204     0.74257
      H   11    0.27029      0.00000     0.72743    0.00228     0.72971
      C   12   -0.67435      1.99931     4.66185    0.01318     6.67435
      H   13    0.24077      0.00000     0.75723    0.00200     0.75923
      H   14    0.24474      0.00000     0.75268    0.00258     0.75526
      C   15   -0.67648      1.99931     4.66404    0.01312     6.67648
      H   16    0.24750      0.00000     0.74985    0.00265     0.75250
      H   17    0.23944      0.00000     0.75857    0.00199     0.76056
     Rh   18   -0.40435     35.98588     9.39413    0.02433    45.40435
      C   19   -0.18164      1.99907     4.16271    0.01986     6.18164
      C   20   -0.15687      1.99908     4.13781    0.01998     6.15687
      C   21   -0.16679      1.99907     4.14834    0.01937     6.16679
      C   22   -0.17043      1.99910     4.15035    0.02098     6.17043
      C   23   -0.42333      1.99936     4.41213    0.01184     6.42333
      H   24    0.23753      0.00000     0.76017    0.00230     0.76247
      H   25    0.22060      0.00000     0.77760    0.00179     0.77940
      C   26   -0.41799      1.99935     4.40592    0.01273     6.41799
      C   27   -0.42427      1.99936     4.41287    0.01204     6.42427
      H   28    0.22101      0.00000     0.77718    0.00181     0.77899
      C   29   -0.41888      1.99935     4.40634    0.01319     6.41888
      H   30    0.23784      0.00000     0.75959    0.00257     0.76216
      H   31    0.22726      0.00000     0.77128    0.00146     0.77274
      H   32    0.21317      0.00000     0.78490    0.00194     0.78683
      H   33    0.23231      0.00000     0.76586    0.00182     0.76769
      H   34    0.21402      0.00000     0.78445    0.00153     0.78598
      H   35    0.21460      0.00000     0.78350    0.00190     0.78540
      H   36    0.22726      0.00000     0.77133    0.00141     0.77274
      H   37    0.21608      0.00000     0.78201    0.00190     0.78392
      H   38    0.23240      0.00000     0.76581    0.00179     0.76760
      C   39   -0.06212      1.99909     4.04384    0.01919     6.06212
      C   40   -0.19491      1.99910     4.18137    0.01444     6.19491
      C   41   -0.19776      1.99910     4.18450    0.01415     6.19776
      C   42   -0.19657      1.99910     4.18341    0.01406     6.19657
      H   43    0.20644      0.00000     0.79186    0.00170     0.79356
      C   44   -0.19160      1.99911     4.17884    0.01365     6.19160
      H   45    0.20151      0.00000     0.79677    0.00172     0.79849
      C   46   -0.00369      1.99913     3.99036    0.01420     6.00369
      H   47    0.20990      0.00000     0.78847    0.00163     0.79010
      H   48    0.21436      0.00000     0.78425    0.00139     0.78564
      C   49   -0.06204      1.99909     4.04322    0.01973     6.06204
      C   50   -0.20050      1.99909     4.18700    0.01441     6.20050
      C   51   -0.20062      1.99910     4.18706    0.01446     6.20062
      C   52   -0.18944      1.99911     4.17680    0.01352     6.18944
      H   53    0.20090      0.00000     0.79733    0.00177     0.79910
      C   54   -0.19186      1.99911     4.17908    0.01367     6.19186
      H   55    0.20129      0.00000     0.79707    0.00165     0.79871
      C   56   -0.00261      1.99913     3.98920    0.01427     6.00261
      H   57    0.21406      0.00000     0.78454    0.00141     0.78594
      H   58    0.21184      0.00000     0.78671    0.00145     0.78816
      C   59   -0.06357      1.99909     4.04478    0.01970     6.06357
      C   60   -0.19885      1.99910     4.18532    0.01442     6.19885
      C   61   -0.20104      1.99909     4.18758    0.01437     6.20104
      C   62   -0.19186      1.99911     4.17908    0.01367     6.19186
      H   63    0.20077      0.00000     0.79753    0.00170     0.79923
      C   64   -0.18988      1.99911     4.17722    0.01354     6.18988
      H   65    0.20156      0.00000     0.79668    0.00176     0.79844
      C   66   -0.00221      1.99913     3.98880    0.01428     6.00221
      H   67    0.21194      0.00000     0.78662    0.00145     0.78806
      H   68    0.21419      0.00000     0.78441    0.00140     0.78581
      C   69   -0.06014      1.99909     4.04199    0.01906     6.06014
      C   70   -0.19499      1.99910     4.18107    0.01481     6.19499
      C   71   -0.20094      1.99909     4.18782    0.01403     6.20094
      C   72   -0.19595      1.99911     4.18321    0.01364     6.19595
      H   73    0.20457      0.00000     0.79370    0.00174     0.79543
      C   74   -0.19137      1.99911     4.17864    0.01361     6.19137
      H   75    0.20101      0.00000     0.79724    0.00175     0.79899
      C   76   -0.00475      1.99913     3.99129    0.01433     6.00475
      H   77    0.21238      0.00000     0.78616    0.00146     0.78762
      H   78    0.21429      0.00000     0.78429    0.00142     0.78571
      C   79   -0.61595      1.99941     4.60943    0.00711     6.61595
      H   80    0.22583      0.00000     0.77278    0.00139     0.77417
      H   81    0.21847      0.00000     0.78027    0.00126     0.78153
      H   82    0.21597      0.00000     0.78285    0.00118     0.78403
      C   83   -0.61575      1.99941     4.60915    0.00719     6.61575
      H   84    0.22003      0.00000     0.77870    0.00127     0.77997
      H   85    0.22194      0.00000     0.77666    0.00140     0.77806
      H   86    0.21798      0.00000     0.78075    0.00127     0.78202
      C   87   -0.61611      1.99941     4.60949    0.00721     6.61611
      H   88    0.21847      0.00000     0.78027    0.00126     0.78153
      H   89    0.22563      0.00000     0.77297    0.00140     0.77437
      H   90    0.21632      0.00000     0.78241    0.00127     0.78368
      C   91   -0.61625      1.99941     4.60961    0.00723     6.61625
      H   92    0.22610      0.00000     0.77250    0.00140     0.77390
      H   93    0.21604      0.00000     0.78269    0.00127     0.78396
      H   94    0.21825      0.00000     0.78049    0.00126     0.78175
 =======================================================================
   * Total *    1.00000    137.94609   231.25345    0.80047   370.00000

 Normal termination of Gaussian 16 at Wed Jan 22 00:03:03 2025.
