 Gaussian 16, Revision B.01,
 Gaussian 16:  ES64L-G16RevB.01 20-Dec-2017

 ------------------------------------------
 # nmr=giao b3lyp/genecp pop=nbo scfcyc=200
 ------------------------------------------

 -------------
 Ligand 31 SPE
 -------------
 Symbolic Z-matrix:
 Charge =  1 Multiplicity = 1

                         Standard orientation:
 ---------------------------------------------------------------------
 Center     Atomic      Atomic             Coordinates (Angstroms)
 Number     Number       Type             X           Y           Z
 ---------------------------------------------------------------------
      1         15           0       -0.729081    1.208429   -0.820591
      2         15           0        0.729560   -1.206070   -0.822541
      3          6           0       -2.498042    1.586758   -1.451111
      4          1           0       -2.692911    0.782748   -2.162111
      5          6           0       -2.383752    2.935288   -2.213781
      6          1           0       -2.754263    3.742658   -1.582481
      7          1           0       -3.023902    2.915358   -3.097111
      8          6           0       -0.926243    3.221569   -2.581411
      9          1           0       -0.621652    2.600779   -3.427541
     10          1           0       -0.790193    4.261279   -2.887021
     11          6           0       -0.066932    2.906560   -1.346531
     12          1           0       -0.388373    3.565819   -0.533661
     13          6           0        0.000260    0.002210   -2.056811
     14          1           0       -0.760500   -0.455471   -2.689531
     15          1           0        0.761159    0.461000   -2.688561
     16          6           0        2.498571   -1.583029   -1.453501
     17          1           0        2.693920   -0.777149   -2.162221
     18          6           0        2.384352   -2.929599   -2.219751
     19          1           0        2.755552   -3.738458   -1.590781
     20          1           0        3.024002   -2.907048   -3.103371
     21          6           0        0.926752   -3.215490   -2.587441
     22          1           0        0.621711   -2.593000   -3.432161
     23          1           0        0.790883   -4.254580   -2.895221
     24          6           0        0.067702   -2.903300   -1.351641
     25          1           0        0.389602   -3.564140   -0.540241
     26          6           0       -3.582111    1.538977   -0.397701
     27          6           0       -3.805902    2.594867    0.492649
     28          1           0       -3.194353    3.488177    0.450739
     29          6           0       -4.818722    2.526506    1.443679
     30          1           0       -4.978443    3.359236    2.117359
     31          6           0       -5.628941    1.398516    1.524689
     32          1           0       -6.424141    1.349685    2.257759
     33          6           0       -5.414591    0.339616    0.648719
     34          1           0       -6.044760   -0.539905    0.695749
     35          6           0       -4.401391    0.410717   -0.301501
     36          1           0       -4.250470   -0.419773   -0.980981
     37          6           0        1.429697    3.039091   -1.483251
     38          6           0        2.198127    3.356621   -0.357311
     39          1           0        1.708497    3.488141    0.600789
     40          6           0        3.572997    3.528502   -0.450941
     41          1           0        4.143367    3.790992    0.431469
     42          6           0        4.213887    3.383233   -1.678421
     43          1           0        5.283357    3.532333   -1.757721
     44          6           0        3.465737    3.065192   -2.805641
     45          1           0        3.950788    2.967112   -3.769011
     46          6           0        2.086528    2.895481   -2.709471
     47          1           0        1.525248    2.685421   -3.610761
     48          6           0        3.582161   -1.538368   -0.399461
     49          6           0        3.804791   -2.596508    0.488519
     50          1           0        3.192692   -3.489328    0.444139
     51          6           0        4.817151   -2.531067    1.440229
     52          1           0        4.975972   -3.365487    2.112029
     53          6           0        5.628071   -1.403786    1.524319
     54          1           0        6.422921   -1.357206    2.257909
     55          6           0        5.414870   -0.342687    0.650749
     56          1           0        6.045599    0.536304    0.700179
     57          6           0        4.402110   -0.410877   -0.300171
     58          1           0        4.252039    0.421333   -0.977741
     59          6           0       -1.428918   -3.036101   -1.488241
     60          6           0       -2.196928   -3.356232   -0.362751
     61          1           0       -1.707018   -3.489472    0.594959
     62          6           0       -3.571748   -3.528543   -0.456391
     63          1           0       -4.141778   -3.793063    0.425629
     64          6           0       -4.212998   -3.381103   -1.683421
     65          1           0       -5.282418   -3.530544   -1.762761
     66          6           0       -3.465268   -3.060443   -2.810181
     67          1           0       -3.950598   -2.960633   -3.773231
     68          6           0       -2.086108   -2.890312   -2.714001
     69          1           0       -1.525159   -2.678171   -3.615021
     70         45           0       -0.000150   -0.000600    1.087309
     71          6           0        0.445541   -1.501600    2.751169
     72          6           0        1.520280   -0.648789    2.607209
     73          6           0       -0.446651    1.496699    2.754119
     74          6           0       -1.521321    0.644149    2.607939
     75          1           0        0.502671   -2.451140    2.229819
     76          6           0       -0.605319   -1.416891    3.841029
     77          1           0        2.349160   -0.995029    2.001579
     78          6           0        1.832409    0.564871    3.445939
     79          6           0        0.603899    1.409860    3.844139
     80          1           0       -0.503872    2.447419    2.234959
     81          1           0       -2.350041    0.991788    2.002909
     82          6           0       -1.833770   -0.571542    3.443589
     83          1           0       -0.154360   -1.028460    4.754249
     84          1           0       -0.942889   -2.426681    4.080629
     85          1           0        2.379709    0.255361    4.345349
     86          1           0        2.525839    1.185971    2.875629
     87          1           0        0.941628    2.419200    4.085449
     88          1           0        0.152509    1.020140    4.756599
     89          1           0       -2.382200   -0.264342    4.343119
     90          1           0       -2.526350   -1.191632    2.871109
 ---------------------------------------------------------------------

 SCF Done:  E(RB3LYP) =  -2383.80516367     A.U. after   15 cycles

      1  P    Isotropic =   289.4138   Anisotropy =   141.2121

      2  P    Isotropic =   289.4326   Anisotropy =   141.2067

      3  C    Isotropic =   122.2033   Anisotropy =    31.3636

      4  H    Isotropic =    29.1024   Anisotropy =     7.6621

      5  C    Isotropic =   146.9608   Anisotropy =    29.2823

      6  H    Isotropic =    29.8744   Anisotropy =     8.2911

      7  H    Isotropic =    29.4752   Anisotropy =    10.0814

      8  C    Isotropic =   150.1800   Anisotropy =    25.6662

      9  H    Isotropic =    29.7431   Anisotropy =     6.6552

     10  H    Isotropic =    29.6608   Anisotropy =    11.1616

     11  C    Isotropic =   127.1061   Anisotropy =    36.8422

     12  H    Isotropic =    28.4052   Anisotropy =     5.0225

     13  C    Isotropic =   135.4768   Anisotropy =    61.6682

     14  H    Isotropic =    28.6311   Anisotropy =     4.9984

     15  H    Isotropic =    28.6309   Anisotropy =     5.0030

     16  C    Isotropic =   122.2168   Anisotropy =    31.3672

     17  H    Isotropic =    29.1048   Anisotropy =     7.6695

     18  C    Isotropic =   146.9554   Anisotropy =    29.3177

     19  H    Isotropic =    29.8751   Anisotropy =     8.2885

     20  H    Isotropic =    29.4747   Anisotropy =    10.0779

     21  C    Isotropic =   150.1808   Anisotropy =    25.6749

     22  H    Isotropic =    29.7431   Anisotropy =     6.6535

     23  H    Isotropic =    29.6610   Anisotropy =    11.1607

     24  C    Isotropic =   127.1147   Anisotropy =    36.8441

     25  H    Isotropic =    28.4058   Anisotropy =     5.0216

     26  C    Isotropic =    37.5852   Anisotropy =   195.9139

     27  C    Isotropic =    53.8992   Anisotropy =   182.2452

     28  H    Isotropic =    24.8709   Anisotropy =    10.0800

     29  C    Isotropic =    49.2102   Anisotropy =   190.2991

     30  H    Isotropic =    24.4131   Anisotropy =     5.3413

     31  C    Isotropic =    50.1084   Anisotropy =   190.5508

     32  H    Isotropic =    24.3888   Anisotropy =     3.4856

     33  C    Isotropic =    49.1259   Anisotropy =   189.0466

     34  H    Isotropic =    24.4622   Anisotropy =     6.6543

     35  C    Isotropic =    48.3605   Anisotropy =   165.1817

     36  H    Isotropic =    25.7360   Anisotropy =     5.0894

     37  C    Isotropic =    43.0207   Anisotropy =   188.7332

     38  C    Isotropic =    47.8467   Anisotropy =   167.9541

     39  H    Isotropic =    24.2209   Anisotropy =     7.9074

     40  C    Isotropic =    48.5520   Anisotropy =   190.3879

     41  H    Isotropic =    24.0270   Anisotropy =     4.9873

     42  C    Isotropic =    49.5696   Anisotropy =   191.2973

     43  H    Isotropic =    23.9854   Anisotropy =     3.1248

     44  C    Isotropic =    48.7941   Anisotropy =   190.6110

     45  H    Isotropic =    23.9557   Anisotropy =     5.2827

     46  C    Isotropic =    53.2261   Anisotropy =   181.8934

     47  H    Isotropic =    24.3221   Anisotropy =    10.0769

     48  C    Isotropic =    37.5876   Anisotropy =   195.9444

     49  C    Isotropic =    53.9001   Anisotropy =   182.2148

     50  H    Isotropic =    24.8715   Anisotropy =    10.0800

     51  C    Isotropic =    49.2120   Anisotropy =   190.2953

     52  H    Isotropic =    24.4130   Anisotropy =     5.3422

     53  C    Isotropic =    50.1011   Anisotropy =   190.5354

     54  H    Isotropic =    24.3893   Anisotropy =     3.4836

     55  C    Isotropic =    49.1233   Anisotropy =   189.0516

     56  H    Isotropic =    24.4621   Anisotropy =     6.6530

     57  C    Isotropic =    48.3559   Anisotropy =   165.1799

     58  H    Isotropic =    25.7338   Anisotropy =     5.0827

     59  C    Isotropic =    43.0207   Anisotropy =   188.7364

     60  C    Isotropic =    47.8430   Anisotropy =   167.9571

     61  H    Isotropic =    24.2213   Anisotropy =     7.9074

     62  C    Isotropic =    48.5509   Anisotropy =   190.3900

     63  H    Isotropic =    24.0275   Anisotropy =     4.9896

     64  C    Isotropic =    49.5696   Anisotropy =   191.2961

     65  H    Isotropic =    23.9852   Anisotropy =     3.1228

     66  C    Isotropic =    48.7942   Anisotropy =   190.6100

     67  H    Isotropic =    23.9557   Anisotropy =     5.2828

     68  C    Isotropic =    53.2297   Anisotropy =   181.8837

     69  H    Isotropic =    24.3220   Anisotropy =    10.0773

     70  Rh   Isotropic =  -340.9434   Anisotropy =   410.6988

     71  C    Isotropic =    82.6064   Anisotropy =   117.9853

     72  C    Isotropic =    74.2634   Anisotropy =   125.0188

     73  C    Isotropic =    82.6215   Anisotropy =   117.9667

     74  C    Isotropic =    74.2495   Anisotropy =   125.0538

     75  H    Isotropic =    27.4978   Anisotropy =     5.2187

     76  C    Isotropic =   154.9999   Anisotropy =    23.4508

     77  H    Isotropic =    28.2469   Anisotropy =    12.5887

     78  C    Isotropic =   147.8505   Anisotropy =    29.9862

     79  C    Isotropic =   154.9938   Anisotropy =    23.4677

     80  H    Isotropic =    27.4992   Anisotropy =     5.2219

     81  H    Isotropic =    28.2469   Anisotropy =    12.5881

     82  C    Isotropic =   147.8370   Anisotropy =    29.9864

     83  H    Isotropic =    30.2926   Anisotropy =     9.5534

     84  H    Isotropic =    30.2501   Anisotropy =    10.9516

     85  H    Isotropic =    29.8017   Anisotropy =    11.5078

     86  H    Isotropic =    29.9034   Anisotropy =     7.0555

     87  H    Isotropic =    30.2490   Anisotropy =    10.9515

     88  H    Isotropic =    30.2916   Anisotropy =     9.5570

     89  H    Isotropic =    29.8017   Anisotropy =    11.5067

     90  H    Isotropic =    29.9035   Anisotropy =     7.0543

 The electronic state is 1-A.
 Alpha  occ. eigenvalues --  -77.22702 -77.22702 -10.30191 -10.30191 -10.29982
 Alpha  occ. eigenvalues --  -10.29982 -10.29648 -10.28668 -10.28668 -10.28590
 Alpha  occ. eigenvalues --  -10.28589 -10.28526 -10.28525 -10.28113 -10.28113
 Alpha  occ. eigenvalues --  -10.27919 -10.27919 -10.27652 -10.27652 -10.27131
 Alpha  occ. eigenvalues --  -10.27131 -10.27104 -10.27103 -10.27029 -10.27029
 Alpha  occ. eigenvalues --  -10.27002 -10.27001 -10.26841 -10.26841 -10.26808
 Alpha  occ. eigenvalues --  -10.26808 -10.26712 -10.26711 -10.26576 -10.26576
 Alpha  occ. eigenvalues --  -10.26437 -10.26437 -10.26407 -10.26407 -10.26335
 Alpha  occ. eigenvalues --  -10.26334 -10.26160 -10.26160  -6.68715  -6.68714
 Alpha  occ. eigenvalues --   -4.84990  -4.84989  -4.84911  -4.84911  -4.84615
 Alpha  occ. eigenvalues --   -4.84615  -3.31408  -2.08334  -2.07634  -2.04810
 Alpha  occ. eigenvalues --   -0.96689  -0.96488  -0.95664  -0.95627  -0.94122
 Alpha  occ. eigenvalues --   -0.93340  -0.92997  -0.88776  -0.87916  -0.87899
 Alpha  occ. eigenvalues --   -0.87738  -0.86067  -0.84837  -0.84764  -0.84346
 Alpha  occ. eigenvalues --   -0.84330  -0.83909  -0.83898  -0.80019  -0.79866
 Alpha  occ. eigenvalues --   -0.79845  -0.78612  -0.77468  -0.76486  -0.71560
 Alpha  occ. eigenvalues --   -0.71416  -0.70604  -0.70254  -0.70116  -0.70095
 Alpha  occ. eigenvalues --   -0.69812  -0.69245  -0.69025  -0.66640  -0.66334
 Alpha  occ. eigenvalues --   -0.65481  -0.65129  -0.64812  -0.62181  -0.61689
 Alpha  occ. eigenvalues --   -0.61438  -0.61153  -0.60447  -0.59669  -0.57974
 Alpha  occ. eigenvalues --   -0.57834  -0.57231  -0.57166  -0.56499  -0.56202
 Alpha  occ. eigenvalues --   -0.55916  -0.55748  -0.55568  -0.55029  -0.54806
 Alpha  occ. eigenvalues --   -0.54331  -0.53819  -0.53750  -0.53483  -0.53288
 Alpha  occ. eigenvalues --   -0.52403  -0.52241  -0.52182  -0.51793  -0.51545
 Alpha  occ. eigenvalues --   -0.51454  -0.51351  -0.51127  -0.50767  -0.50019
 Alpha  occ. eigenvalues --   -0.49540  -0.48979  -0.48200  -0.47871  -0.47529
 Alpha  occ. eigenvalues --   -0.47515  -0.47246  -0.47232  -0.46890  -0.46345
 Alpha  occ. eigenvalues --   -0.45924  -0.45828  -0.45568  -0.44905  -0.44744
 Alpha  occ. eigenvalues --   -0.44319  -0.44085  -0.43916  -0.43702  -0.43398
 Alpha  occ. eigenvalues --   -0.43380  -0.43109  -0.42970  -0.42887  -0.42821
 Alpha  occ. eigenvalues --   -0.42642  -0.42532  -0.41872  -0.41795  -0.40852
 Alpha  occ. eigenvalues --   -0.37047  -0.36311  -0.35391  -0.35278  -0.35263
 Alpha  occ. eigenvalues --   -0.34749  -0.34693  -0.34665  -0.34406  -0.34313
 Alpha  occ. eigenvalues --   -0.33951  -0.33169  -0.32981  -0.30603
 Alpha virt. eigenvalues --   -0.16683  -0.14371  -0.12081  -0.11118  -0.11113
 Alpha virt. eigenvalues --   -0.10872  -0.10849  -0.10566  -0.10393  -0.10355
 Alpha virt. eigenvalues --   -0.08846  -0.07764  -0.07742  -0.07520  -0.06650

 Mulliken charges:
               1
     1  P    0.460599
     2  P    0.460712
     3  C   -0.355365
     4  H    0.216354
     5  C   -0.298723
     6  H    0.176394
     7  H    0.162696
     8  C   -0.229038
     9  H    0.140716
    10  H    0.173065
    11  C   -0.433197
    12  H    0.206674
    13  C   -0.560152
    14  H    0.198052
    15  H    0.198071
    16  C   -0.355190
    17  H    0.216428
    18  C   -0.298676
    19  H    0.176469
    20  H    0.162681
    21  C   -0.229132
    22  H    0.140719
    23  H    0.173083
    24  C   -0.433403
    25  H    0.206665
    26  C    0.025160
    27  C   -0.135733
    28  H    0.115731
    29  C   -0.094501
    30  H    0.127288
    31  C   -0.098180
    32  H    0.130352
    33  C   -0.155621
    34  H    0.122954
    35  C   -0.079858
    36  H    0.163516
    37  C    0.146682
    38  C   -0.127933
    39  H    0.106032
    40  C   -0.093234
    41  H    0.122750
    42  C   -0.131958
    43  H    0.132041
    44  C   -0.086378
    45  H    0.129351
    46  C   -0.192493
    47  H    0.141212
    48  C    0.024812
    49  C   -0.135730
    50  H    0.115773
    51  C   -0.094504
    52  H    0.127285
    53  C   -0.098148
    54  H    0.130358
    55  C   -0.155685
    56  H    0.122965
    57  C   -0.079805
    58  H    0.163559
    59  C    0.146918
    60  C   -0.128104
    61  H    0.106020
    62  C   -0.093012
    63  H    0.122764
    64  C   -0.132139
    65  H    0.132028
    66  C   -0.086288
    67  H    0.129350
    68  C   -0.192543
    69  H    0.141207
    70  Rh  -0.476462
    71  C   -0.025198
    72  C   -0.050499
    73  C   -0.025047
    74  C   -0.050647
    75  H    0.162631
    76  C   -0.362841
    77  H    0.199318
    78  C   -0.230410
    79  C   -0.362848
    80  H    0.162625
    81  H    0.199294
    82  C   -0.230313
    83  H    0.169067
    84  H    0.165927
    85  H    0.169449
    86  H    0.135375
    87  H    0.165918
    88  H    0.169059
    89  H    0.169454
    90  H    0.135384
 Sum of Mulliken charges =   1.00000

 Dipole moment (field-independent basis, Debye):
    X=              0.0002    Y=              0.0007    Z=             -0.2580  Tot=              0.2580
 Quadrupole moment (field-independent basis, Debye-Ang):
   XX=           -238.4074   YY=           -256.3750   ZZ=           -244.4611
   XY=              2.7689   XZ=             -0.0002   YZ=             -0.0182

 Summary of Natural Population Analysis:

                                       Natural Population
                Natural  -----------------------------------------------
    Atom  No    Charge         Core      Valence    Rydberg      Total
 -----------------------------------------------------------------------
      P    1    1.05713      9.99695     3.89974    0.04618    13.94287
      P    2    1.05718      9.99695     3.89968    0.04618    13.94282
      C    3   -0.45636      1.99930     4.43945    0.01761     6.45636
      H    4    0.23359      0.00000     0.76339    0.00302     0.76641
      C    5   -0.38940      1.99939     4.37816    0.01185     6.38940
      H    6    0.20958      0.00000     0.78871    0.00170     0.79042
      H    7    0.22944      0.00000     0.76907    0.00149     0.77056
      C    8   -0.39575      1.99938     4.38432    0.01204     6.39575
      H    9    0.19552      0.00000     0.80271    0.00177     0.80448
      H   10    0.23442      0.00000     0.76399    0.00159     0.76558
      C   11   -0.45632      1.99931     4.43996    0.01705     6.45632
      H   12    0.23036      0.00000     0.76695    0.00270     0.76964
      C   13   -1.01107      1.99943     4.99435    0.01728     7.01107
      H   14    0.25871      0.00000     0.73912    0.00216     0.74129
      H   15    0.25872      0.00000     0.73912    0.00216     0.74128
      C   16   -0.45642      1.99930     4.43951    0.01761     6.45642
      H   17    0.23362      0.00000     0.76336    0.00302     0.76638
      C   18   -0.38941      1.99939     4.37817    0.01185     6.38941
      H   19    0.20962      0.00000     0.78867    0.00170     0.79038
      H   20    0.22943      0.00000     0.76908    0.00149     0.77057
      C   21   -0.39575      1.99938     4.38433    0.01204     6.39575
      H   22    0.19551      0.00000     0.80271    0.00177     0.80449
      H   23    0.23442      0.00000     0.76399    0.00159     0.76558
      C   24   -0.45635      1.99931     4.43999    0.01705     6.45635
      H   25    0.23035      0.00000     0.76695    0.00270     0.76965
      C   26   -0.04007      1.99907     4.02116    0.01984     6.04007
      C   27   -0.22212      1.99909     4.20855    0.01448     6.22212
      H   28    0.20391      0.00000     0.79407    0.00202     0.79609
      C   29   -0.19353      1.99920     4.17925    0.01507     6.19353
      H   30    0.21849      0.00000     0.78023    0.00128     0.78151
      C   31   -0.20197      1.99920     4.18784    0.01494     6.20197
      H   32    0.21961      0.00000     0.77917    0.00122     0.78039
      C   33   -0.19194      1.99920     4.17807    0.01466     6.19194
      H   34    0.21646      0.00000     0.78224    0.00130     0.78354
      C   35   -0.19959      1.99910     4.18577    0.01472     6.19959
      H   36    0.21535      0.00000     0.78253    0.00212     0.78465
      C   37   -0.04329      1.99906     4.02375    0.02048     6.04329
      C   38   -0.19217      1.99911     4.17873    0.01434     6.19217
      H   39    0.20741      0.00000     0.79078    0.00182     0.79259
      C   40   -0.19170      1.99920     4.17781    0.01469     6.19170
      H   41    0.21723      0.00000     0.78150    0.00127     0.78277
      C   42   -0.20590      1.99920     4.19171    0.01499     6.20590
      H   43    0.22027      0.00000     0.77847    0.00126     0.77973
      C   44   -0.19476      1.99920     4.18055    0.01501     6.19476
      H   45    0.21889      0.00000     0.77985    0.00126     0.78111
      C   46   -0.21891      1.99909     4.20552    0.01430     6.21891
      H   47    0.20774      0.00000     0.79041    0.00185     0.79226
      C   48   -0.04006      1.99907     4.02115    0.01984     6.04006
      C   49   -0.22213      1.99909     4.20857    0.01448     6.22213
      H   50    0.20390      0.00000     0.79408    0.00202     0.79610
      C   51   -0.19352      1.99920     4.17924    0.01507     6.19352
      H   52    0.21849      0.00000     0.78023    0.00128     0.78151
      C   53   -0.20197      1.99920     4.18784    0.01494     6.20197
      H   54    0.21962      0.00000     0.77917    0.00122     0.78038
      C   55   -0.19194      1.99920     4.17808    0.01466     6.19194
      H   56    0.21647      0.00000     0.78224    0.00130     0.78353
      C   57   -0.19960      1.99910     4.18578    0.01472     6.19960
      H   58    0.21536      0.00000     0.78253    0.00212     0.78464
      C   59   -0.04329      1.99906     4.02375    0.02048     6.04329
      C   60   -0.19216      1.99911     4.17872    0.01434     6.19216
      H   61    0.20739      0.00000     0.79079    0.00182     0.79261
      C   62   -0.19169      1.99920     4.17780    0.01469     6.19169
      H   63    0.21723      0.00000     0.78150    0.00127     0.78277
      C   64   -0.20590      1.99920     4.19170    0.01499     6.20590
      H   65    0.22027      0.00000     0.77848    0.00126     0.77973
      C   66   -0.19477      1.99920     4.18056    0.01501     6.19477
      H   67    0.21889      0.00000     0.77985    0.00126     0.78111
      C   68   -0.21890      1.99909     4.20551    0.01430     6.21890
      H   69    0.20773      0.00000     0.79042    0.00185     0.79227
     Rh   70   -0.33276     35.98548     9.32006    0.02722    45.33276
      C   71   -0.18492      1.99910     4.16654    0.01928     6.18492
      C   72   -0.15710      1.99912     4.13686    0.02112     6.15710
      C   73   -0.18500      1.99910     4.16662    0.01928     6.18500
      C   74   -0.15704      1.99912     4.13680    0.02112     6.15704
      H   75    0.21949      0.00000     0.77844    0.00207     0.78051
      C   76   -0.42296      1.99936     4.41180    0.01181     6.42296
      H   77    0.24276      0.00000     0.75476    0.00248     0.75724
      C   78   -0.41918      1.99935     4.40681    0.01302     6.41918
      C   79   -0.42295      1.99936     4.41179    0.01181     6.42295
      H   80    0.21949      0.00000     0.77844    0.00207     0.78051
      H   81    0.24275      0.00000     0.75477    0.00248     0.75725
      C   82   -0.41917      1.99935     4.40680    0.01302     6.41917
      H   83    0.21492      0.00000     0.78315    0.00192     0.78508
      H   84    0.22584      0.00000     0.77264    0.00152     0.77416
      H   85    0.23330      0.00000     0.76489    0.00181     0.76670
      H   86    0.21940      0.00000     0.77876    0.00184     0.78060
      H   87    0.22583      0.00000     0.77265    0.00152     0.77417
      H   88    0.21493      0.00000     0.78314    0.00192     0.78507
      H   89    0.23331      0.00000     0.76488    0.00181     0.76669
      H   90    0.21941      0.00000     0.77875    0.00184     0.78059
 =======================================================================
   * Total *    1.00000    137.94688   227.21077    0.84235   366.00000

 Normal termination of Gaussian 16 at Tue Nov  5 15:46:51 2024.
