 Gaussian 16, Revision B.01,
 Gaussian 16:  ES64L-G16RevB.01 20-Dec-2017

 ------------------------------------------
 # nmr=giao b3lyp/genecp pop=nbo scfcyc=200
 ------------------------------------------

 ----------
 MB-101_SPE
 ----------
 Symbolic Z-matrix:
 Charge =  1 Multiplicity = 1

                         Standard orientation:
 ---------------------------------------------------------------------
 Center     Atomic      Atomic             Coordinates (Angstroms)
 Number     Number       Type             X           Y           Z
 ---------------------------------------------------------------------
      1          6           0       -0.382740    0.543061   -1.722370
      2          1           0       -0.032059    1.572821   -1.656510
      3          1           0       -0.399040    0.226721   -2.765320
      4          6           0       -2.927971   -0.900628   -1.760450
      5          1           0       -3.055291   -0.480788   -2.762910
      6          1           0       -2.269391   -1.768178   -1.849730
      7          6           0       -2.146220    0.604022    2.901060
      8          1           0       -2.601829    1.452622    2.403940
      9          6           0       -2.641331   -0.646458    2.602010
     10          1           0       -3.487811   -0.699187    1.925260
     11          6           0       -2.358821   -1.928738    3.345550
     12          1           0       -3.039842   -2.020448    4.200790
     13          1           0       -2.607042   -2.758018    2.679490
     14          6           0       -0.898082   -2.085429    3.823920
     15          1           0       -0.694822   -3.148059    3.966300
     16          1           0       -0.768091   -1.624149    4.802860
     17          6           0        0.128649   -1.523440    2.856840
     18          1           0        0.706938   -2.262380    2.312550
     19          6           0        0.637140   -0.238350    2.882270
     20          1           0        1.585730   -0.075620    2.381100
     21          6           0        0.227530    0.872400    3.817950
     22          1           0        0.780690    0.781140    4.761150
     23          1           0        0.550371    1.818030    3.377190
     24          6           0       -1.286850    0.941691    4.104210
     25          1           0       -1.547300    0.286431    4.935060
     26          1           0       -1.532379    1.953321    4.431600
     27         15           0       -1.982190    0.368732   -0.772620
     28         15           0        0.650289   -0.499160   -0.561200
     29         45           0       -0.876620   -0.312089    1.231990
     30          6           0        0.794818   -2.147000   -1.371970
     31          6           0        1.392088   -2.274700   -2.631850
     32          6           0        0.274398   -3.279860   -0.743100
     33          6           0        1.464528   -3.517110   -3.247550
     34          1           0        1.810739   -1.408361   -3.129620
     35          6           0        0.351317   -4.525020   -1.362250
     36          1           0       -0.197242   -3.185089    0.226870
     37          6           0        0.944927   -4.644050   -2.613030
     38          1           0        1.927608   -3.608281   -4.222080
     39          1           0       -0.052304   -5.398919   -0.866450
     40          1           0        1.005276   -5.611700   -3.095030
     41          6           0       -2.934029    1.928992   -0.987540
     42          6           0       -3.956569    2.237423   -0.084360
     43          6           0       -2.683899    2.797082   -2.054280
     44          6           0       -4.718268    3.388893   -0.249240
     45          1           0       -4.169999    1.578223    0.747880
     46          6           0       -3.442928    3.951643   -2.212310
     47          1           0       -1.899559    2.581922   -2.769060
     48          6           0       -4.460048    4.249343   -1.311300
     49          1           0       -5.509738    3.615314    0.454100
     50          1           0       -3.239167    4.617652   -3.041350
     51          1           0       -5.049647    5.148634   -1.436640
     52          6           0       -4.279541   -1.314667   -1.174870
     53          1           0       -4.914981   -0.433876   -1.043630
     54          1           0       -4.131611   -1.748347   -0.180730
     55          6           0       -5.011162   -2.329936   -2.061230
     56          1           0       -5.159041   -1.896326   -3.055420
     57          1           0       -4.374772   -3.209677   -2.202150
     58          6           0       -6.360052   -2.758636   -1.484300
     59          1           0       -7.030371   -1.903855   -1.365520
     60          1           0       -6.855832   -3.478405   -2.137520
     61          1           0       -6.242192   -3.228266   -0.504380
     62          6           0        2.355290    0.222839   -0.513210
     63          6           0        3.382029   -0.621752   -0.288420
     64          1           0        3.141879   -1.681621   -0.270080
     65          6           0        2.446481    1.695819   -0.697610
     66          6           0        1.896741    2.591289    0.226530
     67          6           0        3.057541    2.210779   -1.847890
     68          6           0        1.976662    3.964829    0.017900
     69          1           0        1.412851    2.211440    1.117660
     70          6           0        3.136212    3.582719   -2.054880
     71          1           0        3.485251    1.529738   -2.573220
     72          6           0        2.597832    4.464529   -1.121870
     73          1           0        1.556823    4.644610    0.749010
     74          1           0        3.620342    3.963728   -2.945520
     75          1           0        2.662113    5.533249   -1.282650
     76          6           0        4.809919   -0.368092   -0.070800
     77          6           0        5.684639   -1.457393   -0.221020
     78          6           0        5.352780    0.868197    0.315340
     79          6           0        7.051019   -1.314704   -0.025460
     80          1           0        5.283098   -2.424983   -0.500020
     81          6           0        6.717690    1.005036    0.523100
     82          1           0        4.708441    1.721318    0.466290
     83          6           0        7.572920   -0.080304    0.347120
     84          1           0        7.706488   -2.166614   -0.155340
     85          1           0        7.117841    1.963986    0.827930
     86          1           0        8.637460    0.034745    0.507840
 ---------------------------------------------------------------------

 SCF Done:  E(RB3LYP) =  -2306.35171353     A.U. after   18 cycles

      1  C    Isotropic =   137.7849   Anisotropy =    35.4718

      2  H    Isotropic =    28.5391   Anisotropy =     8.7301

      3  H    Isotropic =    29.1927   Anisotropy =     9.4132

      4  C    Isotropic =   141.4170   Anisotropy =    33.8053

      5  H    Isotropic =    30.6097   Anisotropy =     5.5555

      6  H    Isotropic =    30.5989   Anisotropy =     7.9366

      7  C    Isotropic =    74.1520   Anisotropy =   129.8498

      8  H    Isotropic =    26.4498   Anisotropy =     6.9285

      9  C    Isotropic =    79.5740   Anisotropy =   114.0790

     10  H    Isotropic =    25.8418   Anisotropy =     4.7388

     11  C    Isotropic =   147.8802   Anisotropy =    29.3424

     12  H    Isotropic =    28.9455   Anisotropy =    12.5498

     13  H    Isotropic =    28.9022   Anisotropy =     7.8024

     14  C    Isotropic =   153.9188   Anisotropy =    25.0003

     15  H    Isotropic =    29.6803   Anisotropy =    11.4694

     16  H    Isotropic =    29.6908   Anisotropy =     9.3554

     17  C    Isotropic =    82.2472   Anisotropy =   116.4950

     18  H    Isotropic =    26.8824   Anisotropy =     6.2298

     19  C    Isotropic =    75.3342   Anisotropy =   118.7437

     20  H    Isotropic =    26.5751   Anisotropy =     4.2641

     21  C    Isotropic =   147.6096   Anisotropy =    28.6101

     22  H    Isotropic =    29.0873   Anisotropy =    12.0425

     23  H    Isotropic =    28.8844   Anisotropy =     7.5307

     24  C    Isotropic =   153.4862   Anisotropy =    25.8043

     25  H    Isotropic =    29.6940   Anisotropy =     9.2407

     26  H    Isotropic =    29.7354   Anisotropy =    11.4631

     27  P    Isotropic =   332.1444   Anisotropy =    67.4961

     28  P    Isotropic =   299.9584   Anisotropy =   107.9919

     29  Rh   Isotropic =  -317.5509   Anisotropy =   352.8502

     30  C    Isotropic =    42.7620   Anisotropy =   173.2201

     31  C    Isotropic =    46.2321   Anisotropy =   186.1274

     32  C    Isotropic =    40.8918   Anisotropy =   180.0904

     33  C    Isotropic =    47.2302   Anisotropy =   191.2276

     34  H    Isotropic =    24.0138   Anisotropy =    10.8524

     35  C    Isotropic =    49.6387   Anisotropy =   186.9879

     36  H    Isotropic =    23.2837   Anisotropy =     9.6241

     37  C    Isotropic =    44.4494   Anisotropy =   198.4636

     38  H    Isotropic =    23.9552   Anisotropy =     5.7697

     39  H    Isotropic =    23.9975   Anisotropy =     6.7381

     40  H    Isotropic =    23.8510   Anisotropy =     3.9404

     41  C    Isotropic =    44.7323   Anisotropy =   175.7571

     42  C    Isotropic =    46.7225   Anisotropy =   181.8381

     43  C    Isotropic =    50.7062   Anisotropy =   184.3547

     44  C    Isotropic =    49.6784   Anisotropy =   189.0528

     45  H    Isotropic =    24.8211   Anisotropy =    10.1631

     46  C    Isotropic =    48.1284   Anisotropy =   191.6196

     47  H    Isotropic =    25.0092   Anisotropy =    11.4341

     48  C    Isotropic =    46.1457   Anisotropy =   196.9786

     49  H    Isotropic =    24.2615   Anisotropy =     6.8200

     50  H    Isotropic =    24.3165   Anisotropy =     6.3319

     51  H    Isotropic =    24.1526   Anisotropy =     3.7083

     52  C    Isotropic =   153.2908   Anisotropy =    33.4925

     53  H    Isotropic =    30.8376   Anisotropy =     6.6465

     54  H    Isotropic =    30.4732   Anisotropy =     5.8173

     55  C    Isotropic =   155.1063   Anisotropy =    28.2150

     56  H    Isotropic =    30.9676   Anisotropy =     7.0092

     57  H    Isotropic =    30.8248   Anisotropy =     5.7872

     58  C    Isotropic =   169.1555   Anisotropy =    29.5794

     59  H    Isotropic =    31.1799   Anisotropy =     8.7095

     60  H    Isotropic =    30.7275   Anisotropy =    12.2602

     61  H    Isotropic =    31.0897   Anisotropy =     7.4500

     62  C    Isotropic =    42.0071   Anisotropy =   125.9215

     63  C    Isotropic =    32.1290   Anisotropy =   151.9540

     64  H    Isotropic =    25.4994   Anisotropy =    12.4204

     65  C    Isotropic =    40.4745   Anisotropy =   177.6438

     66  C    Isotropic =    51.1965   Anisotropy =   176.4729

     67  C    Isotropic =    49.0617   Anisotropy =   174.0485

     68  C    Isotropic =    48.8035   Anisotropy =   191.6306

     69  H    Isotropic =    23.9537   Anisotropy =     6.6336

     70  C    Isotropic =    47.2361   Anisotropy =   192.8887

     71  H    Isotropic =    24.4232   Anisotropy =     8.3360

     72  C    Isotropic =    48.7072   Anisotropy =   193.3796

     73  H    Isotropic =    24.1227   Anisotropy =     6.5478

     74  H    Isotropic =    24.0900   Anisotropy =     4.8410

     75  H    Isotropic =    24.1468   Anisotropy =     3.4980

     76  C    Isotropic =    44.6096   Anisotropy =   185.0720

     77  C    Isotropic =    46.0831   Anisotropy =   168.6897

     78  C    Isotropic =    50.5903   Anisotropy =   187.0414

     79  C    Isotropic =    49.7394   Anisotropy =   186.7370

     80  H    Isotropic =    24.9619   Anisotropy =    10.0672

     81  C    Isotropic =    50.6703   Anisotropy =   186.5939

     82  H    Isotropic =    25.0287   Anisotropy =    13.9251

     83  C    Isotropic =    46.7705   Anisotropy =   193.0112

     84  H    Isotropic =    24.4434   Anisotropy =     5.7884

     85  H    Isotropic =    24.7391   Anisotropy =     7.7813

     86  H    Isotropic =    24.4167   Anisotropy =     4.0013

 The electronic state is 1-A.
 Alpha  occ. eigenvalues --  -77.23651 -77.23063 -10.29741 -10.29688 -10.29515
 Alpha  occ. eigenvalues --  -10.29363 -10.29036 -10.28944 -10.28906 -10.28799
 Alpha  occ. eigenvalues --  -10.28744 -10.28560 -10.28556 -10.28509 -10.28503
 Alpha  occ. eigenvalues --  -10.28247 -10.28168 -10.27912 -10.27822 -10.27801
 Alpha  occ. eigenvalues --  -10.27541 -10.27482 -10.27418 -10.27381 -10.27348
 Alpha  occ. eigenvalues --  -10.27308 -10.27274 -10.27256 -10.27022 -10.26818
 Alpha  occ. eigenvalues --  -10.26743 -10.26624 -10.26576 -10.26479 -10.25995
 Alpha  occ. eigenvalues --  -10.25762 -10.25566 -10.25411 -10.25396 -10.25173
 Alpha  occ. eigenvalues --  -10.23485  -6.69612  -6.69078  -4.85892  -4.85838
 Alpha  occ. eigenvalues --   -4.85514  -4.85386  -4.85265  -4.84979  -3.31443
 Alpha  occ. eigenvalues --   -2.08337  -2.07671  -2.04895  -0.96841  -0.96292
 Alpha  occ. eigenvalues --   -0.96139  -0.94594  -0.94432  -0.91086  -0.90176
 Alpha  occ. eigenvalues --   -0.89124  -0.87985  -0.87854  -0.86248  -0.85515
 Alpha  occ. eigenvalues --   -0.85252  -0.85141  -0.84188  -0.84081  -0.83056
 Alpha  occ. eigenvalues --   -0.82230  -0.81290  -0.80309  -0.77783  -0.75437
 Alpha  occ. eigenvalues --   -0.73380  -0.72333  -0.71362  -0.71303  -0.70857
 Alpha  occ. eigenvalues --   -0.70517  -0.70167  -0.69071  -0.69030  -0.67417
 Alpha  occ. eigenvalues --   -0.67190  -0.66144  -0.65865  -0.64340  -0.62589
 Alpha  occ. eigenvalues --   -0.61868  -0.61654  -0.60958  -0.60054  -0.58561
 Alpha  occ. eigenvalues --   -0.57753  -0.57024  -0.56930  -0.56424  -0.56272
 Alpha  occ. eigenvalues --   -0.55923  -0.55805  -0.55494  -0.55220  -0.55010
 Alpha  occ. eigenvalues --   -0.54917  -0.53831  -0.53632  -0.53105  -0.52942
 Alpha  occ. eigenvalues --   -0.52669  -0.52541  -0.52506  -0.52039  -0.51767
 Alpha  occ. eigenvalues --   -0.51569  -0.51274  -0.51019  -0.50455  -0.49720
 Alpha  occ. eigenvalues --   -0.49178  -0.48327  -0.47956  -0.47828  -0.47475
 Alpha  occ. eigenvalues --   -0.47370  -0.46629  -0.46384  -0.46215  -0.45974
 Alpha  occ. eigenvalues --   -0.45925  -0.45423  -0.45385  -0.44977  -0.44889
 Alpha  occ. eigenvalues --   -0.44215  -0.43938  -0.43591  -0.43233  -0.43192
 Alpha  occ. eigenvalues --   -0.43131  -0.42774  -0.42499  -0.42052  -0.41570
 Alpha  occ. eigenvalues --   -0.41442  -0.40954  -0.39752  -0.37432  -0.36795
 Alpha  occ. eigenvalues --   -0.36487  -0.36230  -0.35824  -0.35802  -0.35151
 Alpha  occ. eigenvalues --   -0.34819  -0.34537  -0.34362  -0.33780  -0.33705
 Alpha  occ. eigenvalues --   -0.31769  -0.30466
 Alpha virt. eigenvalues --   -0.16564  -0.15198  -0.13736  -0.12876  -0.12094
 Alpha virt. eigenvalues --   -0.11806  -0.11362  -0.10925  -0.10599  -0.09248
 Alpha virt. eigenvalues --   -0.08951  -0.07727  -0.07128  -0.06615  -0.06243

 Mulliken charges:
               1
     1  C   -0.582648
     2  H    0.230820
     3  H    0.209162
     4  C   -0.217177
     5  H    0.156178
     6  H    0.157466
     7  C   -0.006129
     8  H    0.182085
     9  C   -0.115725
    10  H    0.188124
    11  C   -0.232406
    12  H    0.172053
    13  H    0.131165
    14  C   -0.350965
    15  H    0.167580
    16  H    0.168519
    17  C   -0.018854
    18  H    0.181202
    19  C   -0.113899
    20  H    0.222630
    21  C   -0.233508
    22  H    0.171280
    23  H    0.130957
    24  C   -0.348705
    25  H    0.168320
    26  H    0.169437
    27  P    0.284305
    28  P    0.362782
    29  Rh  -0.494439
    30  C   -0.287910
    31  C   -0.054953
    32  C   -0.006859
    33  C   -0.095405
    34  H    0.146162
    35  C   -0.120967
    36  H    0.151235
    37  C   -0.086174
    38  H    0.136570
    39  H    0.130737
    40  H    0.141472
    41  C   -0.110738
    42  C   -0.138806
    43  C   -0.075678
    44  C   -0.096489
    45  H    0.167973
    46  C   -0.076784
    47  H    0.144477
    48  C   -0.098260
    49  H    0.131082
    50  H    0.133119
    51  H    0.138899
    52  C   -0.271003
    53  H    0.141224
    54  H    0.102998
    55  C   -0.212514
    56  H    0.119392
    57  H    0.115033
    58  C   -0.349383
    59  H    0.118031
    60  H    0.141380
    61  H    0.110157
    62  C   -0.204820
    63  C   -0.123631
    64  H    0.158530
    65  C   -0.229418
    66  C    0.028327
    67  C   -0.022573
    68  C   -0.156714
    69  H    0.130112
    70  C   -0.121442
    71  H    0.131853
    72  C   -0.069148
    73  H    0.123466
    74  H    0.129443
    75  H    0.134202
    76  C    0.011665
    77  C   -0.158371
    78  C   -0.052276
    79  C   -0.088971
    80  H    0.116653
    81  C   -0.111988
    82  H    0.159971
    83  C   -0.095967
    84  H    0.126914
    85  H    0.125361
    86  H    0.131194
 Sum of Mulliken charges =   1.00000

 Dipole moment (field-independent basis, Debye):
    X=             -1.6177    Y=             -0.2774    Z=             -0.5210  Tot=              1.7220
 Quadrupole moment (field-independent basis, Debye-Ang):
   XX=           -214.6322   YY=           -225.1863   ZZ=           -239.6392
   XY=             -6.0868   XZ=             -6.1551   YZ=              0.1640

 Summary of Natural Population Analysis:

                                       Natural Population
                Natural  -----------------------------------------------
    Atom  No    Charge         Core      Valence    Rydberg      Total
 -----------------------------------------------------------------------
      C    1   -0.98806      1.99943     4.97124    0.01739     6.98806
      H    2    0.27545      0.00000     0.72275    0.00180     0.72455
      H    3    0.25235      0.00000     0.74553    0.00211     0.74765
      C    4   -0.65182      1.99938     4.63915    0.01329     6.65182
      H    5    0.22505      0.00000     0.77213    0.00282     0.77495
      H    6    0.23099      0.00000     0.76659    0.00242     0.76901
      C    7   -0.16735      1.99907     4.14855    0.01973     6.16735
      H    8    0.22708      0.00000     0.77071    0.00220     0.77292
      C    9   -0.17167      1.99908     4.15248    0.02011     6.17167
      H   10    0.22353      0.00000     0.77437    0.00210     0.77647
      C   11   -0.41825      1.99935     4.40619    0.01271     6.41825
      H   12    0.23338      0.00000     0.76471    0.00191     0.76662
      H   13    0.21494      0.00000     0.78349    0.00157     0.78506
      C   14   -0.42293      1.99936     4.41179    0.01178     6.42293
      H   15    0.22773      0.00000     0.77081    0.00146     0.77227
      H   16    0.21524      0.00000     0.78280    0.00196     0.78476
      C   17   -0.17729      1.99906     4.15901    0.01922     6.17729
      H   18    0.22398      0.00000     0.77402    0.00200     0.77602
      C   19   -0.15995      1.99907     4.14151    0.01937     6.15995
      H   20    0.23053      0.00000     0.76748    0.00200     0.76947
      C   21   -0.41629      1.99935     4.40434    0.01260     6.41629
      H   22    0.23380      0.00000     0.76430    0.00191     0.76620
      H   23    0.21295      0.00000     0.78531    0.00174     0.78705
      C   24   -0.42411      1.99936     4.41286    0.01190     6.42411
      H   25    0.21490      0.00000     0.78313    0.00197     0.78510
      H   26    0.22887      0.00000     0.76965    0.00148     0.77113
      P   27    1.09463      9.99678     3.86198    0.04660    13.90537
      P   28    1.12670      9.99644     3.82497    0.05189    13.87330
     Rh   29   -0.39014     35.98591     9.37517    0.02906    45.39014
      C   30   -0.35112      1.99899     4.32730    0.02483     6.35112
      C   31   -0.18947      1.99909     4.17418    0.01620     6.18947
      C   32   -0.18748      1.99909     4.17285    0.01554     6.18748
      C   33   -0.19212      1.99920     4.17830    0.01462     6.19212
      H   34    0.21650      0.00000     0.78143    0.00207     0.78350
      C   35   -0.19805      1.99920     4.18416    0.01469     6.19805
      H   36    0.22205      0.00000     0.77603    0.00192     0.77795
      C   37   -0.17473      1.99921     4.16095    0.01457     6.17473
      H   38    0.22380      0.00000     0.77498    0.00123     0.77620
      H   39    0.22190      0.00000     0.77687    0.00122     0.77810
      H   40    0.22364      0.00000     0.77518    0.00117     0.77636
      C   41   -0.33699      1.99901     4.31566    0.02232     6.33699
      C   42   -0.19503      1.99909     4.18064    0.01529     6.19503
      C   43   -0.19342      1.99910     4.17884    0.01548     6.19342
      C   44   -0.19234      1.99920     4.17850    0.01465     6.19234
      H   45    0.20983      0.00000     0.78813    0.00204     0.79017
      C   46   -0.18852      1.99920     4.17473    0.01460     6.18852
      H   47    0.21145      0.00000     0.78661    0.00195     0.78855
      C   48   -0.17954      1.99920     4.16575    0.01458     6.17954
      H   49    0.22187      0.00000     0.77690    0.00123     0.77813
      H   50    0.22219      0.00000     0.77658    0.00123     0.77781
      H   51    0.22306      0.00000     0.77577    0.00117     0.77694
      C   52   -0.38854      1.99942     4.37823    0.01089     6.38854
      H   53    0.20173      0.00000     0.79605    0.00223     0.79827
      H   54    0.19385      0.00000     0.80404    0.00211     0.80615
      C   55   -0.37702      1.99945     4.36748    0.01009     6.37702
      H   56    0.19720      0.00000     0.80120    0.00160     0.80280
      H   57    0.19385      0.00000     0.80453    0.00162     0.80615
      C   58   -0.58807      1.99947     4.58268    0.00592     6.58807
      H   59    0.20088      0.00000     0.79775    0.00137     0.79912
      H   60    0.21547      0.00000     0.78347    0.00106     0.78453
      H   61    0.19730      0.00000     0.80130    0.00139     0.80270
      C   62   -0.31550      1.99892     4.29105    0.02553     6.31550
      C   63   -0.13104      1.99899     4.11627    0.01578     6.13104
      H   64    0.20848      0.00000     0.78862    0.00289     0.79152
      C   65   -0.09083      1.99903     4.06928    0.02252     6.09083
      C   66   -0.20860      1.99908     4.19497    0.01456     6.20860
      C   67   -0.19050      1.99908     4.17690    0.01452     6.19050
      C   68   -0.19429      1.99920     4.18046    0.01463     6.19429
      H   69    0.21279      0.00000     0.78481    0.00240     0.78721
      C   70   -0.19220      1.99920     4.17834    0.01466     6.19220
      H   71    0.21682      0.00000     0.78159    0.00159     0.78318
      C   72   -0.19660      1.99920     4.18262    0.01478     6.19660
      H   73    0.21755      0.00000     0.78121    0.00124     0.78245
      H   74    0.22069      0.00000     0.77811    0.00120     0.77931
      H   75    0.22031      0.00000     0.77852    0.00117     0.77969
      C   76   -0.10458      1.99907     4.08648    0.01902     6.10458
      C   77   -0.16810      1.99916     4.15474    0.01420     6.16810
      C   78   -0.17572      1.99912     4.16212    0.01448     6.17572
      C   79   -0.20135      1.99920     4.18718    0.01497     6.20135
      H   80    0.20783      0.00000     0.79067    0.00150     0.79217
      C   81   -0.19747      1.99922     4.18314    0.01511     6.19747
      H   82    0.21766      0.00000     0.77997    0.00237     0.78234
      C   83   -0.17870      1.99921     4.16458    0.01492     6.17870
      H   84    0.21889      0.00000     0.77992    0.00120     0.78111
      H   85    0.21748      0.00000     0.78117    0.00135     0.78252
      H   86    0.21865      0.00000     0.78022    0.00113     0.78135
 =======================================================================
   * Total *    1.00000    133.94726   217.23702    0.81573   352.00000

 Normal termination of Gaussian 16 at Tue Jan 21 18:07:59 2025.
