 Gaussian 16, Revision B.01,
 Gaussian 16:  ES64L-G16RevB.01 20-Dec-2017

 ------------------------------------------
 # nmr=giao b3lyp/genecp pop=nbo scfcyc=200
 ------------------------------------------

 ----------
 MB-116_SPE
 ----------
 Symbolic Z-matrix:
 Charge =  1 Multiplicity = 1

                         Standard orientation:
 ---------------------------------------------------------------------
 Center     Atomic      Atomic             Coordinates (Angstroms)
 Number     Number       Type             X           Y           Z
 ---------------------------------------------------------------------
      1         15           0        1.387661   -0.174599   -0.203059
      2         15           0       -1.389629   -0.177469   -0.205199
      3          6           0       -0.000089   -0.315509   -1.458319
      4          6           0        2.008081    1.551101   -0.363159
      5          6           0        2.080841    2.348471    0.777661
      6          6           0        2.539491    3.656841    0.664261
      7          6           0        2.919630    4.185361   -0.561029
      8          6           0        2.835561    3.374891   -1.689179
      9          6           0        2.384791    2.064321   -1.607449
     10          6           0        2.769121   -1.263359   -0.764449
     11          6           0        2.489131   -2.606249   -1.032039
     12          6           0        3.523181   -3.456919   -1.396409
     13          6           0        4.835891   -3.007819   -1.484129
     14          6           0        5.096161   -1.675359   -1.194859
     15          6           0        4.080481   -0.794579   -0.835369
     16          6           0       -2.001449    1.552851   -0.340319
     17          6           0       -2.367359    2.090611   -1.577239
     18          6           0       -2.816419    3.402981   -1.636249
     19          6           0       -2.910050    4.190391   -0.492569
     20          6           0       -2.541729    3.636851    0.725331
     21          6           0       -2.084749    2.326191    0.816301
     22          6           0       -2.777399   -1.246759   -0.788409
     23          6           0       -4.090599   -0.777229   -0.802839
     24          6           0       -5.115149   -1.641409   -1.176529
     25          6           0       -4.862449   -2.958929   -1.533629
     26          6           0       -3.547949   -3.409719   -1.501409
     27          6           0       -2.504399   -2.575109   -1.126069
     28         17           0        2.631670    4.659091    2.097951
     29         17           0        3.309320    4.025561   -3.243689
     30         17           0        3.168151   -5.137519   -1.744339
     31         17           0        6.741961   -1.086389   -1.288939
     32         17           0       -3.276290    4.085561   -3.181269
     33         17           0       -2.648000    4.609621    2.178271
     34         17           0       -6.762739   -1.050619   -1.201459
     35         17           0       -3.201609   -5.071369   -1.937119
     36          1           0        0.001981   -1.313399   -1.896149
     37          1           0        0.000201    0.423201   -2.258659
     38          1           0        1.776911    1.966651    1.741571
     39          1           0        2.343621    1.461801   -2.504879
     40          1           0        5.633471   -3.679829   -1.766299
     41          1           0       -2.319749    1.505721   -2.485939
     42          1           0       -1.791469    1.922491    1.774901
     43          1           0       -5.666999   -3.618079   -1.826109
     44          1           0        3.273030    5.203561   -0.639169
     45          1           0        1.485621   -3.001599   -0.952869
     46          1           0        4.323841    0.236181   -0.623959
     47          1           0       -3.262340    5.210171   -0.553209
     48          1           0       -4.328209    0.242661   -0.538379
     49          1           0       -1.499259   -2.972799   -1.096439
     50         45           0        0.000181   -0.763299    1.608281
     51          6           0       -1.419789   -0.937619    3.390341
     52          6           0       -1.472159   -2.111409    2.668531
     53          6           0        1.445801   -2.050639    2.828511
     54          6           0        1.499441   -0.756079    3.299481
     55          6           0       -0.663219   -0.729999    4.688931
     56          1           0       -2.184519   -0.199109    3.172411
     57          1           0       -2.288879   -2.221399    1.963071
     58          6           0       -0.733569   -3.391979    2.967101
     59          6           0        0.705821   -3.199119    3.488011
     60          1           0        2.193211   -2.336529    2.096731
     61          6           0        0.773521   -0.196139    4.497331
     62          1           0        2.313461   -0.136319    2.935681
     63          1           0       -1.216239   -0.014799    5.299471
     64          1           0       -0.650539   -1.660209    5.256171
     65          1           0       -1.311749   -3.986869    3.685061
     66          1           0       -0.707349   -3.982399    2.048931
     67          1           0        0.704231   -3.057859    4.568401
     68          1           0        1.264861   -4.118139    3.305951
     69          1           0        0.740281    0.890421    4.390361
     70          1           0        1.361601   -0.384579    5.403891
 ---------------------------------------------------------------------

 SCF Done:  E(RB3LYP) =  -5748.53036374     A.U. after   16 cycles

      1  P    Isotropic =   311.7818   Anisotropy =   102.0178

      2  P    Isotropic =   310.7269   Anisotropy =    98.8486

      3  C    Isotropic =   125.4239   Anisotropy =    46.1515

      4  C    Isotropic =    46.1690   Anisotropy =   166.8038

      5  C    Isotropic =    45.0529   Anisotropy =   150.4480

      6  C    Isotropic =    30.5805   Anisotropy =   135.1652

      7  C    Isotropic =    44.2916   Anisotropy =   144.0895

      8  C    Isotropic =    29.0849   Anisotropy =   138.0473

      9  C    Isotropic =    50.1128   Anisotropy =   158.0368

     10  C    Isotropic =    42.7987   Anisotropy =   158.6807

     11  C    Isotropic =    52.5392   Anisotropy =   150.9446

     12  C    Isotropic =    29.8784   Anisotropy =   133.0231

     13  C    Isotropic =    45.9389   Anisotropy =   139.3368

     14  C    Isotropic =    29.5121   Anisotropy =   134.3118

     15  C    Isotropic =    49.9204   Anisotropy =   157.8613

     16  C    Isotropic =    46.3501   Anisotropy =   167.6253

     17  C    Isotropic =    50.3019   Anisotropy =   158.1992

     18  C    Isotropic =    29.1162   Anisotropy =   138.0666

     19  C    Isotropic =    44.2748   Anisotropy =   144.1432

     20  C    Isotropic =    30.6677   Anisotropy =   134.9977

     21  C    Isotropic =    44.4934   Anisotropy =   150.5211

     22  C    Isotropic =    42.5725   Anisotropy =   158.8635

     23  C    Isotropic =    50.1096   Anisotropy =   157.5663

     24  C    Isotropic =    29.3377   Anisotropy =   134.7778

     25  C    Isotropic =    45.9020   Anisotropy =   139.5050

     26  C    Isotropic =    29.8833   Anisotropy =   133.3193

     27  C    Isotropic =    52.9699   Anisotropy =   150.5697

     28  Cl   Isotropic =   644.4555   Anisotropy =   519.9610

     29  Cl   Isotropic =   637.0202   Anisotropy =   518.5308

     30  Cl   Isotropic =   644.3900   Anisotropy =   522.0800

     31  Cl   Isotropic =   636.5018   Anisotropy =   518.4093

     32  Cl   Isotropic =   637.0991   Anisotropy =   518.7965

     33  Cl   Isotropic =   645.3039   Anisotropy =   519.0318

     34  Cl   Isotropic =   636.2918   Anisotropy =   517.8972

     35  Cl   Isotropic =   642.9933   Anisotropy =   522.1262

     36  H    Isotropic =    27.7656   Anisotropy =     2.2603

     37  H    Isotropic =    28.3139   Anisotropy =     7.8697

     38  H    Isotropic =    24.2613   Anisotropy =    11.4284

     39  H    Isotropic =    25.0076   Anisotropy =    12.3675

     40  H    Isotropic =    24.2228   Anisotropy =     8.7292

     41  H    Isotropic =    25.0387   Anisotropy =    12.3756

     42  H    Isotropic =    24.2635   Anisotropy =    11.7783

     43  H    Isotropic =    24.1996   Anisotropy =     8.7256

     44  H    Isotropic =    24.2310   Anisotropy =     8.0738

     45  H    Isotropic =    24.2179   Anisotropy =    12.5229

     46  H    Isotropic =    25.5482   Anisotropy =    15.0207

     47  H    Isotropic =    24.2376   Anisotropy =     8.0220

     48  H    Isotropic =    25.6051   Anisotropy =    15.0317

     49  H    Isotropic =    24.2427   Anisotropy =    12.4010

     50  Rh   Isotropic =  -312.8697   Anisotropy =   347.7244

     51  C    Isotropic =    77.5026   Anisotropy =   122.6627

     52  C    Isotropic =    69.1215   Anisotropy =   127.7861

     53  C    Isotropic =    70.6877   Anisotropy =   132.8074

     54  C    Isotropic =    76.5128   Anisotropy =   116.0130

     55  C    Isotropic =   154.3461   Anisotropy =    25.2546

     56  H    Isotropic =    26.9810   Anisotropy =     6.7365

     57  H    Isotropic =    26.9573   Anisotropy =     3.6349

     58  C    Isotropic =   147.7257   Anisotropy =    29.0047

     59  C    Isotropic =   153.9721   Anisotropy =    25.5652

     60  H    Isotropic =    27.3011   Anisotropy =     5.3372

     61  C    Isotropic =   148.2737   Anisotropy =    29.2761

     62  H    Isotropic =    26.5163   Anisotropy =     4.3237

     63  H    Isotropic =    29.7360   Anisotropy =    11.6763

     64  H    Isotropic =    29.7502   Anisotropy =     9.5779

     65  H    Isotropic =    29.2270   Anisotropy =    12.2379

     66  H    Isotropic =    29.0965   Anisotropy =     7.3878

     67  H    Isotropic =    29.7570   Anisotropy =     9.5546

     68  H    Isotropic =    29.8990   Anisotropy =    10.8373

     69  H    Isotropic =    28.9313   Anisotropy =     8.3700

     70  H    Isotropic =    28.9987   Anisotropy =    12.6287

 The electronic state is 1-A.
 Alpha  occ. eigenvalues -- -101.66043-101.66022-101.65955-101.65951-101.65874
 Alpha  occ. eigenvalues -- -101.65858-101.65603-101.65593 -77.26517 -77.26514
 Alpha  occ. eigenvalues --  -10.35844 -10.35825 -10.35817 -10.35795 -10.35741
 Alpha  occ. eigenvalues --  -10.35730 -10.35574 -10.35561 -10.32742 -10.32736
 Alpha  occ. eigenvalues --  -10.32723 -10.32689 -10.32662 -10.31202 -10.31175
 Alpha  occ. eigenvalues --  -10.31171 -10.31157 -10.31131 -10.31104 -10.30929
 Alpha  occ. eigenvalues --  -10.30877 -10.30859 -10.30843 -10.30834 -10.30825
 Alpha  occ. eigenvalues --  -10.30801 -10.30643 -10.30531 -10.30526 -10.29036
 Alpha  occ. eigenvalues --  -10.29017 -10.28763 -10.28751  -9.56960  -9.56939
 Alpha  occ. eigenvalues --   -9.56875  -9.56871  -9.56793  -9.56776  -9.56522
 Alpha  occ. eigenvalues --   -9.56513  -7.33381  -7.33361  -7.33295  -7.33292
 Alpha  occ. eigenvalues --   -7.33218  -7.33201  -7.32946  -7.32936  -7.32351
 Alpha  occ. eigenvalues --   -7.32331  -7.32306  -7.32286  -7.32266  -7.32262
 Alpha  occ. eigenvalues --   -7.32222  -7.32218  -7.32185  -7.32168  -7.32136
 Alpha  occ. eigenvalues --   -7.32119  -7.31915  -7.31905  -7.31865  -7.31855
 Alpha  occ. eigenvalues --   -6.72470  -6.72467  -4.88751  -4.88748  -4.88705
 Alpha  occ. eigenvalues --   -4.88703  -4.88361  -4.88357  -3.33796  -2.10736
 Alpha  occ. eigenvalues --   -2.10019  -2.07221  -1.02292  -1.02233  -1.01971
 Alpha  occ. eigenvalues --   -1.01962  -0.97908  -0.97886  -0.97723  -0.97715
 Alpha  occ. eigenvalues --   -0.96153  -0.95440  -0.94801  -0.93775  -0.93745
 Alpha  occ. eigenvalues --   -0.90931  -0.90451  -0.89569  -0.88256  -0.86898
 Alpha  occ. eigenvalues --   -0.86837  -0.86232  -0.85378  -0.85327  -0.85091
 Alpha  occ. eigenvalues --   -0.85002  -0.81981  -0.79436  -0.79201  -0.76611
 Alpha  occ. eigenvalues --   -0.73736  -0.73619  -0.72194  -0.72153  -0.72071
 Alpha  occ. eigenvalues --   -0.71742  -0.71656  -0.68621  -0.68452  -0.67496
 Alpha  occ. eigenvalues --   -0.64568  -0.64297  -0.64213  -0.63910  -0.63290
 Alpha  occ. eigenvalues --   -0.61690  -0.61450  -0.61256  -0.61049  -0.60925
 Alpha  occ. eigenvalues --   -0.58737  -0.58299  -0.58133  -0.57690  -0.57053
 Alpha  occ. eigenvalues --   -0.56803  -0.56355  -0.55988  -0.55270  -0.55194
 Alpha  occ. eigenvalues --   -0.55165  -0.55094  -0.55076  -0.54634  -0.54257
 Alpha  occ. eigenvalues --   -0.54171  -0.53369  -0.52966  -0.52812  -0.52619
 Alpha  occ. eigenvalues --   -0.52562  -0.51843  -0.50219  -0.50040  -0.49594
 Alpha  occ. eigenvalues --   -0.49501  -0.49446  -0.49338  -0.49322  -0.48508
 Alpha  occ. eigenvalues --   -0.47749  -0.47574  -0.47567  -0.47444  -0.46772
 Alpha  occ. eigenvalues --   -0.46639  -0.46519  -0.46512  -0.45942  -0.45305
 Alpha  occ. eigenvalues --   -0.44789  -0.44250  -0.43636  -0.42974  -0.42862
 Alpha  occ. eigenvalues --   -0.42390  -0.42084  -0.41977  -0.41877  -0.41713
 Alpha  occ. eigenvalues --   -0.41351  -0.41328  -0.41141  -0.41107  -0.39386
 Alpha  occ. eigenvalues --   -0.38851  -0.37906  -0.37856  -0.37424  -0.36880
 Alpha  occ. eigenvalues --   -0.36806  -0.36713  -0.36399  -0.36176  -0.36025
 Alpha  occ. eigenvalues --   -0.35891  -0.35796  -0.33012
 Alpha virt. eigenvalues --   -0.18706  -0.17482  -0.16719  -0.15993  -0.15921
 Alpha virt. eigenvalues --   -0.14848  -0.14414  -0.13477  -0.13334  -0.13290
 Alpha virt. eigenvalues --   -0.11225  -0.10355  -0.09958  -0.09734  -0.08997

 Mulliken charges:
               1
     1  P    0.276931
     2  P    0.301305
     3  C   -0.600199
     4  C   -0.189712
     5  C    0.022141
     6  C   -0.125520
     7  C    0.014312
     8  C   -0.081904
     9  C   -0.050149
    10  C   -0.135620
    11  C   -0.029273
    12  C   -0.122124
    13  C    0.028805
    14  C   -0.128686
    15  C    0.011715
    16  C   -0.200888
    17  C   -0.047839
    18  C   -0.081886
    19  C    0.011794
    20  C   -0.121804
    21  C    0.029948
    22  C   -0.146039
    23  C    0.013113
    24  C   -0.125339
    25  C    0.025502
    26  C   -0.123640
    27  C   -0.026896
    28  Cl  -0.024143
    29  Cl  -0.015613
    30  Cl  -0.025582
    31  Cl  -0.016720
    32  Cl  -0.015984
    33  Cl  -0.024371
    34  Cl  -0.016615
    35  Cl  -0.024262
    36  H    0.222083
    37  H    0.220090
    38  H    0.177416
    39  H    0.168730
    40  H    0.175525
    41  H    0.167129
    42  H    0.163593
    43  H    0.175277
    44  H    0.175778
    45  H    0.171782
    46  H    0.181863
    47  H    0.175812
    48  H    0.180436
    49  H    0.165038
    50  Rh  -0.499462
    51  C    0.004291
    52  C   -0.109288
    53  C   -0.019363
    54  C   -0.086308
    55  C   -0.350312
    56  H    0.180851
    57  H    0.217083
    58  C   -0.237871
    59  C   -0.358213
    60  H    0.208516
    61  C   -0.232392
    62  H    0.188334
    63  H    0.177178
    64  H    0.171439
    65  H    0.181183
    66  H    0.139159
    67  H    0.172075
    68  H    0.176609
    69  H    0.139644
    70  H    0.181536
 Sum of Mulliken charges =   1.00000

 Dipole moment (field-independent basis, Debye):
    X=              0.0243    Y=             -2.1415    Z=              3.3901  Tot=              4.0099
 Quadrupole moment (field-independent basis, Debye-Ang):
   XX=           -302.9503   YY=           -301.6893   ZZ=           -303.4245
   XY=              0.1294   XZ=              0.1425   YZ=             -8.3511

 Summary of Natural Population Analysis:

                                       Natural Population
                Natural  -----------------------------------------------
    Atom  No    Charge         Core      Valence    Rydberg      Total
 -----------------------------------------------------------------------
      P    1    1.11986      9.99647     3.83208    0.05159    13.88014
      P    2    1.11968      9.99646     3.83239    0.05148    13.88032
      C    3   -0.96146      1.99942     4.94466    0.01738     6.96146
      C    4   -0.31964      1.99901     4.29622    0.02441     6.31964
      C    5   -0.21297      1.99893     4.19670    0.01734     6.21297
      C    6   -0.01331      1.99861     3.99352    0.02119     6.01331
      C    7   -0.21370      1.99886     4.19825    0.01659     6.21370
      C    8   -0.01119      1.99862     3.99120    0.02137     6.01119
      C    9   -0.22659      1.99893     4.20983    0.01784     6.22659
      C   10   -0.30998      1.99900     4.28771    0.02327     6.30998
      C   11   -0.23216      1.99892     4.21693    0.01631     6.23216
      C   12   -0.00909      1.99861     3.98897    0.02151     6.00909
      C   13   -0.22010      1.99885     4.20451    0.01674     6.22010
      C   14   -0.00790      1.99862     3.98777    0.02152     6.00790
      C   15   -0.22473      1.99892     4.20943    0.01638     6.22473
      C   16   -0.32006      1.99901     4.29652    0.02452     6.32006
      C   17   -0.22549      1.99893     4.20874    0.01782     6.22549
      C   18   -0.01113      1.99862     3.99116    0.02135     6.01113
      C   19   -0.21371      1.99886     4.19826    0.01659     6.21371
      C   20   -0.01344      1.99861     3.99365    0.02118     6.01344
      C   21   -0.21267      1.99893     4.19648    0.01726     6.21267
      C   22   -0.31017      1.99900     4.28803    0.02314     6.31017
      C   23   -0.22534      1.99892     4.21002    0.01640     6.22534
      C   24   -0.00771      1.99862     3.98758    0.02151     6.00771
      C   25   -0.22029      1.99885     4.20470    0.01674     6.22029
      C   26   -0.00892      1.99861     3.98876    0.02154     6.00892
      C   27   -0.23308      1.99892     4.21774    0.01643     6.23308
     Cl   28    0.03993      9.99966     6.94513    0.01528    16.96007
     Cl   29    0.04511      9.99966     6.93987    0.01536    16.95489
     Cl   30    0.03751      9.99966     6.94745    0.01537    16.96249
     Cl   31    0.04477      9.99966     6.94012    0.01545    16.95523
     Cl   32    0.04492      9.99966     6.94006    0.01536    16.95508
     Cl   33    0.03977      9.99966     6.94530    0.01527    16.96023
     Cl   34    0.04495      9.99966     6.93994    0.01545    16.95505
     Cl   35    0.03816      9.99966     6.94680    0.01538    16.96184
      H   36    0.26295      0.00000     0.73563    0.00141     0.73705
      H   37    0.26057      0.00000     0.73775    0.00167     0.73943
      H   38    0.23462      0.00000     0.76261    0.00277     0.76538
      H   39    0.23332      0.00000     0.76406    0.00262     0.76668
      H   40    0.25199      0.00000     0.74665    0.00136     0.74801
      H   41    0.23313      0.00000     0.76425    0.00263     0.76687
      H   42    0.23617      0.00000     0.76143    0.00240     0.76383
      H   43    0.25207      0.00000     0.74657    0.00136     0.74793
      H   44    0.25211      0.00000     0.74655    0.00134     0.74789
      H   45    0.22502      0.00000     0.77260    0.00239     0.77498
      H   46    0.24015      0.00000     0.75750    0.00236     0.75985
      H   47    0.25205      0.00000     0.74662    0.00134     0.74795
      H   48    0.24015      0.00000     0.75751    0.00235     0.75985
      H   49    0.22387      0.00000     0.77363    0.00251     0.77613
     Rh   50   -0.41067     35.98577     9.39675    0.02815    45.41067
      C   51   -0.17680      1.99907     4.15820    0.01953     6.17680
      C   52   -0.14378      1.99908     4.12482    0.01988     6.14378
      C   53   -0.15042      1.99907     4.13194    0.01941     6.15042
      C   54   -0.16747      1.99908     4.14858    0.01981     6.16747
      C   55   -0.42430      1.99936     4.41328    0.01166     6.42430
      H   56    0.22676      0.00000     0.77146    0.00178     0.77324
      H   57    0.23080      0.00000     0.76730    0.00190     0.76920
      C   58   -0.42017      1.99935     4.40821    0.01261     6.42017
      C   59   -0.42631      1.99936     4.41516    0.01179     6.42631
      H   60    0.23031      0.00000     0.76775    0.00195     0.76969
      C   61   -0.42038      1.99935     4.40833    0.01270     6.42038
      H   62    0.22648      0.00000     0.77174    0.00178     0.77352
      H   63    0.23329      0.00000     0.76525    0.00146     0.76671
      H   64    0.21795      0.00000     0.78010    0.00195     0.78205
      H   65    0.23915      0.00000     0.75900    0.00185     0.76085
      H   66    0.21857      0.00000     0.77991    0.00152     0.78143
      H   67    0.21795      0.00000     0.78011    0.00194     0.78205
      H   68    0.23330      0.00000     0.76527    0.00143     0.76670
      H   69    0.21805      0.00000     0.78041    0.00154     0.78195
      H   70    0.23971      0.00000     0.75842    0.00186     0.76029
 =======================================================================
   * Total *    1.00000    201.94084   231.14183    0.91733   434.00000

 Normal termination of Gaussian 16 at Tue Jan 21 23:49:40 2025.
