 Gaussian 16, Revision B.01,
 Gaussian 16:  ES64L-G16RevB.01 20-Dec-2017

 ------------------------------------------
 # nmr=giao b3lyp/genecp pop=nbo scfcyc=200
 ------------------------------------------

 --------
 MB-1_SPE
 --------
 Symbolic Z-matrix:
 Charge =  1 Multiplicity = 1

                         Standard orientation:
 ---------------------------------------------------------------------
 Center     Atomic      Atomic             Coordinates (Angstroms)
 Number     Number       Type             X           Y           Z
 ---------------------------------------------------------------------
      1         15           0        1.662808   -1.390132   -0.115220
      2         15           0        1.673201    1.389768    0.022600
      3          6           0        1.924756   -2.592023   -1.490050
      4          1           0        1.694907   -2.115292   -2.442290
      5          1           0        1.255715   -3.443402   -1.359280
      6          1           0        2.955476   -2.949804   -1.500960
      7          6           0        1.972612    2.735927   -1.203000
      8          1           0        1.320753    3.581638   -0.980610
      9          1           0        1.744162    2.377418   -2.206140
     10          1           0        3.010513    3.070146   -1.164170
     11          6           0        2.875139    0.011796   -0.379940
     12          1           0        3.163929    0.062496   -1.431120
     13          1           0        3.780349   -0.021805    0.228130
     14          6           0        2.251772    2.112217    1.619220
     15          1           0        3.269592    2.494286    1.524430
     16          1           0        2.219631    1.355837    2.402500
     17          1           0        1.589763    2.929238    1.907430
     18          6           0        2.255167   -2.295513    1.380060
     19          1           0        1.591116   -3.136432    1.582230
     20          1           0        2.240307   -1.633853    2.245350
     21          1           0        3.268256   -2.671424    1.227960
     22         45           0       -0.225161    0.003310    0.015160
     23          6           0       -1.894932   -1.416958   -0.642580
     24          6           0       -1.750312   -1.503568    0.725220
     25          6           0       -1.893499    1.421582    0.677230
     26          6           0       -1.754629    1.507922   -0.691250
     27          6           0       -2.981821   -0.646897   -1.369050
     28          1           0       -1.371743   -2.155599   -1.240170
     29          1           0       -1.154203   -2.325559    1.109440
     30          6           0       -2.573992   -0.795807    1.772170
     31          6           0       -2.975500    0.650693    1.409600
     32          1           0       -1.366988    2.160601    1.271900
     33          6           0       -2.583710    0.799493   -1.733710
     34          1           0       -1.163148    2.331261   -1.078680
     35          1           0       -3.224272   -1.178777   -2.290330
     36          1           0       -3.893561   -0.651786   -0.772580
     37          1           0       -3.473282   -1.384346    1.992160
     38          1           0       -1.994122   -0.784278    2.697610
     39          1           0       -3.890940    0.654634    0.818810
     40          1           0       -3.212889    1.181903    2.332550
     41          1           0       -2.008990    0.788402   -2.662300
     42          1           0       -3.484529    1.387824   -1.948250
 ---------------------------------------------------------------------

 SCF Done:  E(RB3LYP) =  -1304.44406466     A.U. after   14 cycles

      1  P    Isotropic =   345.5119   Anisotropy =    47.7924

      2  P    Isotropic =   345.9251   Anisotropy =    48.3461

      3  C    Isotropic =   166.4361   Anisotropy =    32.2012

      4  H    Isotropic =    30.5687   Anisotropy =     8.7564

      5  H    Isotropic =    30.6462   Anisotropy =     9.0989

      6  H    Isotropic =    30.4105   Anisotropy =    11.1346

      7  C    Isotropic =   166.7683   Anisotropy =    31.3643

      8  H    Isotropic =    30.6136   Anisotropy =     9.2005

      9  H    Isotropic =    30.5276   Anisotropy =     8.7315

     10  H    Isotropic =    30.4051   Anisotropy =    11.0504

     11  C    Isotropic =   133.8048   Anisotropy =    54.2948

     12  H    Isotropic =    28.8390   Anisotropy =     6.2432

     13  H    Isotropic =    29.0554   Anisotropy =     9.7585

     14  C    Isotropic =   165.9135   Anisotropy =    32.0283

     15  H    Isotropic =    30.4180   Anisotropy =    11.2998

     16  H    Isotropic =    30.3967   Anisotropy =     7.9236

     17  H    Isotropic =    30.5358   Anisotropy =     9.1698

     18  C    Isotropic =   166.2197   Anisotropy =    31.3991

     19  H    Isotropic =    30.4931   Anisotropy =     9.1682

     20  H    Isotropic =    30.3900   Anisotropy =     7.9257

     21  H    Isotropic =    30.4232   Anisotropy =    11.2430

     22  Rh   Isotropic =  -309.0215   Anisotropy =   349.1492

     23  C    Isotropic =    76.3235   Anisotropy =   124.1816

     24  C    Isotropic =    75.7303   Anisotropy =   117.2951

     25  C    Isotropic =    77.8208   Anisotropy =   122.4609

     26  C    Isotropic =    74.1917   Anisotropy =   119.3079

     27  C    Isotropic =   153.9548   Anisotropy =    24.6538

     28  H    Isotropic =    26.9899   Anisotropy =     7.0385

     29  H    Isotropic =    26.5631   Anisotropy =     5.0989

     30  C    Isotropic =   147.9165   Anisotropy =    29.6553

     31  C    Isotropic =   154.0968   Anisotropy =    24.4916

     32  H    Isotropic =    27.0855   Anisotropy =     7.3872

     33  C    Isotropic =   147.6987   Anisotropy =    29.9970

     34  H    Isotropic =    26.4616   Anisotropy =     4.7560

     35  H    Isotropic =    29.8308   Anisotropy =    11.3845

     36  H    Isotropic =    29.7664   Anisotropy =     8.7014

     37  H    Isotropic =    29.0847   Anisotropy =    12.1083

     38  H    Isotropic =    29.1823   Anisotropy =     8.1963

     39  H    Isotropic =    29.7900   Anisotropy =     8.7922

     40  H    Isotropic =    29.8507   Anisotropy =    11.4690

     41  H    Isotropic =    29.1107   Anisotropy =     8.0899

     42  H    Isotropic =    29.0772   Anisotropy =    12.0720

 The electronic state is 1-A.
 Alpha  occ. eigenvalues --  -77.25333 -77.25328 -10.31975 -10.30584 -10.30561
 Alpha  occ. eigenvalues --  -10.30468 -10.30445 -10.30440 -10.30421 -10.30413
 Alpha  occ. eigenvalues --  -10.30333 -10.28765 -10.28755 -10.28522 -10.28501
 Alpha  occ. eigenvalues --   -6.71367  -6.71361  -4.87666  -4.87660  -4.87575
 Alpha  occ. eigenvalues --   -4.87570  -4.87255  -4.87249  -3.33084  -2.10007
 Alpha  occ. eigenvalues --   -2.09332  -2.06490  -0.95813  -0.92220  -0.90621
 Alpha  occ. eigenvalues --   -0.89285  -0.88669  -0.83121  -0.83056  -0.82892
 Alpha  occ. eigenvalues --   -0.81685  -0.79159  -0.71862  -0.68690  -0.68416
 Alpha  occ. eigenvalues --   -0.67228  -0.63795  -0.61462  -0.58681  -0.58513
 Alpha  occ. eigenvalues --   -0.57857  -0.57435  -0.56750  -0.56062  -0.55964
 Alpha  occ. eigenvalues --   -0.54866  -0.54129  -0.53987  -0.53866  -0.53715
 Alpha  occ. eigenvalues --   -0.53615  -0.53131  -0.52333  -0.49563  -0.49149
 Alpha  occ. eigenvalues --   -0.48276  -0.47723  -0.47610  -0.47228  -0.45095
 Alpha  occ. eigenvalues --   -0.44742  -0.44542  -0.43944  -0.42805  -0.38486
 Alpha  occ. eigenvalues --   -0.38010  -0.36674  -0.36243  -0.35365  -0.32294
 Alpha virt. eigenvalues --   -0.17805  -0.15244  -0.10874  -0.10247  -0.10089
 Alpha virt. eigenvalues --   -0.09337  -0.08497  -0.07548  -0.07183  -0.06299
 Alpha virt. eigenvalues --   -0.06020  -0.05476  -0.05143  -0.04590  -0.03722

 Mulliken charges:
               1
     1  P    0.356072
     2  P    0.360914
     3  C   -0.419420
     4  H    0.161608
     5  H    0.163807
     6  H    0.166475
     7  C   -0.430489
     8  H    0.166541
     9  H    0.162544
    10  H    0.168292
    11  C   -0.561297
    12  H    0.209845
    13  H    0.213517
    14  C   -0.419576
    15  H    0.164063
    16  H    0.153584
    17  H    0.164082
    18  C   -0.424881
    19  H    0.164539
    20  H    0.154620
    21  H    0.165470
    22  Rh  -0.504573
    23  C   -0.015141
    24  C   -0.085161
    25  C   -0.008336
    26  C   -0.096601
    27  C   -0.350229
    28  H    0.176630
    29  H    0.170653
    30  C   -0.218734
    31  C   -0.346251
    32  H    0.170452
    33  C   -0.219041
    34  H    0.180394
    35  H    0.173090
    36  H    0.169908
    37  H    0.175840
    38  H    0.134614
    39  H    0.168684
    40  H    0.173385
    41  H    0.133505
    42  H    0.176602
 Sum of Mulliken charges =   1.00000

 Dipole moment (field-independent basis, Debye):
    X=              3.4181    Y=             -0.0102    Z=             -0.1285  Tot=              3.4205
 Quadrupole moment (field-independent basis, Debye-Ang):
   XX=            -94.0705   YY=           -103.9139   ZZ=           -114.7437
   XY=              0.0469   XZ=             -0.2240   YZ=              0.4396

 Summary of Natural Population Analysis:

                                       Natural Population
                Natural  -----------------------------------------------
    Atom  No    Charge         Core      Valence    Rydberg      Total
 -----------------------------------------------------------------------
      P    1    1.12804      9.99679     3.82727    0.04790    13.87196
      P    2    1.12747      9.99679     3.82784    0.04789    13.87253
      C    3   -0.89946      1.99942     4.89070    0.00933     6.89946
      H    4    0.24452      0.00000     0.75439    0.00109     0.75548
      H    5    0.24433      0.00000     0.75458    0.00109     0.75567
      H    6    0.24115      0.00000     0.75713    0.00172     0.75885
      C    7   -0.90077      1.99942     4.89218    0.00916     6.90077
      H    8    0.24440      0.00000     0.75453    0.00107     0.75560
      H    9    0.24419      0.00000     0.75474    0.00107     0.75581
      H   10    0.24175      0.00000     0.75651    0.00174     0.75825
      C   11   -0.98611      1.99946     4.96993    0.01672     6.98611
      H   12    0.26175      0.00000     0.73691    0.00133     0.73825
      H   13    0.25591      0.00000     0.74216    0.00193     0.74409
      C   14   -0.89700      1.99942     4.88804    0.00953     6.89700
      H   15    0.23881      0.00000     0.75937    0.00182     0.76119
      H   16    0.24145      0.00000     0.75742    0.00113     0.75855
      H   17    0.24485      0.00000     0.75406    0.00109     0.75515
      C   18   -0.89807      1.99942     4.88912    0.00952     6.89807
      H   19    0.24425      0.00000     0.75467    0.00108     0.75575
      H   20    0.24141      0.00000     0.75747    0.00112     0.75859
      H   21    0.23934      0.00000     0.75884    0.00182     0.76066
     Rh   22   -0.47905     35.98549     9.46792    0.02564    45.47905
      C   23   -0.16151      1.99905     4.14237    0.02009     6.16151
      C   24   -0.15291      1.99904     4.13324    0.02062     6.15291
      C   25   -0.16749      1.99905     4.14836    0.02008     6.16749
      C   26   -0.14810      1.99904     4.12840    0.02066     6.14810
      C   27   -0.42373      1.99936     4.41234    0.01202     6.42373
      H   28    0.22591      0.00000     0.77256    0.00153     0.77409
      H   29    0.22240      0.00000     0.77586    0.00174     0.77760
      C   30   -0.42330      1.99936     4.41147    0.01248     6.42330
      C   31   -0.42323      1.99937     4.41191    0.01195     6.42323
      H   32    0.22666      0.00000     0.77181    0.00153     0.77334
      C   33   -0.42314      1.99936     4.41127    0.01251     6.42314
      H   34    0.22254      0.00000     0.77576    0.00170     0.77746
      H   35    0.23136      0.00000     0.76724    0.00140     0.76864
      H   36    0.21331      0.00000     0.78468    0.00202     0.78669
      H   37    0.23721      0.00000     0.76103    0.00176     0.76279
      H   38    0.21980      0.00000     0.77868    0.00152     0.78020
      H   39    0.21312      0.00000     0.78486    0.00202     0.78688
      H   40    0.23156      0.00000     0.76703    0.00140     0.76844
      H   41    0.21941      0.00000     0.77907    0.00152     0.78059
      H   42    0.23694      0.00000     0.76130    0.00176     0.76306
 =======================================================================
   * Total *    1.00000     81.96985    95.68506    0.34509   178.00000

 Normal termination of Gaussian 16 at Tue Jan 21 00:37:58 2025.
