 Gaussian 16, Revision B.01,
 Gaussian 16:  ES64L-G16RevB.01 20-Dec-2017

 ------------------------------------------
 # nmr=giao b3lyp/genecp pop=nbo scfcyc=200
 ------------------------------------------

 ----------
 MB-118_SPE
 ----------
 Symbolic Z-matrix:
 Charge =  1 Multiplicity = 1

                         Standard orientation:
 ---------------------------------------------------------------------
 Center     Atomic      Atomic             Coordinates (Angstroms)
 Number     Number       Type             X           Y           Z
 ---------------------------------------------------------------------
      1         15           0        1.414879   -0.283101    0.120420
      2         15           0       -1.407271   -0.326599    0.064140
      3          6           0        0.017378   -1.526750    0.285350
      4          1           0        0.070157   -1.983280    1.269190
      5          1           0       -0.006073   -2.332920   -0.441540
      6          6           0        2.392409   -0.567872    1.664470
      7          6           0        2.335540    0.447088    2.623320
      8          1           0        1.776610    1.344588    2.394390
      9          6           0        2.966420    0.324057    3.853230
     10          1           0        2.905200    1.123257    4.580270
     11          6           0        3.675398   -0.836453    4.132600
     12          1           0        4.185128   -0.951174    5.081240
     13          6           0        3.736497   -1.864413    3.200680
     14          1           0        4.294107   -2.755304    3.448690
     15          6           0        3.091998   -1.760013    1.964440
     16          6           0        2.419879   -0.727052   -1.370870
     17          6           0        1.842238   -1.528182   -2.360070
     18          1           0        0.853927   -1.940461   -2.215990
     19          6           0        2.502438   -1.807932   -3.547960
     20          1           0        2.028727   -2.430602   -4.295550
     21          6           0        3.769448   -1.282663   -3.761620
     22          1           0        4.305448   -1.498014   -4.677500
     23          6           0        4.360009   -0.476664   -2.798220
     24          1           0        5.349369   -0.084995   -2.983430
     25          6           0        3.697079   -0.171103   -1.606940
     26          6           0       -2.586231   -0.532348    1.481330
     27          6           0       -2.129762   -1.122298    2.663620
     28          1           0       -1.128812   -1.524819    2.719380
     29          6           0       -2.929612   -1.206287    3.794170
     30          1           0       -2.546172   -1.669098    4.694060
     31          6           0       -4.218911   -0.693696    3.754020
     32          1           0       -4.862591   -0.758056    4.622350
     33          6           0       -4.693021   -0.096346    2.594690
     34          1           0       -5.702391    0.287765    2.583310
     35          6           0       -3.890171    0.011484    1.456030
     36          6           0       -2.189382   -0.912348   -1.505860
     37          6           0       -2.059391   -0.066358   -2.610790
     38          1           0       -1.560410    0.884601   -2.476780
     39          6           0       -2.544791   -0.421098   -3.861190
     40          1           0       -2.429301    0.250232   -4.702030
     41          6           0       -3.180192   -1.646307   -4.013680
     42          1           0       -3.576523   -1.940687   -4.977640
     43          6           0       -3.314353   -2.508237   -2.933030
     44          1           0       -3.813824   -3.453676   -3.083990
     45          6           0       -2.817413   -2.169037   -1.670840
     46         45           0       -0.024809    1.607730   -0.044100
     47          6           0        1.428272    3.339959    0.325430
     48          6           0        1.347242    3.086779   -1.027820
     49          6           0       -1.540018    3.207501   -0.655990
     50          6           0       -1.454888    3.150961    0.720210
     51          6           0        0.725923    4.464039    1.063490
     52          1           0        2.263442    2.883718    0.843270
     53          1           0        2.128271    2.463448   -1.450680
     54          6           0        0.515523    3.829900   -2.043000
     55          6           0       -0.883767    4.247201   -1.544150
     56          1           0       -2.350388    2.645652   -1.104790
     57          6           0       -0.657857    4.064251    1.618420
     58          1           0       -2.211668    2.564262    1.231060
     59          1           0        1.355204    4.778349    1.898040
     60          1           0        0.637694    5.334039    0.412810
     61          1           0        1.066294    4.713499   -2.390300
     62          1           0        0.407462    3.185740   -2.918520
     63          1           0       -0.831706    5.201701   -1.020470
     64          1           0       -1.523967    4.417141   -2.411660
     65          1           0       -0.526618    3.555021    2.575760
     66          1           0       -1.244866    4.965141    1.838600
     67          6           0        5.783751    1.735005   -1.277720
     68          1           0        6.162811    2.481784   -0.581860
     69          1           0        6.593290    1.054904   -1.534530
     70          1           0        5.401221    2.232825   -2.166890
     71          6           0        3.871065   -4.481954    1.683770
     72          1           0        4.913445   -4.290154    1.930730
     73          1           0        3.298765   -4.722583    2.577860
     74          1           0        3.823654   -5.321683    0.992270
     75          6           0       -3.574835   -4.830417   -1.005960
     76          1           0       -3.592936   -5.536417   -0.177270
     77          1           0       -4.585975   -4.717196   -1.392080
     78          1           0       -2.904256   -5.203137   -1.778120
     79          6           0       -5.929209    1.774015    0.545670
     80          1           0       -6.225389    2.372836   -0.314160
     81          1           0       -6.764440    1.138086    0.831630
     82          1           0       -5.648269    2.433885    1.364410
     83         16           0       -2.958734   -3.273777   -0.273830
     84         16           0        4.450360    0.877976   -0.364580
     85         16           0        3.130056   -3.085643    0.767050
     86         16           0       -4.502280    0.789004   -0.038200
 ---------------------------------------------------------------------

 SCF Done:  E(RB3LYP) =  -3821.73754249     A.U. after   17 cycles

      1  P    Isotropic =   322.6488   Anisotropy =   106.6771

      2  P    Isotropic =   323.6036   Anisotropy =   107.7597

      3  C    Isotropic =   131.2617   Anisotropy =    49.6743

      4  H    Isotropic =    27.5788   Anisotropy =     5.8572

      5  H    Isotropic =    27.3359   Anisotropy =     6.5091

      6  C    Isotropic =    47.3562   Anisotropy =   157.2409

      7  C    Isotropic =    41.3743   Anisotropy =   174.1521

      8  H    Isotropic =    23.2068   Anisotropy =     9.2938

      9  C    Isotropic =    55.7243   Anisotropy =   177.3879

     10  H    Isotropic =    24.4577   Anisotropy =     6.5803

     11  C    Isotropic =    45.7593   Anisotropy =   192.1836

     12  H    Isotropic =    24.1336   Anisotropy =     3.7245

     13  C    Isotropic =    55.5776   Anisotropy =   175.2352

     14  H    Isotropic =    24.6678   Anisotropy =     9.7863

     15  C    Isotropic =    25.3086   Anisotropy =   172.4759

     16  C    Isotropic =    48.8008   Anisotropy =   153.0666

     17  C    Isotropic =    49.3192   Anisotropy =   184.3570

     18  H    Isotropic =    24.9821   Anisotropy =     8.4073

     19  C    Isotropic =    54.4848   Anisotropy =   181.0737

     20  H    Isotropic =    24.8000   Anisotropy =     6.9560

     21  C    Isotropic =    47.6855   Anisotropy =   189.2417

     22  H    Isotropic =    24.3551   Anisotropy =     3.7118

     23  C    Isotropic =    54.8127   Anisotropy =   176.9228

     24  H    Isotropic =    24.7285   Anisotropy =     9.8570

     25  C    Isotropic =    26.6952   Anisotropy =   175.4138

     26  C    Isotropic =    49.3270   Anisotropy =   152.1241

     27  C    Isotropic =    49.6698   Anisotropy =   184.1087

     28  H    Isotropic =    24.6628   Anisotropy =    10.0815

     29  C    Isotropic =    54.3388   Anisotropy =   181.1571

     30  H    Isotropic =    24.6370   Anisotropy =     6.5344

     31  C    Isotropic =    47.4900   Anisotropy =   189.4088

     32  H    Isotropic =    24.3194   Anisotropy =     3.6232

     33  C    Isotropic =    54.3730   Anisotropy =   177.1899

     34  H    Isotropic =    24.7035   Anisotropy =    10.0104

     35  C    Isotropic =    26.5941   Anisotropy =   175.2573

     36  C    Isotropic =    49.0198   Anisotropy =   155.1103

     37  C    Isotropic =    40.0483   Anisotropy =   174.7524

     38  H    Isotropic =    23.0140   Anisotropy =     8.7044

     39  C    Isotropic =    55.7834   Anisotropy =   177.8241

     40  H    Isotropic =    24.4842   Anisotropy =     6.4057

     41  C    Isotropic =    45.6338   Anisotropy =   192.3450

     42  H    Isotropic =    24.0945   Anisotropy =     3.5767

     43  C    Isotropic =    55.7401   Anisotropy =   174.9511

     44  H    Isotropic =    24.6315   Anisotropy =     9.6246

     45  C    Isotropic =    25.3281   Anisotropy =   173.1188

     46  Rh   Isotropic =  -338.8913   Anisotropy =   373.7972

     47  C    Isotropic =    80.6406   Anisotropy =   121.2754

     48  C    Isotropic =    73.1323   Anisotropy =   124.1179

     49  C    Isotropic =    80.8222   Anisotropy =   120.7447

     50  C    Isotropic =    73.9808   Anisotropy =   122.4593

     51  C    Isotropic =   154.3153   Anisotropy =    24.2521

     52  H    Isotropic =    26.5037   Anisotropy =     4.6951

     53  H    Isotropic =    26.4968   Anisotropy =     6.3425

     54  C    Isotropic =   147.5546   Anisotropy =    29.2930

     55  C    Isotropic =   154.3899   Anisotropy =    23.9518

     56  H    Isotropic =    26.4147   Anisotropy =     5.1695

     57  C    Isotropic =   147.6635   Anisotropy =    29.5604

     58  H    Isotropic =    26.7714   Anisotropy =     5.9725

     59  H    Isotropic =    29.7962   Anisotropy =    11.3209

     60  H    Isotropic =    29.7776   Anisotropy =     9.7060

     61  H    Isotropic =    29.2343   Anisotropy =    12.4900

     62  H    Isotropic =    29.1807   Anisotropy =     6.4198

     63  H    Isotropic =    29.7741   Anisotropy =     9.7601

     64  H    Isotropic =    29.8306   Anisotropy =    11.1607

     65  H    Isotropic =    29.1465   Anisotropy =     6.6073

     66  H    Isotropic =    29.2449   Anisotropy =    12.4879

     67  C    Isotropic =   163.1236   Anisotropy =    33.4173

     68  H    Isotropic =    29.9448   Anisotropy =    11.6554

     69  H    Isotropic =    29.3779   Anisotropy =    12.7169

     70  H    Isotropic =    29.9347   Anisotropy =    10.1812

     71  C    Isotropic =   164.0040   Anisotropy =    31.3282

     72  H    Isotropic =    29.4753   Anisotropy =    12.2768

     73  H    Isotropic =    29.7589   Anisotropy =    11.3413

     74  H    Isotropic =    29.8531   Anisotropy =    11.8982

     75  C    Isotropic =   164.0095   Anisotropy =    31.1542

     76  H    Isotropic =    29.8111   Anisotropy =    11.9877

     77  H    Isotropic =    29.4710   Anisotropy =    12.1922

     78  H    Isotropic =    29.7145   Anisotropy =    11.2553

     79  C    Isotropic =   162.9383   Anisotropy =    33.9918

     80  H    Isotropic =    29.9492   Anisotropy =    11.5529

     81  H    Isotropic =    29.3954   Anisotropy =    12.7309

     82  H    Isotropic =    29.9560   Anisotropy =    10.1305

     83  S    Isotropic =   442.7982   Anisotropy =   276.0414

     84  S    Isotropic =   445.1589   Anisotropy =   290.9661

     85  S    Isotropic =   442.0829   Anisotropy =   283.1986

     86  S    Isotropic =   444.2551   Anisotropy =   290.4977

 The electronic state is 1-A.
 Alpha  occ. eigenvalues --  -88.98174 -88.98144 -88.98128 -88.98064 -77.22992
 Alpha  occ. eigenvalues --  -77.22946 -10.31016 -10.30925 -10.30860 -10.30786
 Alpha  occ. eigenvalues --  -10.29108 -10.29015 -10.28876 -10.28819 -10.28765
 Alpha  occ. eigenvalues --  -10.28508 -10.28497 -10.28487 -10.28396 -10.27935
 Alpha  occ. eigenvalues --  -10.27917 -10.27567 -10.27494 -10.27402 -10.27294
 Alpha  occ. eigenvalues --  -10.27287 -10.27253 -10.26922 -10.26832 -10.26807
 Alpha  occ. eigenvalues --  -10.26765 -10.26720 -10.26704 -10.26670 -10.26609
 Alpha  occ. eigenvalues --  -10.26599 -10.26580 -10.26381 -10.26361 -10.26213
 Alpha  occ. eigenvalues --  -10.26201 -10.26138 -10.26134  -8.03522  -8.03484
 Alpha  occ. eigenvalues --   -8.03468  -8.03410  -6.68911  -6.68868  -6.00049
 Alpha  occ. eigenvalues --   -6.00011  -5.99994  -5.99938  -5.99618  -5.99590
 Alpha  occ. eigenvalues --   -5.99573  -5.99508  -5.99014  -5.98971  -5.98956
 Alpha  occ. eigenvalues --   -5.98900  -4.85198  -4.85157  -4.85140  -4.85095
 Alpha  occ. eigenvalues --   -4.84810  -4.84765  -3.30494  -2.07377  -2.06723
 Alpha  occ. eigenvalues --   -2.03955  -0.96665  -0.96486  -0.95964  -0.95889
 Alpha  occ. eigenvalues --   -0.93395  -0.89213  -0.89090  -0.89085  -0.89045
 Alpha  occ. eigenvalues --   -0.88514  -0.88029  -0.87056  -0.86292  -0.84544
 Alpha  occ. eigenvalues --   -0.84442  -0.83026  -0.82878  -0.82815  -0.82752
 Alpha  occ. eigenvalues --   -0.82472  -0.79305  -0.76793  -0.75377  -0.74793
 Alpha  occ. eigenvalues --   -0.74693  -0.74442  -0.73937  -0.72367  -0.69882
 Alpha  occ. eigenvalues --   -0.69756  -0.69578  -0.68646  -0.68215  -0.67724
 Alpha  occ. eigenvalues --   -0.67465  -0.65245  -0.65129  -0.64698  -0.61437
 Alpha  occ. eigenvalues --   -0.60764  -0.60377  -0.59780  -0.58955  -0.58722
 Alpha  occ. eigenvalues --   -0.56451  -0.56135  -0.56076  -0.55998  -0.55858
 Alpha  occ. eigenvalues --   -0.55314  -0.54889  -0.54352  -0.54067  -0.53943
 Alpha  occ. eigenvalues --   -0.53452  -0.53225  -0.53170  -0.53056  -0.52938
 Alpha  occ. eigenvalues --   -0.52718  -0.52386  -0.52079  -0.52032  -0.52015
 Alpha  occ. eigenvalues --   -0.51910  -0.51668  -0.51514  -0.50617  -0.49488
 Alpha  occ. eigenvalues --   -0.48696  -0.48608  -0.48453  -0.48391  -0.47984
 Alpha  occ. eigenvalues --   -0.47837  -0.47721  -0.47312  -0.47092  -0.46802
 Alpha  occ. eigenvalues --   -0.46559  -0.46094  -0.45319  -0.45121  -0.44784
 Alpha  occ. eigenvalues --   -0.44617  -0.44558  -0.44220  -0.43911  -0.43802
 Alpha  occ. eigenvalues --   -0.43489  -0.42449  -0.42285  -0.41807  -0.40970
 Alpha  occ. eigenvalues --   -0.40931  -0.40620  -0.40488  -0.40237  -0.38416
 Alpha  occ. eigenvalues --   -0.38354  -0.37643  -0.37583  -0.36807  -0.36299
 Alpha  occ. eigenvalues --   -0.35471  -0.34895  -0.34688  -0.34570  -0.33769
 Alpha  occ. eigenvalues --   -0.33137  -0.32569  -0.30710  -0.30649  -0.30372
 Alpha  occ. eigenvalues --   -0.30276  -0.29524
 Alpha virt. eigenvalues --   -0.15478  -0.14228  -0.12957  -0.12445  -0.12103
 Alpha virt. eigenvalues --   -0.10639  -0.10517  -0.10298  -0.10137  -0.09574
 Alpha virt. eigenvalues --   -0.08266  -0.06793  -0.06581  -0.06292  -0.06073

 Mulliken charges:
               1
     1  P    0.323664
     2  P    0.337655
     3  C   -0.587940
     4  H    0.226148
     5  H    0.234867
     6  C   -0.228564
     7  C    0.021034
     8  H    0.173006
     9  C   -0.156601
    10  H    0.120876
    11  C   -0.079922
    12  H    0.131452
    13  C   -0.019479
    14  H    0.145769
    15  C   -0.146352
    16  C   -0.027378
    17  C   -0.046637
    18  H    0.137742
    19  C   -0.137308
    20  H    0.124041
    21  C   -0.092458
    22  H    0.130134
    23  C   -0.009308
    24  H    0.142260
    25  C   -0.175044
    26  C   -0.025976
    27  C   -0.059831
    28  H    0.117659
    29  C   -0.121639
    30  H    0.125254
    31  C   -0.095505
    32  H    0.131276
    33  C   -0.007955
    34  H    0.141438
    35  C   -0.172810
    36  C   -0.268259
    37  C    0.049834
    38  H    0.169352
    39  C   -0.166246
    40  H    0.120388
    41  C   -0.070635
    42  H    0.131666
    43  C   -0.036874
    44  H    0.144874
    45  C   -0.130130
    46  Rh  -0.598819
    47  C   -0.054166
    48  C   -0.076786
    49  C   -0.054642
    50  C   -0.077402
    51  C   -0.354435
    52  H    0.202788
    53  H    0.193927
    54  C   -0.213695
    55  C   -0.358693
    56  H    0.204594
    57  C   -0.215348
    58  H    0.198842
    59  H    0.164078
    60  H    0.164990
    61  H    0.166472
    62  H    0.131688
    63  H    0.164819
    64  H    0.164101
    65  H    0.130978
    66  H    0.165856
    67  C   -0.441470
    68  H    0.163867
    69  H    0.166739
    70  H    0.165237
    71  C   -0.443316
    72  H    0.164952
    73  H    0.164671
    74  H    0.164979
    75  C   -0.441042
    76  H    0.165788
    77  H    0.165079
    78  H    0.163936
    79  C   -0.442515
    80  H    0.163436
    81  H    0.166468
    82  H    0.166265
    83  S    0.064327
    84  S    0.044899
    85  S    0.065877
    86  S    0.045135
 Sum of Mulliken charges =   1.00000

 Dipole moment (field-independent basis, Debye):
    X=             -0.0794    Y=             -0.2923    Z=             -0.0328  Tot=              0.3047
 Quadrupole moment (field-independent basis, Debye-Ang):
   XX=           -234.6201   YY=           -253.6308   ZZ=           -266.2272
   XY=             -0.3248   XZ=             -0.6015   YZ=             -0.6125

 Summary of Natural Population Analysis:

                                       Natural Population
                Natural  -----------------------------------------------
    Atom  No    Charge         Core      Valence    Rydberg      Total
 -----------------------------------------------------------------------
      P    1    1.09180      9.99657     3.85971    0.05192    13.90820
      P    2    1.09426      9.99656     3.85719    0.05200    13.90574
      C    3   -0.97445      1.99939     4.95533    0.01973     6.97445
      H    4    0.26438      0.00000     0.73376    0.00186     0.73562
      H    5    0.26988      0.00000     0.72791    0.00221     0.73012
      C    6   -0.35974      1.99888     4.33497    0.02589     6.35974
      C    7   -0.16612      1.99909     4.15154    0.01548     6.16612
      H    8    0.22160      0.00000     0.77622    0.00218     0.77840
      C    9   -0.22036      1.99917     4.20618    0.01501     6.22036
      H   10    0.22016      0.00000     0.77859    0.00126     0.77984
      C   11   -0.16051      1.99919     4.14693    0.01439     6.16051
      H   12    0.22077      0.00000     0.77803    0.00120     0.77923
      C   13   -0.22967      1.99906     4.21476    0.01585     6.22967
      H   14    0.21707      0.00000     0.78056    0.00237     0.78293
      C   15   -0.15141      1.99876     4.12949    0.02316     6.15141
      C   16   -0.34686      1.99887     4.32278    0.02521     6.34686
      C   17   -0.17722      1.99908     4.16291    0.01523     6.17722
      H   18    0.21059      0.00000     0.78711    0.00231     0.78941
      C   19   -0.20965      1.99918     4.19544    0.01503     6.20965
      H   20    0.22050      0.00000     0.77824    0.00126     0.77950
      C   21   -0.16882      1.99919     4.15513    0.01450     6.16882
      H   22    0.22081      0.00000     0.77799    0.00120     0.77919
      C   23   -0.22426      1.99906     4.20932    0.01588     6.22426
      H   24    0.21649      0.00000     0.78115    0.00236     0.78351
      C   25   -0.15428      1.99876     4.13315    0.02237     6.15428
      C   26   -0.34642      1.99887     4.32237    0.02517     6.34642
      C   27   -0.17598      1.99908     4.16192    0.01498     6.17598
      H   28    0.20696      0.00000     0.79103    0.00202     0.79304
      C   29   -0.20912      1.99918     4.19490    0.01505     6.20912
      H   30    0.22097      0.00000     0.77777    0.00125     0.77903
      C   31   -0.16833      1.99919     4.15464    0.01449     6.16833
      H   32    0.22127      0.00000     0.77753    0.00120     0.77873
      C   33   -0.22350      1.99906     4.20858    0.01586     6.22350
      H   34    0.21668      0.00000     0.78096    0.00236     0.78332
      C   35   -0.15443      1.99876     4.13335    0.02232     6.15443
      C   36   -0.36168      1.99888     4.33645    0.02635     6.36168
      C   37   -0.16399      1.99909     4.14861    0.01629     6.16399
      H   38    0.22290      0.00000     0.77451    0.00260     0.77710
      C   39   -0.22077      1.99917     4.20617    0.01543     6.22077
      H   40    0.22027      0.00000     0.77844    0.00129     0.77973
      C   41   -0.16052      1.99919     4.14690    0.01442     6.16052
      H   42    0.22073      0.00000     0.77808    0.00119     0.77927
      C   43   -0.23064      1.99906     4.21569    0.01589     6.23064
      H   44    0.21715      0.00000     0.78047    0.00238     0.78285
      C   45   -0.15273      1.99876     4.13077    0.02320     6.15273
     Rh   46   -0.35909     35.98579     9.34448    0.02882    45.35909
      C   47   -0.18710      1.99907     4.16812    0.01991     6.18710
      C   48   -0.15710      1.99908     4.13785    0.02017     6.15710
      C   49   -0.18848      1.99907     4.16952    0.01989     6.18848
      C   50   -0.15722      1.99908     4.13818    0.01996     6.15722
      C   51   -0.42403      1.99936     4.41279    0.01188     6.42403
      H   52    0.23139      0.00000     0.76627    0.00234     0.76861
      H   53    0.23432      0.00000     0.76321    0.00247     0.76568
      C   54   -0.41763      1.99935     4.40574    0.01254     6.41763
      C   55   -0.42396      1.99936     4.41273    0.01187     6.42396
      H   56    0.23448      0.00000     0.76310    0.00243     0.76552
      C   57   -0.41743      1.99935     4.40547    0.01261     6.41743
      H   58    0.23253      0.00000     0.76512    0.00235     0.76747
      H   59    0.22531      0.00000     0.77315    0.00154     0.77469
      H   60    0.21357      0.00000     0.78442    0.00201     0.78643
      H   61    0.23102      0.00000     0.76705    0.00193     0.76898
      H   62    0.21549      0.00000     0.78288    0.00163     0.78451
      H   63    0.21336      0.00000     0.78463    0.00201     0.78664
      H   64    0.22527      0.00000     0.77320    0.00153     0.77473
      H   65    0.21612      0.00000     0.78223    0.00165     0.78388
      H   66    0.23076      0.00000     0.76732    0.00192     0.76924
      C   67   -0.71607      1.99935     4.70848    0.00825     6.71607
      H   68    0.23737      0.00000     0.76152    0.00111     0.76263
      H   69    0.21813      0.00000     0.78005    0.00181     0.78187
      H   70    0.21938      0.00000     0.77871    0.00191     0.78062
      C   71   -0.71854      1.99935     4.71105    0.00814     6.71854
      H   72    0.21885      0.00000     0.77926    0.00189     0.78115
      H   73    0.21948      0.00000     0.77860    0.00193     0.78052
      H   74    0.23863      0.00000     0.76028    0.00108     0.76137
      C   75   -0.71859      1.99935     4.71109    0.00815     6.71859
      H   76    0.23906      0.00000     0.75986    0.00108     0.76094
      H   77    0.21926      0.00000     0.77885    0.00189     0.78074
      H   78    0.21925      0.00000     0.77882    0.00193     0.78075
      C   79   -0.71581      1.99935     4.70823    0.00823     6.71581
      H   80    0.23702      0.00000     0.76187    0.00111     0.76298
      H   81    0.21784      0.00000     0.78036    0.00180     0.78216
      H   82    0.21988      0.00000     0.77823    0.00190     0.78012
      S   83    0.27507      9.99915     5.69312    0.03266    15.72493
      S   84    0.27007      9.99916     5.69893    0.03184    15.72993
      S   85    0.27454      9.99915     5.69363    0.03267    15.72546
      S   86    0.26981      9.99916     5.69926    0.03177    15.73019
 =======================================================================
   * Total *    1.00000    169.94263   231.10117    0.95620   402.00000

 Normal termination of Gaussian 16 at Tue Jan 21 23:57:18 2025.
