 Gaussian 16, Revision B.01,
 Gaussian 16:  ES64L-G16RevB.01 20-Dec-2017

 ------------------------------------------
 # nmr=giao b3lyp/genecp pop=nbo scfcyc=200
 ------------------------------------------

 ---------
 MB-24_SPE
 ---------
 Symbolic Z-matrix:
 Charge =  1 Multiplicity = 1

                         Standard orientation:
 ---------------------------------------------------------------------
 Center     Atomic      Atomic             Coordinates (Angstroms)
 Number     Number       Type             X           Y           Z
 ---------------------------------------------------------------------
      1         15           0        1.392171    0.684049    0.161920
      2         15           0       -1.394709    0.704190    0.166020
      3          6           0        0.007262    1.938219    0.292670
      4          6           0        3.314821   -0.319052    2.040290
      5          6           0        3.865301   -0.317842    3.471540
      6          6           0        3.318972    2.748568   -0.466580
      7          6           0        4.323563    3.309657   -1.481220
      8          6           0       -3.270299   -0.360059    2.045320
      9          6           0       -3.783499   -0.426699    3.488640
     10          6           0       -3.303788    2.808681   -0.371350
     11          6           0       -4.327177    3.404412   -1.346620
     12          1           0        0.010232    2.577449   -0.591780
     13          1           0        0.013902    2.570429    1.181620
     14          1           0        4.116311   -0.034133    1.351360
     15          1           0        3.021360   -1.338202    1.771450
     16          1           0        3.066291   -0.603992    4.163240
     17          1           0        4.155371    0.702027    3.743890
     18          1           0        3.823832    2.610258    0.493670
     19          1           0        2.530533    3.489458   -0.297780
     20          1           0        5.109552    2.567877   -1.655880
     21          1           0        3.820313    3.454758   -2.442650
     22          1           0       -2.975060   -1.363159    1.722500
     23          1           0       -4.091299   -0.051279    1.390390
     24          1           0       -2.965369   -0.738919    4.145890
     25          1           0       -4.071609    0.577941    3.814480
     26          1           0       -2.499447    3.534071   -0.210700
     27          1           0       -3.783848    2.659041    0.599840
     28          1           0       -3.848517    3.560541   -2.318830
     29          1           0       -5.129248    2.678172   -1.513260
     30         45           0       -0.017900   -1.036691   -0.639710
     31          6           0        1.424440   -2.184971   -1.989370
     32          6           0        1.437850   -2.757421   -0.735400
     33          6           0       -1.471920   -2.762680   -0.975650
     34          6           0       -1.482100   -1.946580   -2.087750
     35          6           0        0.694390   -2.732711   -3.201480
     36          1           0        2.198120   -1.456322   -2.204730
     37          1           0        2.239910   -2.461972   -0.067140
     38          6           0        0.675529   -3.979171   -0.287150
     39          6           0       -0.752331   -4.093360   -0.863670
     40          1           0       -2.241690   -2.586319   -0.232190
     41          6           0       -0.729090   -2.163230   -3.377170
     42          1           0       -2.282760   -1.218049   -2.159440
     43          1           0        1.274980   -2.491701   -4.093430
     44          1           0        0.665189   -3.820771   -3.149210
     45          1           0        1.247159   -4.882921   -0.532600
     46          1           0        0.618429   -3.951611    0.803350
     47          1           0       -0.731231   -4.582100   -1.837450
     48          1           0       -1.334451   -4.748180   -0.213280
     49          1           0       -0.667640   -1.200920   -3.890020
     50          1           0       -1.311180   -2.817230   -4.038550
     51          6           0        2.701992    1.424578   -0.929990
     52          1           0        2.232762    1.538728   -1.911180
     53          1           0        3.475401    0.660558   -1.050710
     54          6           0        2.118601    0.623598    1.874240
     55          1           0        1.307841    0.320049    2.541370
     56          1           0        2.392652    1.645258    2.151940
     57          6           0       -2.085309    0.598700    1.889570
     58          1           0       -2.361088    1.609531    2.202680
     59          1           0       -1.260609    0.279840    2.531940
     60          6           0       -2.720748    1.484611   -0.877130
     61          1           0       -3.510159    0.736181   -0.991520
     62          1           0       -2.276678    1.612541   -1.868370
     63          6           0       -4.967550   -1.378628    3.655450
     64          1           0       -5.307880   -1.403118    4.691700
     65          1           0       -5.814440   -1.071628    3.036890
     66          1           0       -4.700070   -2.399448    3.371320
     67          6           0       -4.923007    4.721602   -0.850440
     68          1           0       -4.148726    5.479392   -0.707400
     69          1           0       -5.645146    5.118522   -1.565450
     70          1           0       -5.440357    4.589602    0.102930
     71          6           0        4.952913    4.626477   -1.027280
     72          1           0        5.494523    4.504467   -0.086130
     73          1           0        5.660843    4.998397   -1.769450
     74          1           0        4.194524    5.398927   -0.877670
     75          6           0        5.059080   -1.255323    3.650270
     76          1           0        5.887690   -0.972703    2.996340
     77          1           0        5.426360   -1.230733    4.677260
     78          1           0        4.790590   -2.289373    3.420100
 ---------------------------------------------------------------------

 SCF Done:  E(RB3LYP) =  -1776.36589503     A.U. after   15 cycles

      1  P    Isotropic =   328.8329   Anisotropy =    67.0101

      2  P    Isotropic =   327.6237   Anisotropy =    63.9229

      3  C    Isotropic =   140.1531   Anisotropy =    44.1050

      4  C    Isotropic =   153.6990   Anisotropy =    32.5747

      5  C    Isotropic =   154.5265   Anisotropy =    28.0755

      6  C    Isotropic =   155.8531   Anisotropy =    31.2321

      7  C    Isotropic =   155.1275   Anisotropy =    27.4941

      8  C    Isotropic =   153.6686   Anisotropy =    32.8716

      9  C    Isotropic =   154.5761   Anisotropy =    28.0496

     10  C    Isotropic =   156.0297   Anisotropy =    31.0160

     11  C    Isotropic =   155.1145   Anisotropy =    27.4995

     12  H    Isotropic =    29.0857   Anisotropy =     4.6681

     13  H    Isotropic =    29.4727   Anisotropy =     8.1848

     14  H    Isotropic =    30.7332   Anisotropy =     4.9789

     15  H    Isotropic =    30.5952   Anisotropy =     6.9544

     16  H    Isotropic =    30.4660   Anisotropy =     5.9673

     17  H    Isotropic =    30.4841   Anisotropy =     6.7167

     18  H    Isotropic =    30.6428   Anisotropy =     5.8885

     19  H    Isotropic =    30.8170   Anisotropy =     5.9225

     20  H    Isotropic =    30.5238   Anisotropy =     6.3281

     21  H    Isotropic =    30.5749   Anisotropy =     6.2630

     22  H    Isotropic =    30.6937   Anisotropy =     7.0063

     23  H    Isotropic =    30.7728   Anisotropy =     4.9790

     24  H    Isotropic =    30.4791   Anisotropy =     5.9607

     25  H    Isotropic =    30.4833   Anisotropy =     6.7843

     26  H    Isotropic =    30.8169   Anisotropy =     5.9565

     27  H    Isotropic =    30.6373   Anisotropy =     5.8783

     28  H    Isotropic =    30.5592   Anisotropy =     6.2706

     29  H    Isotropic =    30.5111   Anisotropy =     6.3460

     30  Rh   Isotropic =  -311.0243   Anisotropy =   343.1878

     31  C    Isotropic =    77.7531   Anisotropy =   123.0306

     32  C    Isotropic =    78.3834   Anisotropy =   114.5983

     33  C    Isotropic =    80.4100   Anisotropy =   119.5769

     34  C    Isotropic =    76.3211   Anisotropy =   117.0780

     35  C    Isotropic =   153.9618   Anisotropy =    25.0748

     36  H    Isotropic =    27.0014   Anisotropy =     6.4901

     37  H    Isotropic =    26.4289   Anisotropy =     5.2670

     38  C    Isotropic =   147.8513   Anisotropy =    30.0730

     39  C    Isotropic =   154.2163   Anisotropy =    24.3700

     40  H    Isotropic =    27.0900   Anisotropy =     7.0034

     41  C    Isotropic =   147.4058   Anisotropy =    30.7872

     42  H    Isotropic =    26.5265   Anisotropy =     4.1591

     43  H    Isotropic =    29.8947   Anisotropy =    11.3965

     44  H    Isotropic =    29.8076   Anisotropy =     9.2014

     45  H    Isotropic =    29.1074   Anisotropy =    12.2965

     46  H    Isotropic =    29.2005   Anisotropy =     7.5661

     47  H    Isotropic =    29.8457   Anisotropy =     9.3524

     48  H    Isotropic =    29.8909   Anisotropy =    11.3351

     49  H    Isotropic =    29.1932   Anisotropy =     7.6311

     50  H    Isotropic =    29.1354   Anisotropy =    12.3969

     51  C    Isotropic =   151.7349   Anisotropy =    39.1985

     52  H    Isotropic =    30.4659   Anisotropy =     4.8080

     53  H    Isotropic =    30.1909   Anisotropy =     4.1075

     54  C    Isotropic =   150.0546   Anisotropy =    38.8854

     55  H    Isotropic =    30.3798   Anisotropy =     5.3398

     56  H    Isotropic =    29.9312   Anisotropy =     5.4793

     57  C    Isotropic =   150.4705   Anisotropy =    37.5931

     58  H    Isotropic =    29.9161   Anisotropy =     5.5912

     59  H    Isotropic =    30.4026   Anisotropy =     5.4469

     60  C    Isotropic =   152.3035   Anisotropy =    37.6267

     61  H    Isotropic =    30.1655   Anisotropy =     4.1517

     62  H    Isotropic =    30.4305   Anisotropy =     4.7985

     63  C    Isotropic =   169.0621   Anisotropy =    29.1327

     64  H    Isotropic =    30.5307   Anisotropy =    11.8875

     65  H    Isotropic =    30.9995   Anisotropy =     8.5101

     66  H    Isotropic =    31.0093   Anisotropy =     7.7962

     67  C    Isotropic =   169.3183   Anisotropy =    29.1539

     68  H    Isotropic =    31.0016   Anisotropy =     8.2968

     69  H    Isotropic =    30.5364   Anisotropy =    11.8585

     70  H    Isotropic =    30.9908   Anisotropy =     8.4998

     71  C    Isotropic =   169.2982   Anisotropy =    29.1849

     72  H    Isotropic =    30.9976   Anisotropy =     8.4867

     73  H    Isotropic =    30.5428   Anisotropy =    11.8625

     74  H    Isotropic =    31.0050   Anisotropy =     8.3075

     75  C    Isotropic =   169.0280   Anisotropy =    29.1629

     76  H    Isotropic =    30.9820   Anisotropy =     8.4599

     77  H    Isotropic =    30.5193   Anisotropy =    11.8719

     78  H    Isotropic =    30.9811   Anisotropy =     7.8845

 The electronic state is 1-A.
 Alpha  occ. eigenvalues --  -77.23517 -77.23516 -10.30635 -10.29581 -10.29560
 Alpha  occ. eigenvalues --  -10.29544 -10.29527 -10.29509 -10.29437 -10.29363
 Alpha  occ. eigenvalues --  -10.29186 -10.27894 -10.27847 -10.27726 -10.27682
 Alpha  occ. eigenvalues --  -10.27672 -10.27660 -10.27652 -10.27606 -10.26005
 Alpha  occ. eigenvalues --  -10.25983 -10.25969 -10.25961 -10.24125 -10.24117
 Alpha  occ. eigenvalues --  -10.24043 -10.24040  -6.69569  -6.69565  -4.85867
 Alpha  occ. eigenvalues --   -4.85864  -4.85761  -4.85757  -4.85465  -4.85462
 Alpha  occ. eigenvalues --   -3.31874  -2.08764  -2.08097  -2.05325  -0.94845
 Alpha  occ. eigenvalues --   -0.92632  -0.91566  -0.90034  -0.90004  -0.89575
 Alpha  occ. eigenvalues --   -0.88380  -0.87726  -0.84943  -0.82635  -0.82545
 Alpha  occ. eigenvalues --   -0.82370  -0.80729  -0.78207  -0.76164  -0.74780
 Alpha  occ. eigenvalues --   -0.73840  -0.73698  -0.70932  -0.68272  -0.68230
 Alpha  occ. eigenvalues --   -0.68114  -0.68078  -0.66307  -0.65966  -0.65879
 Alpha  occ. eigenvalues --   -0.62848  -0.60515  -0.59270  -0.58876  -0.58150
 Alpha  occ. eigenvalues --   -0.58007  -0.57217  -0.56613  -0.56061  -0.55418
 Alpha  occ. eigenvalues --   -0.53990  -0.53734  -0.53371  -0.53098  -0.53049
 Alpha  occ. eigenvalues --   -0.52844  -0.52546  -0.52486  -0.52216  -0.51802
 Alpha  occ. eigenvalues --   -0.51540  -0.50685  -0.50179  -0.49057  -0.48615
 Alpha  occ. eigenvalues --   -0.48577  -0.48230  -0.47473  -0.47072  -0.46956
 Alpha  occ. eigenvalues --   -0.46363  -0.46172  -0.46006  -0.45929  -0.45851
 Alpha  occ. eigenvalues --   -0.45225  -0.44543  -0.44174  -0.43817  -0.43647
 Alpha  occ. eigenvalues --   -0.43535  -0.43314  -0.43023  -0.42538  -0.42356
 Alpha  occ. eigenvalues --   -0.42336  -0.42322  -0.42213  -0.42110  -0.41758
 Alpha  occ. eigenvalues --   -0.41693  -0.40784  -0.36963  -0.36801  -0.35327
 Alpha  occ. eigenvalues --   -0.34912  -0.34097  -0.31122
 Alpha virt. eigenvalues --   -0.16545  -0.14092  -0.09799  -0.08954  -0.08757
 Alpha virt. eigenvalues --   -0.08168  -0.07702  -0.06954  -0.06726  -0.06035
 Alpha virt. eigenvalues --   -0.05887  -0.05794  -0.04938  -0.04450  -0.04093

 Mulliken charges:
               1
     1  P    0.431996
     2  P    0.439025
     3  C   -0.569774
     4  C   -0.240242
     5  C   -0.213148
     6  C   -0.228116
     7  C   -0.196898
     8  C   -0.239051
     9  C   -0.211808
    10  C   -0.231699
    11  C   -0.196379
    12  H    0.205872
    13  H    0.209955
    14  H    0.128742
    15  H    0.100512
    16  H    0.115781
    17  H    0.118993
    18  H    0.126118
    19  H    0.119927
    20  H    0.116433
    21  H    0.113963
    22  H    0.100934
    23  H    0.127818
    24  H    0.115478
    25  H    0.118692
    26  H    0.120423
    27  H    0.126807
    28  H    0.113919
    29  H    0.116441
    30  Rh  -0.520602
    31  C   -0.026959
    32  C   -0.101809
    33  C   -0.028676
    34  C   -0.113334
    35  C   -0.348970
    36  H    0.180282
    37  H    0.190889
    38  C   -0.222994
    39  C   -0.343135
    40  H    0.182608
    41  C   -0.215726
    42  H    0.190135
    43  H    0.168804
    44  H    0.168522
    45  H    0.171930
    46  H    0.131146
    47  H    0.167135
    48  H    0.169074
    49  H    0.129010
    50  H    0.171523
    51  C   -0.354182
    52  H    0.161218
    53  H    0.163924
    54  C   -0.299811
    55  H    0.142184
    56  H    0.169829
    57  C   -0.297502
    58  H    0.169821
    59  H    0.139936
    60  C   -0.363414
    61  H    0.165842
    62  H    0.161703
    63  C   -0.348106
    64  H    0.144209
    65  H    0.117097
    66  H    0.112967
    67  C   -0.351894
    68  H    0.114547
    69  H    0.144283
    70  H    0.117227
    71  C   -0.351874
    72  H    0.117190
    73  H    0.144181
    74  H    0.114532
    75  C   -0.348564
    76  H    0.116978
    77  H    0.144295
    78  H    0.113816
 Sum of Mulliken charges =   1.00000

 Dipole moment (field-independent basis, Debye):
    X=              0.0107    Y=              0.6844    Z=             -0.3624  Tot=              0.7745
 Quadrupole moment (field-independent basis, Debye-Ang):
   XX=           -166.3693   YY=           -175.1752   ZZ=           -184.4039
   XY=             -0.0756   XZ=             -0.0463   YZ=              2.0281

 Summary of Natural Population Analysis:

                                       Natural Population
                Natural  -----------------------------------------------
    Atom  No    Charge         Core      Valence    Rydberg      Total
 -----------------------------------------------------------------------
      P    1    1.12343      9.99680     3.83176    0.04801    13.87657
      P    2    1.12743      9.99677     3.82760    0.04820    13.87257
      C    3   -0.99304      1.99945     4.97608    0.01751     6.99304
      C    4   -0.38658      1.99941     4.37595    0.01121     6.38658
      C    5   -0.37774      1.99945     4.36802    0.01027     6.37774
      C    6   -0.38967      1.99942     4.37847    0.01178     6.38967
      C    7   -0.37756      1.99945     4.36782    0.01029     6.37756
      C    8   -0.38658      1.99942     4.37586    0.01130     6.38658
      C    9   -0.37786      1.99945     4.36816    0.01025     6.37786
      C   10   -0.38932      1.99942     4.37809    0.01181     6.38932
      C   11   -0.37760      1.99945     4.36787    0.01028     6.37760
      H   12    0.25865      0.00000     0.73972    0.00163     0.74135
      H   13    0.25178      0.00000     0.74613    0.00210     0.74822
      H   14    0.19437      0.00000     0.80326    0.00236     0.80563
      H   15    0.19555      0.00000     0.80233    0.00213     0.80445
      H   16    0.19465      0.00000     0.80361    0.00174     0.80535
      H   17    0.19671      0.00000     0.80168    0.00160     0.80329
      H   18    0.19647      0.00000     0.80140    0.00213     0.80353
      H   19    0.19376      0.00000     0.80391    0.00233     0.80624
      H   20    0.19615      0.00000     0.80211    0.00174     0.80385
      H   21    0.19442      0.00000     0.80383    0.00175     0.80558
      H   22    0.19656      0.00000     0.80089    0.00256     0.80344
      H   23    0.19409      0.00000     0.80356    0.00235     0.80591
      H   24    0.19442      0.00000     0.80384    0.00174     0.80558
      H   25    0.19673      0.00000     0.80166    0.00161     0.80327
      H   26    0.19393      0.00000     0.80374    0.00233     0.80607
      H   27    0.19652      0.00000     0.80137    0.00212     0.80348
      H   28    0.19444      0.00000     0.80382    0.00175     0.80556
      H   29    0.19619      0.00000     0.80206    0.00174     0.80381
     Rh   30   -0.43519     35.98561     9.42320    0.02639    45.43519
      C   31   -0.16123      1.99905     4.14244    0.01975     6.16123
      C   32   -0.16416      1.99905     4.14469    0.02041     6.16416
      C   33   -0.17885      1.99905     4.15995    0.01984     6.17885
      C   34   -0.15021      1.99905     4.13060    0.02056     6.15021
      C   35   -0.42502      1.99936     4.41363    0.01202     6.42502
      H   36    0.22173      0.00000     0.77615    0.00212     0.77827
      H   37    0.22277      0.00000     0.77512    0.00212     0.77723
      C   38   -0.42150      1.99936     4.40966    0.01248     6.42150
      C   39   -0.42359      1.99937     4.41238    0.01184     6.42359
      H   40    0.22639      0.00000     0.77180    0.00182     0.77361
      C   41   -0.42117      1.99936     4.40926    0.01256     6.42117
      H   42    0.22117      0.00000     0.77674    0.00209     0.77883
      H   43    0.22881      0.00000     0.76980    0.00140     0.77119
      H   44    0.21475      0.00000     0.78329    0.00195     0.78525
      H   45    0.23413      0.00000     0.76406    0.00181     0.76587
      H   46    0.21835      0.00000     0.78012    0.00153     0.78165
      H   47    0.21419      0.00000     0.78386    0.00196     0.78581
      H   48    0.22893      0.00000     0.76967    0.00140     0.77107
      H   49    0.21784      0.00000     0.78061    0.00155     0.78216
      H   50    0.23377      0.00000     0.76442    0.00181     0.76623
      C   51   -0.67347      1.99938     4.66082    0.01326     6.67347
      H   52    0.23348      0.00000     0.76464    0.00188     0.76652
      H   53    0.23290      0.00000     0.76526    0.00184     0.76710
      C   54   -0.66926      1.99938     4.65568    0.01420     6.66926
      H   55    0.22769      0.00000     0.77013    0.00217     0.77231
      H   56    0.22539      0.00000     0.77176    0.00285     0.77461
      C   57   -0.66950      1.99938     4.65579    0.01433     6.66950
      H   58    0.22550      0.00000     0.77169    0.00281     0.77450
      H   59    0.22784      0.00000     0.76998    0.00218     0.77216
      C   60   -0.67529      1.99938     4.66274    0.01317     6.67529
      H   61    0.23303      0.00000     0.76511    0.00186     0.76697
      H   62    0.23284      0.00000     0.76528    0.00188     0.76716
      C   63   -0.58845      1.99947     4.58301    0.00597     6.58845
      H   64    0.21728      0.00000     0.78167    0.00105     0.78272
      H   65    0.20084      0.00000     0.79780    0.00136     0.79916
      H   66    0.19894      0.00000     0.79969    0.00138     0.80106
      C   67   -0.58854      1.99947     4.58310    0.00597     6.58854
      H   68    0.19986      0.00000     0.79879    0.00135     0.80014
      H   69    0.21739      0.00000     0.78156    0.00105     0.78261
      H   70    0.20095      0.00000     0.79770    0.00135     0.79905
      C   71   -0.58855      1.99947     4.58311    0.00597     6.58855
      H   72    0.20091      0.00000     0.79774    0.00135     0.79909
      H   73    0.21735      0.00000     0.78160    0.00105     0.78265
      H   74    0.19984      0.00000     0.79881    0.00136     0.80016
      C   75   -0.58855      1.99947     4.58310    0.00598     6.58855
      H   76    0.20082      0.00000     0.79783    0.00135     0.79918
      H   77    0.21739      0.00000     0.78156    0.00104     0.78261
      H   78    0.19919      0.00000     0.79944    0.00137     0.80081
 =======================================================================
   * Total *    1.00000    105.96316   167.51145    0.52539   274.00000

 Normal termination of Gaussian 16 at Tue Jan 21 10:26:08 2025.
