 Gaussian 16, Revision B.01,
 Gaussian 16:  ES64L-G16RevB.01 20-Dec-2017

 ------------------------------------------
 # nmr=giao b3lyp/genecp pop=nbo scfcyc=200
 ------------------------------------------

 --------
 MB-2_SPE
 --------
 Symbolic Z-matrix:
 Charge =  1 Multiplicity = 1

                         Standard orientation:
 ---------------------------------------------------------------------
 Center     Atomic      Atomic             Coordinates (Angstroms)
 Number     Number       Type             X           Y           Z
 ---------------------------------------------------------------------
      1         15           0        1.483060    1.384110    0.012321
      2         15           0        1.475499   -1.379780   -0.125809
      3          6           0        2.098730    2.014159    1.635111
      4          1           0        2.080350    1.221239    2.381411
      5          1           0        1.436070    2.811160    1.973761
      6          1           0        3.111490    2.409699    1.549431
      7          6           0        2.105519   -2.192761    1.407691
      8          1           0        1.443819   -3.021410    1.661911
      9          1           0        2.100319   -1.489811    2.239491
     10          1           0        3.115099   -2.579881    1.265381
     11          6           0        2.662070    0.023389   -0.541399
     12          1           0        2.630940    0.077979   -1.634839
     13          6           0        1.697739   -2.675981   -1.421379
     14          1           0        2.730899   -3.025321   -1.451899
     15          1           0        1.421789   -2.272160   -2.394819
     16          1           0        1.047138   -3.523270   -1.201089
     17          6           0        1.738300    2.814369   -1.126949
     18          1           0        1.100411    3.643240   -0.817449
     19          1           0        1.466900    2.528860   -2.142709
     20          1           0        2.777330    3.146649   -1.108949
     21         45           0       -0.415210    0.003660    0.014781
     22          6           0       -2.083340    1.416851    0.683941
     23          6           0       -1.946900    1.508431   -0.684599
     24          6           0       -2.084361   -1.415619   -0.645829
     25          6           0       -1.937921   -1.507089    0.721491
     26          6           0       -3.164220    0.643241    1.415231
     27          1           0       -1.556740    2.154580    1.280201
     28          1           0       -1.357430    2.334110   -1.069919
     29          6           0       -2.778020    0.803531   -1.727889
     30          6           0       -3.173651   -0.644619   -1.367799
     31          1           0       -1.561151   -2.151470   -1.246759
     32          6           0       -2.762011   -0.804589    1.771731
     33          1           0       -1.340491   -2.330020    1.101761
     34          1           0       -3.400350    1.171051    2.340471
     35          1           0       -4.080610    0.649231    0.825901
     36          1           0       -3.679930    1.391811   -1.938049
     37          1           0       -2.205420    0.796481   -2.657869
     38          1           0       -4.084351   -0.652769   -0.769749
     39          1           0       -3.417091   -1.173649   -2.290489
     40          1           0       -2.181951   -0.796569    2.697111
     41          1           0       -3.661001   -1.394449    1.989501
     42          6           0        4.110560   -0.003941   -0.066739
     43          1           0        4.640019   -0.864241   -0.482019
     44          1           0        4.644910    0.889319   -0.397579
     45          1           0        4.190160   -0.056251    1.019381
 ---------------------------------------------------------------------

 SCF Done:  E(RB3LYP) =  -1343.77045449     A.U. after   14 cycles

      1  P    Isotropic =   327.2531   Anisotropy =    29.8291

      2  P    Isotropic =   326.4432   Anisotropy =    29.4002

      3  C    Isotropic =   171.3772   Anisotropy =    24.1542

      4  H    Isotropic =    30.6516   Anisotropy =     7.9599

      5  H    Isotropic =    30.6096   Anisotropy =     9.1910

      6  H    Isotropic =    30.3751   Anisotropy =    10.8547

      7  C    Isotropic =   171.6829   Anisotropy =    23.5740

      8  H    Isotropic =    30.5602   Anisotropy =     9.1998

      9  H    Isotropic =    30.6357   Anisotropy =     7.9254

     10  H    Isotropic =    30.3785   Anisotropy =    10.7994

     11  C    Isotropic =   124.8150   Anisotropy =    41.1400

     12  H    Isotropic =    28.7371   Anisotropy =     2.9488

     13  C    Isotropic =   168.7749   Anisotropy =    31.8365

     14  H    Isotropic =    30.2837   Anisotropy =    10.8950

     15  H    Isotropic =    30.7545   Anisotropy =     9.2302

     16  H    Isotropic =    30.7050   Anisotropy =     9.3595

     17  C    Isotropic =   169.1456   Anisotropy =    30.9509

     18  H    Isotropic =    30.6815   Anisotropy =     9.4456

     19  H    Isotropic =    30.7013   Anisotropy =     9.2099

     20  H    Isotropic =    30.2749   Anisotropy =    10.7850

     21  Rh   Isotropic =  -294.5388   Anisotropy =   330.1048

     22  C    Isotropic =    78.4848   Anisotropy =   121.6777

     23  C    Isotropic =    74.7564   Anisotropy =   118.8290

     24  C    Isotropic =    76.6095   Anisotropy =   123.9961

     25  C    Isotropic =    76.4950   Anisotropy =   116.4282

     26  C    Isotropic =   154.0824   Anisotropy =    24.6766

     27  H    Isotropic =    27.0833   Anisotropy =     7.6464

     28  H    Isotropic =    26.4420   Anisotropy =     5.0056

     29  C    Isotropic =   147.6674   Anisotropy =    30.1920

     30  C    Isotropic =   153.9337   Anisotropy =    24.8876

     31  H    Isotropic =    26.9515   Anisotropy =     7.2720

     32  C    Isotropic =   147.8747   Anisotropy =    29.7467

     33  H    Isotropic =    26.5629   Anisotropy =     5.3942

     34  H    Isotropic =    29.8637   Anisotropy =    11.5503

     35  H    Isotropic =    29.7864   Anisotropy =     8.9399

     36  H    Isotropic =    29.0892   Anisotropy =    12.1942

     37  H    Isotropic =    29.1563   Anisotropy =     8.1254

     38  H    Isotropic =    29.7632   Anisotropy =     8.8251

     39  H    Isotropic =    29.8441   Anisotropy =    11.4712

     40  H    Isotropic =    29.2319   Anisotropy =     8.1979

     41  H    Isotropic =    29.0928   Anisotropy =    12.2293

     42  C    Isotropic =   174.2875   Anisotropy =    19.9666

     43  H    Isotropic =    30.6176   Anisotropy =    11.4108

     44  H    Isotropic =    30.6187   Anisotropy =    11.4236

     45  H    Isotropic =    30.6431   Anisotropy =     6.5557

 The electronic state is 1-A.
 Alpha  occ. eigenvalues --  -77.24944 -77.24938 -10.32576 -10.30396 -10.30369
 Alpha  occ. eigenvalues --  -10.30326 -10.30299 -10.30286 -10.30264 -10.30233
 Alpha  occ. eigenvalues --  -10.30138 -10.29440 -10.28607 -10.28597 -10.28368
 Alpha  occ. eigenvalues --  -10.28344  -6.70989  -6.70983  -4.87271  -4.87264
 Alpha  occ. eigenvalues --   -4.87204  -4.87199  -4.86884  -4.86877  -3.32866
 Alpha  occ. eigenvalues --   -2.09795  -2.09113  -2.06274  -0.95642  -0.93271
 Alpha  occ. eigenvalues --   -0.90436  -0.89121  -0.88461  -0.86263  -0.82951
 Alpha  occ. eigenvalues --   -0.82719  -0.81514  -0.78988  -0.78299  -0.71697
 Alpha  occ. eigenvalues --   -0.68554  -0.67058  -0.66270  -0.63625  -0.61298
 Alpha  occ. eigenvalues --   -0.58724  -0.58679  -0.57497  -0.57358  -0.57056
 Alpha  occ. eigenvalues --   -0.55886  -0.55524  -0.54708  -0.54177  -0.53757
 Alpha  occ. eigenvalues --   -0.53677  -0.53659  -0.53520  -0.52781  -0.52774
 Alpha  occ. eigenvalues --   -0.52625  -0.50176  -0.49388  -0.48976  -0.48091
 Alpha  occ. eigenvalues --   -0.47543  -0.47071  -0.46812  -0.44580  -0.44340
 Alpha  occ. eigenvalues --   -0.43449  -0.43227  -0.42589  -0.38262  -0.37801
 Alpha  occ. eigenvalues --   -0.36440  -0.36020  -0.35155  -0.32086
 Alpha virt. eigenvalues --   -0.17515  -0.14961  -0.10932  -0.10292  -0.09191
 Alpha virt. eigenvalues --   -0.09109  -0.08432  -0.07528  -0.06954  -0.05868
 Alpha virt. eigenvalues --   -0.05694  -0.05584  -0.05415  -0.04666  -0.04158

 Mulliken charges:
               1
     1  P    0.338638
     2  P    0.330874
     3  C   -0.429145
     4  H    0.151837
     5  H    0.167387
     6  H    0.166954
     7  C   -0.432356
     8  H    0.167521
     9  H    0.152833
    10  H    0.167954
    11  C   -0.406658
    12  H    0.206671
    13  C   -0.408868
    14  H    0.161770
    15  H    0.160376
    16  H    0.164808
    17  C   -0.420659
    18  H    0.167238
    19  H    0.161308
    20  H    0.163550
    21  Rh  -0.494307
    22  C   -0.011265
    23  C   -0.097678
    24  C   -0.016221
    25  C   -0.087164
    26  C   -0.345449
    27  H    0.168776
    28  H    0.183351
    29  C   -0.218048
    30  C   -0.348766
    31  H    0.178188
    32  C   -0.217038
    33  H    0.169388
    34  H    0.172556
    35  H    0.168449
    36  H    0.175805
    37  H    0.132646
    38  H    0.169738
    39  H    0.172410
    40  H    0.133962
    41  H    0.174872
    42  C   -0.352450
    43  H    0.155257
    44  H    0.155345
    45  H    0.145608
 Sum of Mulliken charges =   1.00000

 Dipole moment (field-independent basis, Debye):
    X=              3.1198    Y=             -0.0065    Z=             -0.1707  Tot=              3.1244
 Quadrupole moment (field-independent basis, Debye-Ang):
   XX=            -98.7125   YY=           -110.8838   ZZ=           -121.5974
   XY=              0.0699   XZ=             -0.5201   YZ=              0.4400

 Summary of Natural Population Analysis:

                                       Natural Population
                Natural  -----------------------------------------------
    Atom  No    Charge         Core      Valence    Rydberg      Total
 -----------------------------------------------------------------------
      P    1    1.12843      9.99669     3.82602    0.04886    13.87157
      P    2    1.12864      9.99669     3.82585    0.04883    13.87136
      C    3   -0.90391      1.99942     4.89456    0.00993     6.90391
      H    4    0.23983      0.00000     0.75895    0.00122     0.76017
      H    5    0.24679      0.00000     0.75209    0.00111     0.75321
      H    6    0.23908      0.00000     0.75909    0.00183     0.76092
      C    7   -0.90473      1.99942     4.89542    0.00989     6.90473
      H    8    0.24614      0.00000     0.75276    0.00110     0.75386
      H    9    0.23985      0.00000     0.75894    0.00121     0.76015
      H   10    0.23951      0.00000     0.75865    0.00184     0.76049
      C   11   -0.75041      1.99946     4.73052    0.02044     6.75041
      H   12    0.24908      0.00000     0.74931    0.00161     0.75092
      C   13   -0.90201      1.99942     4.89332    0.00927     6.90201
      H   14    0.23966      0.00000     0.75850    0.00184     0.76034
      H   15    0.24416      0.00000     0.75476    0.00108     0.75584
      H   16    0.24475      0.00000     0.75416    0.00109     0.75525
      C   17   -0.90347      1.99942     4.89478    0.00927     6.90347
      H   18    0.24483      0.00000     0.75407    0.00110     0.75517
      H   19    0.24378      0.00000     0.75515    0.00108     0.75622
      H   20    0.24017      0.00000     0.75797    0.00186     0.75983
     Rh   21   -0.46773     35.98535     9.45696    0.02543    45.46773
      C   22   -0.16907      1.99904     4.14992    0.02010     6.16907
      C   23   -0.14841      1.99904     4.12874    0.02063     6.14841
      C   24   -0.15972      1.99904     4.14084    0.01984     6.15972
      C   25   -0.15441      1.99904     4.13486    0.02051     6.15441
      C   26   -0.42295      1.99937     4.41165    0.01194     6.42295
      H   27    0.22646      0.00000     0.77201    0.00153     0.77354
      H   28    0.22251      0.00000     0.77579    0.00170     0.77749
      C   29   -0.42274      1.99936     4.41093    0.01246     6.42274
      C   30   -0.42355      1.99936     4.41217    0.01201     6.42355
      H   31    0.22305      0.00000     0.77522    0.00173     0.77695
      C   32   -0.42301      1.99936     4.41120    0.01245     6.42301
      H   33    0.22212      0.00000     0.77613    0.00175     0.77788
      H   34    0.23114      0.00000     0.76745    0.00141     0.76886
      H   35    0.21286      0.00000     0.78512    0.00202     0.78714
      H   36    0.23637      0.00000     0.76186    0.00176     0.76363
      H   37    0.21918      0.00000     0.77931    0.00151     0.78082
      H   38    0.21303      0.00000     0.78493    0.00204     0.78697
      H   39    0.23091      0.00000     0.76767    0.00142     0.76909
      H   40    0.21950      0.00000     0.77900    0.00150     0.78050
      H   41    0.23669      0.00000     0.76155    0.00176     0.76331
      C   42   -0.61429      1.99941     4.60490    0.00998     6.61429
      H   43    0.22500      0.00000     0.77341    0.00159     0.77500
      H   44    0.22505      0.00000     0.77336    0.00159     0.77495
      H   45    0.21184      0.00000     0.78661    0.00155     0.78816
 =======================================================================
   * Total *    1.00000     83.96889   101.66646    0.36464   186.00000

 Normal termination of Gaussian 16 at Tue Jan 21 00:43:53 2025.
