 Gaussian 16, Revision B.01,
 Gaussian 16:  ES64L-G16RevB.01 20-Dec-2017

 ------------------------------------------
 # nmr=giao b3lyp/genecp pop=nbo scfcyc=200
 ------------------------------------------

 ---------
 MB-29_SPE
 ---------
 Symbolic Z-matrix:
 Charge =  1 Multiplicity = 1

                         Standard orientation:
 ---------------------------------------------------------------------
 Center     Atomic      Atomic             Coordinates (Angstroms)
 Number     Number       Type             X           Y           Z
 ---------------------------------------------------------------------
      1         15           0       -1.361990   -0.817499    0.220730
      2         15           0        1.336060   -0.888321   -0.062480
      3          6           0       -0.032441   -2.123780    0.233190
      4          8           0       -2.238240   -0.924439    1.581930
      5          6           0       -2.834421   -2.172879    2.104190
      6          6           0       -4.336361   -1.975228    2.184960
      7          6           0       -2.195431   -2.456069    3.452120
      8          8           0       -2.280000   -1.382739   -1.009680
      9          6           0       -3.017050   -0.540418   -1.960140
     10          6           0       -3.117340   -1.341968   -3.244580
     11          6           0       -4.370450   -0.152318   -1.389130
     12          8           0        2.068220   -1.235111   -1.468590
     13          6           0        2.587379   -2.568021   -1.841860
     14          6           0        4.075249   -2.431062   -2.104760
     15          6           0        1.806759   -3.040361   -3.055580
     16          8           0        2.355860   -1.314621    1.143280
     17          6           0        3.198650   -0.384272    1.904170
     18          6           0        3.452330   -1.048002    3.244920
     19          6           0        4.474230   -0.069822    1.140950
     20          1           0       -0.170801   -2.863810   -0.553380
     21          1           0        0.095119   -2.614140    1.197210
     22          1           0       -2.606181   -2.977179    1.399670
     23          1           0       -4.805851   -2.874498    2.588210
     24          1           0       -4.576570   -1.139148    2.843950
     25          1           0       -4.763261   -1.780468    1.202180
     26          1           0       -2.612151   -3.371589    3.876070
     27          1           0       -1.115551   -2.583889    3.367250
     28          1           0       -2.391201   -1.636769    4.145720
     29          1           0       -2.410590    0.352661   -2.133940
     30          1           0       -3.640740   -0.760878   -4.005940
     31          1           0       -2.127540   -1.594019   -3.625460
     32          1           0       -3.672691   -2.266468   -3.077830
     33          1           0       -4.903829    0.482152   -2.099750
     34          1           0       -4.979010   -1.039528   -1.206360
     35          1           0       -4.273730    0.398252   -0.451780
     36          1           0        2.423799   -3.243891   -0.998280
     37          1           0        4.604529   -2.094562   -1.214370
     38          1           0        4.488409   -3.396682   -2.402420
     39          1           0        4.256549   -1.718122   -2.910870
     40          1           0        2.162388   -4.024401   -3.366690
     41          1           0        0.739729   -3.117480   -2.843030
     42          1           0        1.942419   -2.347831   -3.887900
     43          1           0        2.613821    0.527269    2.054330
     44          1           0        4.057120   -0.393722    3.875320
     45          1           0        2.515050   -1.252971    3.762380
     46          1           0        3.989779   -1.988412    3.112200
     47          1           0        5.083461    0.633378    1.712220
     48          1           0        5.061990   -0.975892    0.985050
     49          1           0        4.266710    0.377618    0.167260
     50         45           0        0.019301    1.027120   -0.026880
     51          6           0        1.592532    2.722759    0.147840
     52          6           0        1.322972    2.493559   -1.180610
     53          6           0       -1.506188    2.728681   -0.389790
     54          6           0       -1.240848    2.640851    0.957180
     55          6           0        1.033382    3.847700    0.997670
     56          1           0        2.460081    2.220219    0.558290
     57          1           0        1.998141    1.834769   -1.717920
     58          6           0        0.366232    3.258730   -2.058740
     59          6           0       -0.921748    3.740980   -1.356270
     60          1           0       -2.387749    2.207071   -0.743230
     61          6           0       -0.266128    3.477440    1.746020
     62          1           0       -1.933059    2.064261    1.562830
     63          1           0        1.785222    4.125199    1.738230
     64          1           0        0.880543    4.733720    0.382770
     65          1           0        0.888342    4.116230   -2.501500
     66          1           0        0.097422    2.612020   -2.896820
     67          1           0       -0.745257    4.684180   -0.840940
     68          1           0       -1.668018    3.955331   -2.122980
     69          1           0       -0.013068    2.923630    2.652640
     70          1           0       -0.767918    4.391560    2.087490
 ---------------------------------------------------------------------

 SCF Done:  E(RB3LYP) =  -1920.10764749     A.U. after   15 cycles

      1  P    Isotropic =   178.8666   Anisotropy =   161.7114

      2  P    Isotropic =   180.1997   Anisotropy =   158.8024

      3  C    Isotropic =   109.0865   Anisotropy =    61.2862

      4  O    Isotropic =   161.2758   Anisotropy =    92.5751

      5  C    Isotropic =   103.7099   Anisotropy =    80.5035

      6  C    Isotropic =   159.9192   Anisotropy =    37.7951

      7  C    Isotropic =   159.2164   Anisotropy =    38.5439

      8  O    Isotropic =   144.8810   Anisotropy =    81.4867

      9  C    Isotropic =   101.5330   Anisotropy =    78.8348

     10  C    Isotropic =   159.4597   Anisotropy =    39.3021

     11  C    Isotropic =   158.8365   Anisotropy =    34.5798

     12  O    Isotropic =   162.0096   Anisotropy =    92.9531

     13  C    Isotropic =   103.9846   Anisotropy =    80.2698

     14  C    Isotropic =   159.9019   Anisotropy =    37.9535

     15  C    Isotropic =   159.2626   Anisotropy =    38.3124

     16  O    Isotropic =   146.1723   Anisotropy =    82.0104

     17  C    Isotropic =   101.7785   Anisotropy =    78.5288

     18  C    Isotropic =   159.4931   Anisotropy =    39.6126

     19  C    Isotropic =   158.9452   Anisotropy =    34.4444

     20  H    Isotropic =    27.8986   Anisotropy =     4.6227

     21  H    Isotropic =    27.9933   Anisotropy =     4.7014

     22  H    Isotropic =    27.5653   Anisotropy =     5.1696

     23  H    Isotropic =    30.6960   Anisotropy =    10.9647

     24  H    Isotropic =    30.5671   Anisotropy =     6.3534

     25  H    Isotropic =    30.4434   Anisotropy =     7.4222

     26  H    Isotropic =    30.6826   Anisotropy =    10.8764

     27  H    Isotropic =    30.6569   Anisotropy =     6.7467

     28  H    Isotropic =    30.4403   Anisotropy =     6.1182

     29  H    Isotropic =    27.2095   Anisotropy =     4.8587

     30  H    Isotropic =    30.6332   Anisotropy =    10.0514

     31  H    Isotropic =    30.3366   Anisotropy =     7.5343

     32  H    Isotropic =    30.3854   Anisotropy =     7.5366

     33  H    Isotropic =    30.6845   Anisotropy =     9.9098

     34  H    Isotropic =    30.4858   Anisotropy =     6.8373

     35  H    Isotropic =    30.7763   Anisotropy =     4.2886

     36  H    Isotropic =    27.5188   Anisotropy =     5.0591

     37  H    Isotropic =    30.4458   Anisotropy =     7.4575

     38  H    Isotropic =    30.6762   Anisotropy =    10.9873

     39  H    Isotropic =    30.5480   Anisotropy =     6.3410

     40  H    Isotropic =    30.6703   Anisotropy =    10.8613

     41  H    Isotropic =    30.6058   Anisotropy =     6.9617

     42  H    Isotropic =    30.4355   Anisotropy =     5.9049

     43  H    Isotropic =    27.3063   Anisotropy =     4.7126

     44  H    Isotropic =    30.6526   Anisotropy =    10.1183

     45  H    Isotropic =    30.3561   Anisotropy =     7.6376

     46  H    Isotropic =    30.4048   Anisotropy =     7.5800

     47  H    Isotropic =    30.7111   Anisotropy =     9.8682

     48  H    Isotropic =    30.5024   Anisotropy =     6.7533

     49  H    Isotropic =    30.8349   Anisotropy =     4.1603

     50  Rh   Isotropic =  -307.9951   Anisotropy =   358.1217

     51  C    Isotropic =    76.8685   Anisotropy =   124.7856

     52  C    Isotropic =    69.1680   Anisotropy =   130.2125

     53  C    Isotropic =    77.8465   Anisotropy =   123.2524

     54  C    Isotropic =    69.5177   Anisotropy =   129.8295

     55  C    Isotropic =   154.3956   Anisotropy =    23.1238

     56  H    Isotropic =    26.9461   Anisotropy =     6.3724

     57  H    Isotropic =    25.8594   Anisotropy =     4.2404

     58  C    Isotropic =   147.9269   Anisotropy =    28.6970

     59  C    Isotropic =   154.4633   Anisotropy =    23.0471

     60  H    Isotropic =    26.9972   Anisotropy =     6.3269

     61  C    Isotropic =   147.9729   Anisotropy =    28.8610

     62  H    Isotropic =    25.8626   Anisotropy =     4.3398

     63  H    Isotropic =    29.9044   Anisotropy =    10.9952

     64  H    Isotropic =    29.6912   Anisotropy =     9.0701

     65  H    Isotropic =    29.0857   Anisotropy =    12.2338

     66  H    Isotropic =    29.1529   Anisotropy =     7.4583

     67  H    Isotropic =    29.7151   Anisotropy =     9.0810

     68  H    Isotropic =    29.9139   Anisotropy =    10.9708

     69  H    Isotropic =    29.1328   Anisotropy =     7.5447

     70  H    Isotropic =    29.0815   Anisotropy =    12.2347

 The electronic state is 1-A.
 Alpha  occ. eigenvalues --  -77.30332 -77.30306 -19.25945 -19.25895 -19.25888
 Alpha  occ. eigenvalues --  -19.25887 -10.34228 -10.34169 -10.34075 -10.34027
 Alpha  occ. eigenvalues --  -10.30306 -10.30271 -10.30024 -10.30004 -10.29988
 Alpha  occ. eigenvalues --  -10.28528 -10.28505 -10.28340 -10.28336 -10.26524
 Alpha  occ. eigenvalues --  -10.26465 -10.26130 -10.26112 -10.25938 -10.25937
 Alpha  occ. eigenvalues --  -10.25799 -10.25781  -6.75380  -6.75365  -4.91799
 Alpha  occ. eigenvalues --   -4.91783  -4.91670  -4.91653  -4.91240  -4.91224
 Alpha  occ. eigenvalues --   -3.33017  -2.10060  -2.09219  -2.06351  -1.16478
 Alpha  occ. eigenvalues --   -1.16304  -1.13064  -1.13030  -0.95550  -0.90991
 Alpha  occ. eigenvalues --   -0.90369  -0.89934  -0.89082  -0.88683  -0.88671
 Alpha  occ. eigenvalues --   -0.85762  -0.81441  -0.79701  -0.79667  -0.79265
 Alpha  occ. eigenvalues --   -0.79227  -0.78950  -0.75131  -0.73191  -0.71650
 Alpha  occ. eigenvalues --   -0.70781  -0.70550  -0.67141  -0.66866  -0.66665
 Alpha  occ. eigenvalues --   -0.63730  -0.63494  -0.63015  -0.61534  -0.60827
 Alpha  occ. eigenvalues --   -0.58332  -0.57176  -0.57056  -0.56655  -0.56507
 Alpha  occ. eigenvalues --   -0.56345  -0.56015  -0.55695  -0.55277  -0.54684
 Alpha  occ. eigenvalues --   -0.53883  -0.53643  -0.53623  -0.53541  -0.52599
 Alpha  occ. eigenvalues --   -0.51566  -0.50971  -0.50349  -0.49543  -0.49417
 Alpha  occ. eigenvalues --   -0.49196  -0.49135  -0.49115  -0.48964  -0.48903
 Alpha  occ. eigenvalues --   -0.48807  -0.48500  -0.48438  -0.48148  -0.47186
 Alpha  occ. eigenvalues --   -0.47105  -0.46927  -0.46324  -0.46222  -0.45984
 Alpha  occ. eigenvalues --   -0.44892  -0.44795  -0.44323  -0.44240  -0.44134
 Alpha  occ. eigenvalues --   -0.43772  -0.42478  -0.42185  -0.41674  -0.40675
 Alpha  occ. eigenvalues --   -0.40496  -0.40473  -0.38169  -0.37775  -0.36706
 Alpha  occ. eigenvalues --   -0.36137  -0.35077  -0.32040
 Alpha virt. eigenvalues --   -0.17922  -0.15103  -0.10518  -0.09201  -0.08145
 Alpha virt. eigenvalues --   -0.08014  -0.07400  -0.07313  -0.06847  -0.05850
 Alpha virt. eigenvalues --   -0.05667  -0.04558  -0.04208  -0.04072  -0.03706

 Mulliken charges:
               1
     1  P    0.661685
     2  P    0.659322
     3  C   -0.551300
     4  O   -0.336964
     5  C   -0.015727
     6  C   -0.343971
     7  C   -0.310492
     8  O   -0.349467
     9  C   -0.006438
    10  C   -0.336162
    11  C   -0.367660
    12  O   -0.335962
    13  C   -0.017776
    14  C   -0.343218
    15  C   -0.315689
    16  O   -0.351092
    17  C   -0.007862
    18  C   -0.330986
    19  C   -0.368380
    20  H    0.218829
    21  H    0.218753
    22  H    0.142983
    23  H    0.140185
    24  H    0.133192
    25  H    0.140302
    26  H    0.142969
    27  H    0.118553
    28  H    0.134460
    29  H    0.123288
    30  H    0.133962
    31  H    0.134967
    32  H    0.135764
    33  H    0.148476
    34  H    0.141158
    35  H    0.138316
    36  H    0.145116
    37  H    0.138763
    38  H    0.140072
    39  H    0.132767
    40  H    0.143209
    41  H    0.121544
    42  H    0.133895
    43  H    0.121771
    44  H    0.133171
    45  H    0.132785
    46  H    0.135852
    47  H    0.149028
    48  H    0.141807
    49  H    0.137754
    50  Rh  -0.564123
    51  C   -0.043407
    52  C   -0.082921
    53  C   -0.052288
    54  C   -0.072410
    55  C   -0.359584
    56  H    0.194441
    57  H    0.185429
    58  C   -0.211269
    59  C   -0.362481
    60  H    0.195625
    61  C   -0.213171
    62  H    0.189082
    63  H    0.171234
    64  H    0.169220
    65  H    0.178276
    66  H    0.136911
    67  H    0.169559
    68  H    0.171120
    69  H    0.136977
    70  H    0.178227
 Sum of Mulliken charges =   1.00000

 Dipole moment (field-independent basis, Debye):
    X=              0.0376    Y=              0.1614    Z=              0.0609  Tot=              0.1765
 Quadrupole moment (field-independent basis, Debye-Ang):
   XX=           -158.4322   YY=           -161.4701   ZZ=           -175.3299
   XY=              0.6123   XZ=              2.8264   YZ=             -0.6090

 Summary of Natural Population Analysis:

                                       Natural Population
                Natural  -----------------------------------------------
    Atom  No    Charge         Core      Valence    Rydberg      Total
 -----------------------------------------------------------------------
      P    1    1.72344      9.99588     3.18837    0.09231    13.27656
      P    2    1.71903      9.99593     3.19321    0.09184    13.28097
      C    3   -1.09284      1.99944     5.07748    0.01591     7.09284
      O    4   -0.78641      1.99981     6.77292    0.01368     8.78641
      C    5    0.09747      1.99929     3.88694    0.01629     5.90253
      C    6   -0.60769      1.99941     4.60136    0.00692     6.60769
      C    7   -0.60814      1.99941     4.60197    0.00676     6.60814
      O    8   -0.78873      1.99980     6.77456    0.01436     8.78873
      C    9    0.10406      1.99929     3.88133    0.01532     5.89594
      C   10   -0.60453      1.99941     4.59790    0.00722     6.60453
      C   11   -0.62129      1.99941     4.61510    0.00678     6.62129
      O   12   -0.78585      1.99981     6.77213    0.01392     8.78585
      C   13    0.09696      1.99929     3.88742    0.01632     5.90304
      C   14   -0.60714      1.99941     4.60082    0.00691     6.60714
      C   15   -0.60888      1.99941     4.60264    0.00683     6.60888
      O   16   -0.78846      1.99980     6.77457    0.01408     8.78846
      C   17    0.10467      1.99929     3.88077    0.01528     5.89533
      C   18   -0.60413      1.99941     4.59747    0.00725     6.60413
      C   19   -0.62167      1.99941     4.61545    0.00681     6.62167
      H   20    0.27158      0.00000     0.72644    0.00198     0.72842
      H   21    0.27231      0.00000     0.72578    0.00191     0.72769
      H   22    0.17644      0.00000     0.82115    0.00241     0.82356
      H   23    0.22192      0.00000     0.77703    0.00105     0.77808
      H   24    0.21484      0.00000     0.78374    0.00141     0.78516
      H   25    0.21444      0.00000     0.78415    0.00141     0.78556
      H   26    0.22284      0.00000     0.77610    0.00106     0.77716
      H   27    0.20532      0.00000     0.79325    0.00142     0.79468
      H   28    0.21706      0.00000     0.78152    0.00142     0.78294
      H   29    0.17797      0.00000     0.81962    0.00240     0.82203
      H   30    0.21950      0.00000     0.77945    0.00106     0.78050
      H   31    0.21514      0.00000     0.78361    0.00125     0.78486
      H   32    0.21612      0.00000     0.78250    0.00139     0.78388
      H   33    0.22330      0.00000     0.77559    0.00111     0.77670
      H   34    0.21657      0.00000     0.78177    0.00166     0.78343
      H   35    0.20981      0.00000     0.78886    0.00133     0.79019
      H   36    0.17672      0.00000     0.82086    0.00241     0.82328
      H   37    0.21404      0.00000     0.78454    0.00142     0.78596
      H   38    0.22174      0.00000     0.77721    0.00105     0.77826
      H   39    0.21472      0.00000     0.78387    0.00141     0.78528
      H   40    0.22268      0.00000     0.77626    0.00106     0.77732
      H   41    0.20600      0.00000     0.79252    0.00148     0.79400
      H   42    0.21668      0.00000     0.78189    0.00143     0.78332
      H   43    0.17643      0.00000     0.82119    0.00238     0.82357
      H   44    0.21959      0.00000     0.77935    0.00106     0.78041
      H   45    0.21555      0.00000     0.78326    0.00119     0.78445
      H   46    0.21620      0.00000     0.78241    0.00139     0.78380
      H   47    0.22365      0.00000     0.77523    0.00112     0.77635
      H   48    0.21667      0.00000     0.78165    0.00168     0.78333
      H   49    0.20935      0.00000     0.78932    0.00132     0.79065
     Rh   50   -0.55669     35.98508     9.54733    0.02428    45.55669
      C   51   -0.17520      1.99906     4.15565    0.02048     6.17520
      C   52   -0.14561      1.99907     4.12585    0.02069     6.14561
      C   53   -0.17572      1.99906     4.15621    0.02045     6.17572
      C   54   -0.14488      1.99907     4.12519    0.02062     6.14488
      C   55   -0.42457      1.99936     4.41317    0.01204     6.42457
      H   56    0.22303      0.00000     0.77484    0.00213     0.77697
      H   57    0.23723      0.00000     0.76107    0.00170     0.76277
      C   58   -0.42480      1.99936     4.41296    0.01248     6.42480
      C   59   -0.42444      1.99936     4.41303    0.01204     6.42444
      H   60    0.22346      0.00000     0.77442    0.00212     0.77654
      C   61   -0.42473      1.99936     4.41290    0.01248     6.42473
      H   62    0.23850      0.00000     0.75982    0.00168     0.76150
      H   63    0.22997      0.00000     0.76859    0.00144     0.77003
      H   64    0.21375      0.00000     0.78421    0.00203     0.78625
      H   65    0.23881      0.00000     0.75943    0.00176     0.76119
      H   66    0.22213      0.00000     0.77633    0.00154     0.77787
      H   67    0.21374      0.00000     0.78423    0.00203     0.78626
      H   68    0.22999      0.00000     0.76857    0.00144     0.77001
      H   69    0.22231      0.00000     0.77616    0.00153     0.77769
      H   70    0.23868      0.00000     0.75956    0.00176     0.76132
 =======================================================================
   * Total *    1.00000    105.96172   167.44209    0.59620   274.00000

 Normal termination of Gaussian 16 at Tue Jan 21 10:35:56 2025.
