 Gaussian 16, Revision B.01,
 Gaussian 16:  ES64L-G16RevB.01 20-Dec-2017

 ------------------------------------------
 # nmr=giao b3lyp/genecp pop=nbo scfcyc=200
 ------------------------------------------

 ---------
 MB-30_SPE
 ---------
 Symbolic Z-matrix:
 Charge =  1 Multiplicity = 1

                         Standard orientation:
 ---------------------------------------------------------------------
 Center     Atomic      Atomic             Coordinates (Angstroms)
 Number     Number       Type             X           Y           Z
 ---------------------------------------------------------------------
      1          6           0       -0.000291   -1.886011   -0.000869
      2          1           0       -0.002351   -2.512921    0.893861
      3          1           0        0.001649   -2.511911   -0.896309
      4         45           0        0.000121    1.227189   -0.000009
      5          6           0        1.482341    2.961129    0.575491
      6          6           0        1.496361    2.810429   -0.786879
      7          6           0       -1.481439    2.962100   -0.575169
      8          6           0       -1.495519    2.811060    0.787151
      9          6           0        0.719452    4.014879    1.353591
     10          1           0        2.238651    2.420919    1.135701
     11          1           0        2.285441    2.195799   -1.209399
     12          6           0        0.693852    3.578999   -1.805129
     13          6           0       -0.717978    4.015590   -1.353049
     14          1           0       -2.237959    2.422330   -1.135499
     15          6           0       -0.692588    3.578920    1.805601
     16          1           0       -2.284819    2.196590    1.209481
     17          1           0        1.296582    4.258389    2.246701
     18          1           0        0.666202    4.932599    0.769911
     19          1           0        1.265062    4.461829   -2.117769
     20          1           0        0.607791    2.954779   -2.697029
     21          1           0       -0.664278    4.933170   -0.769199
     22          1           0       -1.294958    4.259560   -2.246129
     23          1           0       -0.606849    2.954410    2.697331
     24          1           0       -1.263328    4.461970    2.118501
     25         15           0        1.347280   -0.592991    0.000691
     26         15           0       -1.347620   -0.592700   -0.001329
     27          8           0       -2.393170   -0.970060   -1.238839
     28          8           0       -2.405880   -0.980050    1.222641
     29          8           0        2.392180   -0.971001    1.238611
     30          8           0        2.406080   -0.980012   -1.222859
     31          6           0       -3.461320   -1.705319   -0.710379
     32          6           0       -3.468380   -1.711529    0.677241
     33          6           0       -4.439071   -2.339439   -1.444919
     34          6           0       -4.453161   -2.352389    1.396311
     35          6           0       -5.442961   -2.996869   -0.728429
     36          1           0       -4.423251   -2.323119   -2.525959
     37          6           0       -5.449891   -3.003219    0.663951
     38          1           0       -4.448201   -2.345869    2.477571
     39          1           0       -6.226351   -3.509828   -1.270259
     40          1           0       -6.238591   -3.521068    1.193271
     41          6           0        3.468210   -1.711902   -0.677239
     42          6           0        3.460480   -1.706232    0.710371
     43          6           0        4.453199   -2.352682   -1.396109
     44          6           0        4.437759   -2.340812    1.445121
     45          6           0        5.449449   -3.004003   -0.663529
     46          1           0        4.448739   -2.345742   -2.477369
     47          6           0        5.441859   -2.998173    0.728851
     48          1           0        4.421459   -2.324912    2.526171
     49          1           0        6.238289   -3.521813   -1.192669
     50          1           0        6.224889   -3.511503    1.270861
 ---------------------------------------------------------------------

 SCF Done:  E(RB3LYP) =  -1907.97697550     A.U. after   15 cycles

      1  C    Isotropic =    88.3337   Anisotropy =    80.9402

      2  H    Isotropic =    27.3661   Anisotropy =     5.8881

      3  H    Isotropic =    27.3659   Anisotropy =     5.8865

      4  Rh   Isotropic =  -325.6014   Anisotropy =   465.9521

      5  C    Isotropic =    62.9259   Anisotropy =   144.1742

      6  C    Isotropic =    61.8745   Anisotropy =   139.2603

      7  C    Isotropic =    62.9001   Anisotropy =   144.2130

      8  C    Isotropic =    61.8692   Anisotropy =   139.2687

      9  C    Isotropic =   154.1243   Anisotropy =    23.7244

     10  H    Isotropic =    26.1646   Anisotropy =     6.2158

     11  H    Isotropic =    25.4126   Anisotropy =     3.9888

     12  C    Isotropic =   148.9771   Anisotropy =    27.9958

     13  C    Isotropic =   154.1254   Anisotropy =    23.7272

     14  H    Isotropic =    26.1634   Anisotropy =     6.2160

     15  C    Isotropic =   148.9824   Anisotropy =    27.9889

     16  H    Isotropic =    25.4127   Anisotropy =     3.9889

     17  H    Isotropic =    29.7239   Anisotropy =    11.2197

     18  H    Isotropic =    29.5080   Anisotropy =     8.3317

     19  H    Isotropic =    28.9735   Anisotropy =    11.6636

     20  H    Isotropic =    28.9510   Anisotropy =     7.8720

     21  H    Isotropic =    29.5081   Anisotropy =     8.3316

     22  H    Isotropic =    29.7239   Anisotropy =    11.2199

     23  H    Isotropic =    28.9514   Anisotropy =     7.8723

     24  H    Isotropic =    28.9735   Anisotropy =    11.6640

     25  P    Isotropic =   141.1192   Anisotropy =   205.4602

     26  P    Isotropic =   141.1537   Anisotropy =   205.3581

     27  O    Isotropic =   166.7051   Anisotropy =    54.7306

     28  O    Isotropic =   167.3515   Anisotropy =    54.1582

     29  O    Isotropic =   166.6753   Anisotropy =    54.7080

     30  O    Isotropic =   167.3552   Anisotropy =    54.1687

     31  C    Isotropic =    33.5141   Anisotropy =    97.6717

     32  C    Isotropic =    33.4623   Anisotropy =    97.5966

     33  C    Isotropic =    66.0983   Anisotropy =   156.9560

     34  C    Isotropic =    66.1180   Anisotropy =   156.9434

     35  C    Isotropic =    52.2004   Anisotropy =   184.2294

     36  H    Isotropic =    24.5204   Anisotropy =     6.6217

     37  C    Isotropic =    52.2407   Anisotropy =   184.1801

     38  H    Isotropic =    24.5060   Anisotropy =     6.6089

     39  H    Isotropic =    24.4799   Anisotropy =     4.3326

     40  H    Isotropic =    24.4770   Anisotropy =     4.3448

     41  C    Isotropic =    33.4603   Anisotropy =    97.5868

     42  C    Isotropic =    33.5141   Anisotropy =    97.6776

     43  C    Isotropic =    66.1168   Anisotropy =   156.9435

     44  C    Isotropic =    66.0983   Anisotropy =   156.9560

     45  C    Isotropic =    52.2410   Anisotropy =   184.1804

     46  H    Isotropic =    24.5061   Anisotropy =     6.6089

     47  C    Isotropic =    52.1981   Anisotropy =   184.2303

     48  H    Isotropic =    24.5202   Anisotropy =     6.6216

     49  H    Isotropic =    24.4771   Anisotropy =     4.3447

     50  H    Isotropic =    24.4798   Anisotropy =     4.3328

 The electronic state is 1-A.
 Alpha  occ. eigenvalues --  -77.33366 -77.33365 -19.29900 -19.29899 -19.29878
 Alpha  occ. eigenvalues --  -19.29878 -10.35189 -10.35189 -10.35131 -10.35130
 Alpha  occ. eigenvalues --  -10.32223 -10.32198 -10.32198 -10.32047 -10.32047
 Alpha  occ. eigenvalues --  -10.30072 -10.30072 -10.29821 -10.29821 -10.28758
 Alpha  occ. eigenvalues --  -10.28757 -10.28751 -10.28751 -10.27928 -10.27928
 Alpha  occ. eigenvalues --  -10.27872 -10.27872  -6.78474  -6.78472  -4.94949
 Alpha  occ. eigenvalues --   -4.94949  -4.94732  -4.94729  -4.94275  -4.94275
 Alpha  occ. eigenvalues --   -3.35972  -2.13187  -2.12089  -2.09234  -1.23161
 Alpha  occ. eigenvalues --   -1.23081  -1.16111  -1.16098  -0.97434  -0.97223
 Alpha  occ. eigenvalues --   -0.97194  -0.92275  -0.90642  -0.90593  -0.86523
 Alpha  occ. eigenvalues --   -0.86513  -0.86118  -0.84602  -0.83118  -0.80638
 Alpha  occ. eigenvalues --   -0.76085  -0.74017  -0.73724  -0.73703  -0.73338
 Alpha  occ. eigenvalues --   -0.73248  -0.73159  -0.68429  -0.65128  -0.64068
 Alpha  occ. eigenvalues --   -0.63715  -0.63226  -0.62953  -0.62820  -0.62449
 Alpha  occ. eigenvalues --   -0.60712  -0.59823  -0.58688  -0.58395  -0.57696
 Alpha  occ. eigenvalues --   -0.57183  -0.56203  -0.56186  -0.55325  -0.55252
 Alpha  occ. eigenvalues --   -0.55183  -0.55083  -0.53968  -0.52925  -0.51792
 Alpha  occ. eigenvalues --   -0.51549  -0.50933  -0.50664  -0.50645  -0.49748
 Alpha  occ. eigenvalues --   -0.49541  -0.49336  -0.48649  -0.48008  -0.47752
 Alpha  occ. eigenvalues --   -0.47712  -0.47313  -0.46393  -0.46250  -0.45834
 Alpha  occ. eigenvalues --   -0.45394  -0.44505  -0.43437  -0.40603  -0.40179
 Alpha  occ. eigenvalues --   -0.39704  -0.39557  -0.37977  -0.36183  -0.36159
 Alpha  occ. eigenvalues --   -0.35005  -0.33987  -0.33896
 Alpha virt. eigenvalues --   -0.21228  -0.17933  -0.12788  -0.12010  -0.12006
 Alpha virt. eigenvalues --   -0.11836  -0.10819  -0.10298  -0.10150  -0.09031
 Alpha virt. eigenvalues --   -0.08879  -0.08077  -0.07279  -0.06663  -0.05923

 Mulliken charges:
               1
     1  C   -0.510066
     2  H    0.237671
     3  H    0.237675
     4  Rh  -0.628908
     5  C    0.005584
     6  C   -0.106973
     7  C    0.005573
     8  C   -0.106962
     9  C   -0.352456
    10  H    0.193569
    11  H    0.200130
    12  C   -0.221830
    13  C   -0.352435
    14  H    0.193547
    15  C   -0.221804
    16  H    0.200092
    17  H    0.183786
    18  H    0.172012
    19  H    0.188985
    20  H    0.152338
    21  H    0.172012
    22  H    0.183784
    23  H    0.152341
    24  H    0.188988
    25  P    0.661865
    26  P    0.661852
    27  O   -0.249226
    28  O   -0.252595
    29  O   -0.249233
    30  O   -0.252596
    31  C    0.037645
    32  C    0.043907
    33  C   -0.108174
    34  C   -0.107947
    35  C   -0.101993
    36  H    0.153695
    37  C   -0.102730
    38  H    0.153496
    39  H    0.144343
    40  H    0.144390
    41  C    0.043968
    42  C    0.037607
    43  C   -0.107964
    44  C   -0.108171
    45  C   -0.102724
    46  H    0.153497
    47  C   -0.101998
    48  H    0.153696
    49  H    0.144394
    50  H    0.144343
 Sum of Mulliken charges =   1.00000

 Dipole moment (field-independent basis, Debye):
    X=              0.0007    Y=              1.7892    Z=             -0.0006  Tot=              1.7892
 Quadrupole moment (field-independent basis, Debye-Ang):
   XX=           -132.6503   YY=           -137.0280   ZZ=           -174.1267
   XY=              0.0012   XZ=             -0.0971   YZ=              0.0001

 Summary of Natural Population Analysis:

                                       Natural Population
                Natural  -----------------------------------------------
    Atom  No    Charge         Core      Valence    Rydberg      Total
 -----------------------------------------------------------------------
      C    1   -1.10860      1.99946     5.09348    0.01566     7.10860
      H    2    0.28865      0.00000     0.70979    0.00156     0.71135
      H    3    0.28865      0.00000     0.70979    0.00156     0.71135
     Rh    4   -0.59841     35.98403     9.59018    0.02419    45.59841
      C    5   -0.15267      1.99908     4.13263    0.02095     6.15267
      C    6   -0.14578      1.99912     4.12516    0.02151     6.14578
      C    7   -0.15262      1.99908     4.13259    0.02095     6.15262
      C    8   -0.14582      1.99912     4.12520    0.02151     6.14582
      C    9   -0.42824      1.99936     4.41701    0.01187     6.42824
      H   10    0.23936      0.00000     0.75917    0.00147     0.76064
      H   11    0.24174      0.00000     0.75642    0.00184     0.75826
      C   12   -0.43135      1.99935     4.41891    0.01308     6.43135
      C   13   -0.42826      1.99936     4.41703    0.01187     6.42826
      H   14    0.23935      0.00000     0.75918    0.00147     0.76065
      C   15   -0.43136      1.99935     4.41892    0.01308     6.43136
      H   16    0.24174      0.00000     0.75642    0.00184     0.75826
      H   17    0.23838      0.00000     0.76025    0.00136     0.76162
      H   18    0.21601      0.00000     0.78203    0.00196     0.78399
      H   19    0.24627      0.00000     0.75205    0.00167     0.75373
      H   20    0.22892      0.00000     0.76961    0.00146     0.77108
      H   21    0.21601      0.00000     0.78203    0.00196     0.78399
      H   22    0.23838      0.00000     0.76025    0.00136     0.76162
      H   23    0.22893      0.00000     0.76961    0.00146     0.77107
      H   24    0.24628      0.00000     0.75205    0.00167     0.75372
      P   25    1.70825      9.99561     3.20748    0.08866    13.29175
      P   26    1.70816      9.99562     3.20757    0.08865    13.29184
      O   27   -0.69004      1.99982     6.67875    0.01147     8.69004
      O   28   -0.69119      1.99982     6.67994    0.01143     8.69119
      O   29   -0.69004      1.99982     6.67876    0.01147     8.69004
      O   30   -0.69121      1.99982     6.67997    0.01143     8.69121
      C   31    0.19119      1.99858     3.78671    0.02352     5.80881
      C   32    0.19088      1.99858     3.78699    0.02355     5.80912
      C   33   -0.22405      1.99906     4.21000    0.01499     6.22405
      C   34   -0.22415      1.99906     4.21009    0.01499     6.22415
      C   35   -0.18956      1.99924     4.17576    0.01457     6.18956
      H   36    0.23758      0.00000     0.76094    0.00149     0.76242
      C   37   -0.18968      1.99924     4.17587    0.01458     6.18968
      H   38    0.23751      0.00000     0.76101    0.00149     0.76249
      H   39    0.22777      0.00000     0.77114    0.00109     0.77223
      H   40    0.22777      0.00000     0.77114    0.00109     0.77223
      C   41    0.19088      1.99858     3.78699    0.02355     5.80912
      C   42    0.19119      1.99858     3.78671    0.02352     5.80881
      C   43   -0.22414      1.99906     4.21009    0.01499     6.22414
      C   44   -0.22405      1.99906     4.21000    0.01499     6.22405
      C   45   -0.18968      1.99924     4.17587    0.01458     6.18968
      H   46    0.23751      0.00000     0.76100    0.00149     0.76249
      C   47   -0.18956      1.99924     4.17575    0.01457     6.18956
      H   48    0.23758      0.00000     0.76093    0.00149     0.76242
      H   49    0.22777      0.00000     0.77114    0.00109     0.77223
      H   50    0.22777      0.00000     0.77114    0.00109     0.77223
 =======================================================================
   * Total *    1.00000    105.95531   147.40155    0.64314   254.00000

 Normal termination of Gaussian 16 at Tue Jan 21 10:25:16 2025.
