 Gaussian 16, Revision B.01,
 Gaussian 16:  ES64L-G16RevB.01 20-Dec-2017

 ------------------------------------------
 # nmr=giao b3lyp/genecp pop=nbo scfcyc=200
 ------------------------------------------

 ---------
 MB-38_SPE
 ---------
 Symbolic Z-matrix:
 Charge =  1 Multiplicity = 1

                         Standard orientation:
 ---------------------------------------------------------------------
 Center     Atomic      Atomic             Coordinates (Angstroms)
 Number     Number       Type             X           Y           Z
 ---------------------------------------------------------------------
      1          6           0       -0.021969   -1.710341   -1.375100
      2          1           0       -0.389489   -1.433391   -2.364140
      3          1           0        0.164061   -2.784191   -1.343360
      4          6           0       -1.067049   -2.288091    1.305280
      5          1           0       -1.518519   -3.207991    0.927270
      6          1           0        0.001091   -2.465601    1.454430
      7          6           0        2.311300   -0.331140   -2.587000
      8          1           0        2.488791   -1.327350   -3.004430
      9          1           0        1.613040    0.186810   -3.247570
     10          6           0       -1.610621    2.525008    0.457720
     11          1           0       -2.466311    2.036098    0.006430
     12          6           0       -1.192501    2.058049    1.686460
     13          1           0       -1.775231    1.262948    2.140910
     14          6           0       -0.224341    2.731909    2.627230
     15          1           0       -0.759302    3.458329    3.251510
     16          1           0        0.152049    1.971689    3.315410
     17          6           0        0.971208    3.420630    1.933420
     18          1           0        1.782598    3.513380    2.657060
     19          1           0        0.709028    4.439040    1.647580
     20          6           0        1.490249    2.669700    0.721140
     21          1           0        2.433939    2.153070    0.860660
     22          6           0        1.085709    2.869140   -0.583040
     23          1           0        1.759739    2.525940   -1.360060
     24          6           0        0.001558    3.801199   -1.062680
     25          1           0        0.415878    4.808029   -1.199210
     26          1           0       -0.306222    3.469099   -2.056560
     27          6           0       -1.238022    3.864979   -0.146880
     28          1           0       -1.088752    4.596629    0.646630
     29          1           0       -2.084132    4.225998   -0.733730
     30         15           0       -1.174290   -1.018761   -0.077680
     31         15           0        1.421960   -0.590250   -0.957270
     32         45           0        0.053879    1.001999    0.137960
     33          6           0        2.574591   -1.612099    0.050010
     34          6           0        3.093881   -2.815269   -0.442510
     35          6           0        2.944161   -1.179909    1.325930
     36          6           0        3.968162   -3.568839    0.330460
     37          1           0        2.822221   -3.173429   -1.428780
     38          6           0        3.820671   -1.937209    2.097940
     39          1           0        2.541110   -0.254019    1.716800
     40          6           0        4.333121   -3.129949    1.601220
     41          1           0        4.365582   -4.498009   -0.058080
     42          1           0        4.101991   -1.594409    3.085660
     43          1           0        5.015412   -3.718778    2.201080
     44          6           0       -2.896260   -1.155952   -0.701950
     45          6           0       -3.915330   -0.458183   -0.044070
     46          6           0       -3.218699   -1.961762   -1.798070
     47          6           0       -5.232220   -0.567513   -0.475930
     48          1           0       -3.690920    0.161007    0.814860
     49          6           0       -4.536569   -2.062663   -2.230480
     50          1           0       -2.451779   -2.519832   -2.320110
     51          6           0       -5.544009   -1.365343   -1.572000
     52          1           0       -6.013760   -0.026764    0.042720
     53          1           0       -4.774969   -2.688233   -3.081410
     54          1           0       -6.569119   -1.445244   -1.910720
     55          6           0       -1.710379   -1.848382    2.582400
     56          1           0       -1.191250   -1.068041    3.131420
     57          6           0       -2.832859   -2.358662    3.077030
     58          1           0       -3.241949   -2.013802    4.018140
     59          1           0       -3.376929   -3.146902    2.568840
     60          6           0        3.598630    0.424331   -2.458910
     61          1           0        4.362060   -0.032929   -1.836690
     62          6           0        3.859879    1.572781   -3.073690
     63          1           0        3.137689    2.054671   -3.724130
     64          1           0        4.818979    2.062862   -2.965900
 ---------------------------------------------------------------------

 SCF Done:  E(RB3LYP) =  -1842.86179168     A.U. after   15 cycles

      1  C    Isotropic =   136.8167   Anisotropy =    43.6993

      2  H    Isotropic =    28.3327   Anisotropy =     6.0760

      3  H    Isotropic =    28.8042   Anisotropy =    10.4520

      4  C    Isotropic =   136.4632   Anisotropy =    22.7806

      5  H    Isotropic =    29.7388   Anisotropy =     6.7367

      6  H    Isotropic =    29.7076   Anisotropy =     7.8181

      7  C    Isotropic =   139.4571   Anisotropy =    28.8441

      8  H    Isotropic =    28.4780   Anisotropy =     7.5965

      9  H    Isotropic =    29.2016   Anisotropy =     5.5031

     10  C    Isotropic =    73.9038   Anisotropy =   130.5675

     11  H    Isotropic =    26.7623   Anisotropy =     6.7515

     12  C    Isotropic =    80.4018   Anisotropy =   113.3027

     13  H    Isotropic =    26.0479   Anisotropy =     4.7345

     14  C    Isotropic =   147.6660   Anisotropy =    30.3149

     15  H    Isotropic =    28.9611   Anisotropy =    12.4361

     16  H    Isotropic =    28.9514   Anisotropy =     7.7665

     17  C    Isotropic =   154.0186   Anisotropy =    24.9354

     18  H    Isotropic =    29.7422   Anisotropy =    11.4975

     19  H    Isotropic =    29.7271   Anisotropy =     9.2359

     20  C    Isotropic =    80.4679   Anisotropy =   121.0789

     21  H    Isotropic =    26.7844   Anisotropy =     6.4156

     22  C    Isotropic =    78.0256   Anisotropy =   117.1402

     23  H    Isotropic =    25.7066   Anisotropy =     7.2997

     24  C    Isotropic =   147.1133   Anisotropy =    30.9646

     25  H    Isotropic =    29.1329   Anisotropy =    12.3326

     26  H    Isotropic =    29.1289   Anisotropy =     7.5740

     27  C    Isotropic =   154.2998   Anisotropy =    24.8465

     28  H    Isotropic =    29.7846   Anisotropy =     9.0517

     29  H    Isotropic =    29.9358   Anisotropy =    11.2369

     30  P    Isotropic =   328.6712   Anisotropy =    63.8508

     31  P    Isotropic =   323.3177   Anisotropy =    90.8135

     32  Rh   Isotropic =  -319.1796   Anisotropy =   359.5567

     33  C    Isotropic =    46.5915   Anisotropy =   174.2824

     34  C    Isotropic =    49.2597   Anisotropy =   187.0221

     35  C    Isotropic =    41.8749   Anisotropy =   177.2183

     36  C    Isotropic =    47.3476   Anisotropy =   191.9523

     37  H    Isotropic =    24.1367   Anisotropy =    10.8627

     38  C    Isotropic =    48.7641   Anisotropy =   188.7832

     39  H    Isotropic =    23.5502   Anisotropy =     9.6298

     40  C    Isotropic =    43.9495   Anisotropy =   198.9411

     41  H    Isotropic =    23.9621   Anisotropy =     5.4924

     42  H    Isotropic =    24.0141   Anisotropy =     6.7105

     43  H    Isotropic =    23.8907   Anisotropy =     4.2245

     44  C    Isotropic =    46.9253   Anisotropy =   170.6129

     45  C    Isotropic =    46.2556   Anisotropy =   184.2413

     46  C    Isotropic =    51.6408   Anisotropy =   181.1150

     47  C    Isotropic =    49.6255   Anisotropy =   189.8337

     48  H    Isotropic =    24.9110   Anisotropy =     9.5870

     49  C    Isotropic =    47.8583   Anisotropy =   191.8704

     50  H    Isotropic =    24.6171   Anisotropy =    12.1071

     51  C    Isotropic =    45.7101   Anisotropy =   197.9107

     52  H    Isotropic =    24.2441   Anisotropy =     6.8068

     53  H    Isotropic =    24.0796   Anisotropy =     5.9860

     54  H    Isotropic =    24.0669   Anisotropy =     4.0205

     55  C    Isotropic =    49.2281   Anisotropy =   161.2794

     56  H    Isotropic =    25.8181   Anisotropy =     6.5085

     57  C    Isotropic =    55.0077   Anisotropy =   154.8437

     58  H    Isotropic =    26.3891   Anisotropy =     7.1814

     59  H    Isotropic =    26.9495   Anisotropy =     8.5879

     60  C    Isotropic =    48.8562   Anisotropy =   169.3955

     61  H    Isotropic =    26.4874   Anisotropy =     8.7434

     62  C    Isotropic =    55.6624   Anisotropy =   153.5361

     63  H    Isotropic =    26.1647   Anisotropy =     7.3175

     64  H    Isotropic =    26.4259   Anisotropy =     6.7720

 The electronic state is 1-A.
 Alpha  occ. eigenvalues --  -77.24383 -77.24170 -10.31042 -10.30462 -10.30331
 Alpha  occ. eigenvalues --  -10.30036 -10.29917 -10.29620 -10.29508 -10.29453
 Alpha  occ. eigenvalues --  -10.29320 -10.29305 -10.29132 -10.28803 -10.28732
 Alpha  occ. eigenvalues --  -10.28542 -10.28439 -10.28386 -10.28323 -10.28175
 Alpha  occ. eigenvalues --  -10.28041 -10.27901 -10.27890 -10.27865 -10.27787
 Alpha  occ. eigenvalues --  -10.27744 -10.27688 -10.26928 -10.26541  -6.70379
 Alpha  occ. eigenvalues --   -6.70172  -4.86669  -4.86586  -4.86482  -4.86364
 Alpha  occ. eigenvalues --   -4.86276  -4.86065  -3.32230  -2.09156  -2.08468
 Alpha  occ. eigenvalues --   -2.05633  -0.97344  -0.96851  -0.94958  -0.92050
 Alpha  occ. eigenvalues --   -0.90988  -0.89664  -0.88487  -0.88485  -0.86762
 Alpha  occ. eigenvalues --   -0.86120  -0.85673  -0.84927  -0.81607  -0.80823
 Alpha  occ. eigenvalues --   -0.79839  -0.78284  -0.73796  -0.72716  -0.71885
 Alpha  occ. eigenvalues --   -0.71410  -0.71010  -0.68451  -0.67636  -0.66566
 Alpha  occ. eigenvalues --   -0.66315  -0.65958  -0.63109  -0.62598  -0.61864
 Alpha  occ. eigenvalues --   -0.60578  -0.58561  -0.58450  -0.57452  -0.57223
 Alpha  occ. eigenvalues --   -0.56731  -0.56588  -0.56477  -0.55789  -0.55694
 Alpha  occ. eigenvalues --   -0.54832  -0.54370  -0.54095  -0.53954  -0.53537
 Alpha  occ. eigenvalues --   -0.53175  -0.53052  -0.52946  -0.52238  -0.51003
 Alpha  occ. eigenvalues --   -0.49817  -0.49088  -0.48700  -0.48556  -0.48348
 Alpha  occ. eigenvalues --   -0.47832  -0.47030  -0.46918  -0.46443  -0.46078
 Alpha  occ. eigenvalues --   -0.45928  -0.45552  -0.45314  -0.44808  -0.43814
 Alpha  occ. eigenvalues --   -0.43796  -0.43618  -0.43097  -0.41930  -0.38344
 Alpha  occ. eigenvalues --   -0.37650  -0.37240  -0.37181  -0.36886  -0.36773
 Alpha  occ. eigenvalues --   -0.36199  -0.35747  -0.35396  -0.35023  -0.34375
 Alpha  occ. eigenvalues --   -0.31414
 Alpha virt. eigenvalues --   -0.16881  -0.15050  -0.14195  -0.12689  -0.12452
 Alpha virt. eigenvalues --   -0.11880  -0.11162  -0.10756  -0.09641  -0.08363
 Alpha virt. eigenvalues --   -0.07946  -0.06934  -0.06424  -0.06163  -0.05772

 Mulliken charges:
               1
     1  C   -0.569461
     2  H    0.199652
     3  H    0.215246
     4  C   -0.304356
     5  H    0.178178
     6  H    0.172409
     7  C   -0.370868
     8  H    0.184003
     9  H    0.167619
    10  C   -0.036435
    11  H    0.200533
    12  C   -0.090200
    13  H    0.179931
    14  C   -0.226517
    15  H    0.173854
    16  H    0.130421
    17  C   -0.350103
    18  H    0.169925
    19  H    0.168960
    20  C   -0.031176
    21  H    0.185231
    22  C   -0.046565
    23  H    0.157118
    24  C   -0.220368
    25  H    0.172606
    26  H    0.131504
    27  C   -0.348260
    28  H    0.168761
    29  H    0.171528
    30  P    0.245847
    31  P    0.371082
    32  Rh  -0.529875
    33  C   -0.229607
    34  C   -0.083620
    35  C   -0.010452
    36  C   -0.101367
    37  H    0.139638
    38  C   -0.113583
    39  H    0.142681
    40  C   -0.089995
    41  H    0.138782
    42  H    0.134468
    43  H    0.145246
    44  C   -0.075782
    45  C   -0.135114
    46  C   -0.078163
    47  C   -0.095094
    48  H    0.168561
    49  C   -0.077491
    50  H    0.141224
    51  C   -0.098393
    52  H    0.133442
    53  H    0.135508
    54  H    0.140888
    55  C   -0.146991
    56  H    0.153788
    57  C   -0.226874
    58  H    0.133154
    59  H    0.135879
    60  C   -0.079836
    61  H    0.167252
    62  C   -0.268241
    63  H    0.138422
    64  H    0.141447
 Sum of Mulliken charges =   1.00000

 Dipole moment (field-independent basis, Debye):
    X=              0.2202    Y=             -0.8837    Z=             -0.7578  Tot=              1.1848
 Quadrupole moment (field-independent basis, Debye-Ang):
   XX=           -157.0172   YY=           -169.0236   ZZ=           -181.7808
   XY=             -3.4484   XZ=              3.2755   YZ=              5.8895

 Summary of Natural Population Analysis:

                                       Natural Population
                Natural  -----------------------------------------------
    Atom  No    Charge         Core      Valence    Rydberg      Total
 -----------------------------------------------------------------------
      C    1   -0.98363      1.99944     4.96815    0.01604     6.98363
      H    2    0.26108      0.00000     0.73729    0.00163     0.73892
      H    3    0.25230      0.00000     0.74549    0.00221     0.74770
      C    4   -0.68654      1.99934     4.67088    0.01632     6.68654
      H    5    0.23545      0.00000     0.76208    0.00247     0.76455
      H    6    0.24281      0.00000     0.75524    0.00195     0.75719
      C    7   -0.69266      1.99934     4.67839    0.01492     6.69266
      H    8    0.23653      0.00000     0.76113    0.00234     0.76347
      H    9    0.23621      0.00000     0.76207    0.00172     0.76379
      C   10   -0.16083      1.99905     4.14232    0.01946     6.16083
      H   11    0.22931      0.00000     0.76839    0.00231     0.77069
      C   12   -0.16763      1.99906     4.14842    0.02014     6.16763
      H   13    0.22536      0.00000     0.77264    0.00200     0.77464
      C   14   -0.42068      1.99936     4.40884    0.01248     6.42068
      H   15    0.23471      0.00000     0.76348    0.00181     0.76529
      H   16    0.21737      0.00000     0.78110    0.00153     0.78263
      C   17   -0.42429      1.99936     4.41310    0.01183     6.42429
      H   18    0.22878      0.00000     0.76981    0.00141     0.77122
      H   19    0.21546      0.00000     0.78261    0.00193     0.78454
      C   20   -0.17540      1.99905     4.15657    0.01978     6.17540
      H   21    0.22609      0.00000     0.77195    0.00196     0.77391
      C   22   -0.15299      1.99906     4.13377    0.02015     6.15299
      H   23    0.23244      0.00000     0.76543    0.00212     0.76756
      C   24   -0.41914      1.99935     4.40712    0.01267     6.41914
      H   25    0.23440      0.00000     0.76381    0.00179     0.76560
      H   26    0.21640      0.00000     0.78207    0.00153     0.78360
      C   27   -0.42505      1.99936     4.41366    0.01202     6.42505
      H   28    0.21458      0.00000     0.78348    0.00194     0.78542
      H   29    0.23017      0.00000     0.76843    0.00140     0.76983
      P   30    1.11132      9.99666     3.84441    0.04761    13.88868
      P   31    1.11141      9.99663     3.84238    0.04957    13.88859
     Rh   32   -0.40852     35.98563     9.39809    0.02480    45.40852
      C   33   -0.35442      1.99900     4.33174    0.02368     6.35442
      C   34   -0.19721      1.99909     4.18187    0.01624     6.19721
      C   35   -0.18567      1.99909     4.17125    0.01533     6.18567
      C   36   -0.18871      1.99920     4.17485    0.01465     6.18871
      H   37    0.20937      0.00000     0.78854    0.00209     0.79063
      C   38   -0.19383      1.99920     4.18001    0.01462     6.19383
      H   39    0.22089      0.00000     0.77731    0.00180     0.77911
      C   40   -0.17295      1.99921     4.15917    0.01457     6.17295
      H   41    0.22509      0.00000     0.77368    0.00123     0.77491
      H   42    0.22345      0.00000     0.77534    0.00121     0.77655
      H   43    0.22533      0.00000     0.77351    0.00116     0.77467
      C   44   -0.34508      1.99901     4.32374    0.02234     6.34508
      C   45   -0.19051      1.99910     4.17596    0.01545     6.19051
      C   46   -0.19563      1.99910     4.18088    0.01566     6.19563
      C   47   -0.19061      1.99920     4.17689    0.01453     6.19061
      H   48    0.21416      0.00000     0.78380    0.00205     0.78584
      C   49   -0.18901      1.99920     4.17519    0.01461     6.18901
      H   50    0.20915      0.00000     0.78884    0.00200     0.79085
      C   51   -0.17736      1.99920     4.16360    0.01455     6.17736
      H   52    0.22310      0.00000     0.77568    0.00122     0.77690
      H   53    0.22328      0.00000     0.77549    0.00123     0.77672
      H   54    0.22426      0.00000     0.77458    0.00117     0.77574
      C   55   -0.20637      1.99918     4.19019    0.01700     6.20637
      H   56    0.19980      0.00000     0.79845    0.00176     0.80020
      C   57   -0.34574      1.99917     4.33501    0.01156     6.34574
      H   58    0.20767      0.00000     0.79090    0.00142     0.79233
      H   59    0.19576      0.00000     0.80259    0.00166     0.80424
      C   60   -0.20148      1.99918     4.18569    0.01662     6.20148
      H   61    0.20891      0.00000     0.78947    0.00163     0.79109
      C   62   -0.35283      1.99917     4.34208    0.01158     6.35283
      H   63    0.19089      0.00000     0.80740    0.00171     0.80911
      H   64    0.21150      0.00000     0.78707    0.00142     0.78850
 =======================================================================
   * Total *    1.00000    109.95702   159.43337    0.60962   270.00000

 Normal termination of Gaussian 16 at Tue Jan 21 10:43:50 2025.
