 Gaussian 16, Revision B.01,
 Gaussian 16:  ES64L-G16RevB.01 20-Dec-2017

 ------------------------------------------
 # nmr=giao b3lyp/genecp pop=nbo scfcyc=200
 ------------------------------------------

 ---------
 MB-37_SPE
 ---------
 Symbolic Z-matrix:
 Charge =  1 Multiplicity = 1

                         Standard orientation:
 ---------------------------------------------------------------------
 Center     Atomic      Atomic             Coordinates (Angstroms)
 Number     Number       Type             X           Y           Z
 ---------------------------------------------------------------------
      1         15           0       -1.285441    0.257990    0.462381
      2         15           0        1.341839    0.857750    1.158411
      3          6           0       -0.356121    0.920420    1.947971
      4          1           0       -0.399671    0.191420    2.757731
      5          1           0       -0.683911    1.889690    2.324551
      6          6           0       -2.044111    1.737540   -0.323489
      7          6           0       -2.898351    2.577599    0.401391
      8          1           0       -3.146771    2.351669    1.431621
      9          6           0       -3.445951    3.703329   -0.199999
     10          1           0       -4.106952    4.347549    0.366021
     11          6           0       -3.147671    4.001849   -1.528059
     12          1           0       -3.577372    4.879499   -1.994249
     13          6           0       -2.299621    3.173269   -2.253209
     14          1           0       -2.066081    3.403270   -3.285119
     15          6           0       -1.747501    2.044620   -1.653149
     16          1           0       -1.079001    1.406190   -2.216649
     17          6           0       -2.681360   -0.782161    1.064251
     18          6           0       -2.439490   -1.759571    2.036441
     19          1           0       -1.452310   -1.876090    2.467751
     20          6           0       -3.462570   -2.599901    2.456571
     21          1           0       -3.267570   -3.344811    3.217791
     22          6           0       -4.733170   -2.486941    1.898391
     23          1           0       -5.529390   -3.143481    2.225371
     24          6           0       -4.974930   -1.531851    0.917971
     25          1           0       -5.959970   -1.441921    0.477641
     26          6           0       -3.955400   -0.681931    0.499051
     27          1           0       -4.161850    0.061419   -0.259419
     28          6           0        4.001549    0.586221    2.250811
     29          1           0        4.245100   -0.030159    1.380591
     30          1           0        4.252269    1.614371    1.979491
     31          6           0        2.718779    2.802651   -0.455389
     32          1           0        2.382509    2.264351   -1.345589
     33          1           0        3.670949    2.352631   -0.163429
     34         45           0        0.644990   -0.701990   -0.493229
     35          6           0        2.548320   -1.275259   -1.611859
     36          6           0        2.452880   -2.048269   -0.473939
     37          6           0       -0.268710   -2.594190   -1.360869
     38          6           0       -0.258580   -1.616590   -2.335329
     39          6           0        2.215900   -1.735269   -3.018799
     40          1           0        3.148410   -0.374149   -1.544269
     41          1           0        3.018730   -1.724809    0.392821
     42          6           0        1.933520   -3.461799   -0.380309
     43          6           0        0.706500   -3.753290   -1.269369
     44          1           0       -1.184590   -2.710080   -0.792279
     45          6           0        0.757170   -1.448550   -3.438469
     46          1           0       -1.182580   -1.067350   -2.488119
     47          1           0        2.881690   -1.224599   -3.716339
     48          1           0        2.437300   -2.797659   -3.118199
     49          1           0        2.740151   -4.167139   -0.616589
     50          1           0        1.670970   -3.649470    0.663001
     51          1           0        1.023161   -4.044340   -2.270689
     52          1           0        0.179571   -4.616210   -0.859109
     53          1           0        0.687190   -0.420620   -3.801799
     54          1           0        0.486560   -2.083190   -4.291479
     55          6           0        1.679779    2.620510    0.657861
     56          1           0        1.970779    3.168101    1.559971
     57          1           0        0.721039    3.031030    0.332201
     58          6           0        2.504069    0.486351    2.566221
     59          1           0        2.255840   -0.524129    2.902681
     60          1           0        2.244809    1.167641    3.382701
     61          6           0        2.939098    4.277501   -0.797009
     62          1           0        3.309938    4.834731    0.066281
     63          1           0        3.670018    4.385921   -1.599879
     64          1           0        2.010648    4.750471   -1.125219
     65          6           0        4.865009    0.154081    3.438231
     66          1           0        5.925779    0.244332    3.199861
     67          1           0        4.667889    0.772851    4.316441
     68          1           0        4.671980   -0.885709    3.711861
 ---------------------------------------------------------------------

 SCF Done:  E(RB3LYP) =  -1845.33282142     A.U. after   16 cycles

      1  P    Isotropic =   314.5738   Anisotropy =   106.5188

      2  P    Isotropic =   327.8688   Anisotropy =    64.2884

      3  C    Isotropic =   132.4487   Anisotropy =    44.4689

      4  H    Isotropic =    28.3286   Anisotropy =     3.8479

      5  H    Isotropic =    28.8805   Anisotropy =     9.3521

      6  C    Isotropic =    45.9340   Anisotropy =   172.6526

      7  C    Isotropic =    45.9422   Anisotropy =   189.3883

      8  H    Isotropic =    24.3277   Anisotropy =    11.2264

      9  C    Isotropic =    47.3959   Anisotropy =   192.2435

     10  H    Isotropic =    24.0077   Anisotropy =     5.5507

     11  C    Isotropic =    44.1237   Anisotropy =   199.9421

     12  H    Isotropic =    23.8529   Anisotropy =     3.9144

     13  C    Isotropic =    49.0152   Anisotropy =   188.8235

     14  H    Isotropic =    23.9807   Anisotropy =     6.6401

     15  C    Isotropic =    41.8667   Anisotropy =   180.1068

     16  H    Isotropic =    23.5617   Anisotropy =     9.5385

     17  C    Isotropic =    44.5245   Anisotropy =   167.2937

     18  C    Isotropic =    49.7019   Anisotropy =   186.5317

     19  H    Isotropic =    24.0133   Anisotropy =    10.7542

     20  C    Isotropic =    48.7429   Anisotropy =   189.8775

     21  H    Isotropic =    24.0352   Anisotropy =     6.4632

     22  C    Isotropic =    46.1655   Anisotropy =   196.4558

     23  H    Isotropic =    24.1033   Anisotropy =     3.8313

     24  C    Isotropic =    48.6910   Anisotropy =   190.1488

     25  H    Isotropic =    24.3704   Anisotropy =     6.4811

     26  C    Isotropic =    47.1165   Anisotropy =   191.7164

     27  H    Isotropic =    25.0638   Anisotropy =    12.6576

     28  C    Isotropic =   161.2186   Anisotropy =    16.8277

     29  H    Isotropic =    30.6372   Anisotropy =     6.1994

     30  H    Isotropic =    30.4319   Anisotropy =     6.4236

     31  C    Isotropic =   158.0803   Anisotropy =    23.7874

     32  H    Isotropic =    30.2256   Anisotropy =     6.6765

     33  H    Isotropic =    30.5324   Anisotropy =     5.6314

     34  Rh   Isotropic =  -311.3849   Anisotropy =   345.1106

     35  C    Isotropic =    80.0682   Anisotropy =   121.0542

     36  C    Isotropic =    75.6741   Anisotropy =   117.9061

     37  C    Isotropic =    75.2663   Anisotropy =   126.8044

     38  C    Isotropic =    80.0756   Anisotropy =   111.3966

     39  C    Isotropic =   154.0280   Anisotropy =    25.1297

     40  H    Isotropic =    26.8980   Anisotropy =     6.3254

     41  H    Isotropic =    26.0364   Anisotropy =     5.0817

     42  C    Isotropic =   146.8145   Anisotropy =    30.9393

     43  C    Isotropic =   154.2671   Anisotropy =    24.7722

     44  H    Isotropic =    27.6250   Anisotropy =     5.6821

     45  C    Isotropic =   147.9770   Anisotropy =    29.9972

     46  H    Isotropic =    26.6315   Anisotropy =     4.4815

     47  H    Isotropic =    29.8031   Anisotropy =    11.5071

     48  H    Isotropic =    29.7944   Anisotropy =     9.3312

     49  H    Isotropic =    29.0832   Anisotropy =    12.3838

     50  H    Isotropic =    29.0531   Anisotropy =     7.6113

     51  H    Isotropic =    29.8772   Anisotropy =     9.2846

     52  H    Isotropic =    30.0428   Anisotropy =    10.9962

     53  H    Isotropic =    29.0151   Anisotropy =     8.3032

     54  H    Isotropic =    29.0643   Anisotropy =    12.5119

     55  C    Isotropic =   145.4303   Anisotropy =    36.4824

     56  H    Isotropic =    30.3338   Anisotropy =     6.4551

     57  H    Isotropic =    30.9235   Anisotropy =     7.7868

     58  C    Isotropic =   143.5718   Anisotropy =    37.2959

     59  H    Isotropic =    30.0113   Anisotropy =     5.3576

     60  H    Isotropic =    30.0266   Anisotropy =     6.8234

     61  C    Isotropic =   167.8624   Anisotropy =    32.1119

     62  H    Isotropic =    31.0924   Anisotropy =     9.9652

     63  H    Isotropic =    30.6370   Anisotropy =    11.6973

     64  H    Isotropic =    31.3109   Anisotropy =     7.8290

     65  C    Isotropic =   167.3979   Anisotropy =    32.7361

     66  H    Isotropic =    30.4439   Anisotropy =    11.8393

     67  H    Isotropic =    30.8943   Anisotropy =     9.6987

     68  H    Isotropic =    30.8942   Anisotropy =     8.4828

 The electronic state is 1-A.
 Alpha  occ. eigenvalues --  -77.24288 -77.23438 -10.30629 -10.30174 -10.30025
 Alpha  occ. eigenvalues --  -10.29631 -10.29570 -10.29325 -10.29250 -10.29241
 Alpha  occ. eigenvalues --  -10.29240 -10.29063 -10.29035 -10.28772 -10.28468
 Alpha  occ. eigenvalues --  -10.28328 -10.28247 -10.28220 -10.28040 -10.27914
 Alpha  occ. eigenvalues --  -10.27896 -10.27888 -10.27753 -10.27697 -10.27641
 Alpha  occ. eigenvalues --  -10.27582 -10.27556 -10.25414 -10.25168  -6.70270
 Alpha  occ. eigenvalues --   -6.69486  -4.86553  -4.86495  -4.86170  -4.85783
 Alpha  occ. eigenvalues --   -4.85673  -4.85387  -3.32002  -2.08900  -2.08221
 Alpha  occ. eigenvalues --   -2.05460  -0.97361  -0.96559  -0.94828  -0.91840
 Alpha  occ. eigenvalues --   -0.89569  -0.89224  -0.88954  -0.88357  -0.85984
 Alpha  occ. eigenvalues --   -0.85853  -0.85429  -0.85292  -0.80740  -0.80711
 Alpha  occ. eigenvalues --   -0.78736  -0.78178  -0.74897  -0.71864  -0.71559
 Alpha  occ. eigenvalues --   -0.70959  -0.70774  -0.70702  -0.69542  -0.67348
 Alpha  occ. eigenvalues --   -0.66440  -0.66248  -0.63015  -0.62763  -0.61566
 Alpha  occ. eigenvalues --   -0.60508  -0.58815  -0.57637  -0.57509  -0.56858
 Alpha  occ. eigenvalues --   -0.56666  -0.56614  -0.56087  -0.55782  -0.55484
 Alpha  occ. eigenvalues --   -0.54302  -0.54001  -0.53360  -0.53145  -0.52985
 Alpha  occ. eigenvalues --   -0.52963  -0.52839  -0.52337  -0.50949  -0.50667
 Alpha  occ. eigenvalues --   -0.50235  -0.49977  -0.49025  -0.48909  -0.48481
 Alpha  occ. eigenvalues --   -0.48005  -0.47848  -0.46737  -0.46449  -0.46342
 Alpha  occ. eigenvalues --   -0.45827  -0.45693  -0.45349  -0.44668  -0.44411
 Alpha  occ. eigenvalues --   -0.44037  -0.43840  -0.43725  -0.43452  -0.43244
 Alpha  occ. eigenvalues --   -0.42662  -0.42373  -0.41400  -0.38377  -0.37032
 Alpha  occ. eigenvalues --   -0.36890  -0.36831  -0.36165  -0.35847  -0.35113
 Alpha  occ. eigenvalues --   -0.34991  -0.34235  -0.31222
 Alpha virt. eigenvalues --   -0.16673  -0.15120  -0.14131  -0.12619  -0.12241
 Alpha virt. eigenvalues --   -0.11260  -0.09711  -0.08767  -0.07888  -0.07474
 Alpha virt. eigenvalues --   -0.06828  -0.06259  -0.06033  -0.05562  -0.04946

 Mulliken charges:
               1
     1  P    0.311077
     2  P    0.426940
     3  C   -0.576329
     4  H    0.203997
     5  H    0.209966
     6  C   -0.258558
     7  C   -0.081456
     8  H    0.151743
     9  C   -0.089054
    10  H    0.139445
    11  C   -0.089288
    12  H    0.143593
    13  C   -0.120328
    14  H    0.133504
    15  C   -0.018223
    16  H    0.152652
    17  C   -0.131774
    18  C   -0.081369
    19  H    0.126674
    20  C   -0.098069
    21  H    0.133712
    22  C   -0.098869
    23  H    0.141699
    24  C   -0.097542
    25  H    0.137464
    26  C   -0.076772
    27  H    0.161186
    28  C   -0.247366
    29  H    0.129234
    30  H    0.142731
    31  C   -0.233996
    32  H    0.127135
    33  H    0.130106
    34  Rh  -0.521055
    35  C   -0.001802
    36  C   -0.119376
    37  C   -0.028156
    38  C   -0.092094
    39  C   -0.346393
    40  H    0.178585
    41  H    0.176635
    42  C   -0.217943
    43  C   -0.355079
    44  H    0.210588
    45  C   -0.220019
    46  H    0.186314
    47  H    0.170869
    48  H    0.167842
    49  H    0.173018
    50  H    0.129370
    51  H    0.168849
    52  H    0.170060
    53  H    0.128308
    54  H    0.173784
    55  C   -0.325897
    56  H    0.158738
    57  H    0.167499
    58  C   -0.309723
    59  H    0.142903
    60  H    0.165729
    61  C   -0.360236
    62  H    0.123397
    63  H    0.144151
    64  H    0.121980
    65  C   -0.358195
    66  H    0.148316
    67  H    0.124527
    68  H    0.120639
 Sum of Mulliken charges =   1.00000

 Dipole moment (field-independent basis, Debye):
    X=              0.2595    Y=              0.6119    Z=              1.0145  Tot=              1.2129
 Quadrupole moment (field-independent basis, Debye-Ang):
   XX=           -163.6976   YY=           -172.1783   ZZ=           -181.6371
   XY=             -2.2504   XZ=              0.6197   YZ=             -2.1519

 Summary of Natural Population Analysis:

                                       Natural Population
                Natural  -----------------------------------------------
    Atom  No    Charge         Core      Valence    Rydberg      Total
 -----------------------------------------------------------------------
      P    1    1.12565      9.99647     3.82598    0.05190    13.87435
      P    2    1.10482      9.99686     3.85266    0.04567    13.89518
      C    3   -0.97012      1.99944     4.95341    0.01727     6.97012
      H    4    0.25733      0.00000     0.74109    0.00159     0.74267
      H    5    0.25310      0.00000     0.74492    0.00199     0.74690
      C    6   -0.35322      1.99900     4.32975    0.02446     6.35322
      C    7   -0.19267      1.99909     4.17738    0.01620     6.19267
      H    8    0.21776      0.00000     0.78016    0.00207     0.78224
      C    9   -0.19143      1.99920     4.17759    0.01464     6.19143
      H   10    0.22506      0.00000     0.77371    0.00123     0.77494
      C   11   -0.17326      1.99921     4.15949    0.01456     6.17326
      H   12    0.22474      0.00000     0.77410    0.00116     0.77526
      C   13   -0.19691      1.99920     4.18302    0.01469     6.19691
      H   14    0.22302      0.00000     0.77576    0.00122     0.77698
      C   15   -0.18557      1.99909     4.17083    0.01564     6.18557
      H   16    0.21950      0.00000     0.77832    0.00218     0.78050
      C   17   -0.34343      1.99900     4.32042    0.02402     6.34343
      C   18   -0.19698      1.99909     4.18262    0.01527     6.19698
      H   19    0.20816      0.00000     0.78986    0.00199     0.79184
      C   20   -0.19091      1.99920     4.17698    0.01473     6.19091
      H   21    0.22223      0.00000     0.77654    0.00123     0.77777
      C   22   -0.17899      1.99921     4.16510    0.01469     6.17899
      H   23    0.22405      0.00000     0.77478    0.00116     0.77595
      C   24   -0.18817      1.99920     4.17428    0.01469     6.18817
      H   25    0.22383      0.00000     0.77496    0.00121     0.77617
      C   26   -0.19370      1.99910     4.17934    0.01526     6.19370
      H   27    0.22326      0.00000     0.77497    0.00177     0.77674
      C   28   -0.38775      1.99944     4.37747    0.01084     6.38775
      H   29    0.19740      0.00000     0.80079    0.00180     0.80260
      H   30    0.19958      0.00000     0.79839    0.00203     0.80042
      C   31   -0.38588      1.99944     4.37632    0.01011     6.38588
      H   32    0.20539      0.00000     0.79295    0.00166     0.79461
      H   33    0.19878      0.00000     0.79939    0.00183     0.80122
     Rh   34   -0.41810     35.98572     9.40623    0.02616    45.41810
      C   35   -0.18063      1.99906     4.16169    0.01988     6.18063
      C   36   -0.15240      1.99907     4.13265    0.02069     6.15240
      C   37   -0.15945      1.99906     4.14112    0.01927     6.15945
      C   38   -0.17063      1.99907     4.15148    0.02008     6.17063
      C   39   -0.42352      1.99936     4.41229    0.01187     6.42352
      H   40    0.22655      0.00000     0.77113    0.00232     0.77345
      H   41    0.22046      0.00000     0.77718    0.00236     0.77954
      C   42   -0.41893      1.99935     4.40679    0.01279     6.41893
      C   43   -0.42430      1.99936     4.41300    0.01193     6.42430
      H   44    0.23129      0.00000     0.76666    0.00205     0.76871
      C   45   -0.41976      1.99936     4.40797    0.01244     6.41976
      H   46    0.22502      0.00000     0.77304    0.00193     0.77498
      H   47    0.22916      0.00000     0.76941    0.00143     0.77084
      H   48    0.21519      0.00000     0.78289    0.00192     0.78481
      H   49    0.23386      0.00000     0.76433    0.00181     0.76614
      H   50    0.21515      0.00000     0.78331    0.00154     0.78485
      H   51    0.21480      0.00000     0.78328    0.00192     0.78520
      H   52    0.22955      0.00000     0.76906    0.00139     0.77045
      H   53    0.21618      0.00000     0.78228    0.00154     0.78382
      H   54    0.23460      0.00000     0.76359    0.00181     0.76540
      C   55   -0.67245      1.99939     4.65881    0.01425     6.67245
      H   56    0.22565      0.00000     0.77200    0.00235     0.77435
      H   57    0.23390      0.00000     0.76401    0.00210     0.76610
      C   58   -0.66815      1.99939     4.65524    0.01352     6.66815
      H   59    0.22879      0.00000     0.76940    0.00181     0.77121
      H   60    0.22606      0.00000     0.77158    0.00235     0.77394
      C   61   -0.58767      1.99947     4.58220    0.00601     6.58767
      H   62    0.20417      0.00000     0.79452    0.00130     0.79583
      H   63    0.21722      0.00000     0.78173    0.00106     0.78278
      H   64    0.20313      0.00000     0.79554    0.00133     0.79687
      C   65   -0.58650      1.99947     4.58067    0.00636     6.58650
      H   66    0.21930      0.00000     0.77964    0.00106     0.78070
      H   67    0.20583      0.00000     0.79286    0.00130     0.79417
      H   68    0.20191      0.00000     0.79668    0.00141     0.79809
 =======================================================================
   * Total *    1.00000    109.95835   163.44758    0.59407   274.00000

 Normal termination of Gaussian 16 at Tue Jan 21 10:47:57 2025.
