 Gaussian 16, Revision B.01,
 Gaussian 16:  ES64L-G16RevB.01 20-Dec-2017

 ------------------------------------------
 # nmr=giao b3lyp/genecp pop=nbo scfcyc=200
 ------------------------------------------

 ---------
 MB-35_SPE
 ---------
 Symbolic Z-matrix:
 Charge =  1 Multiplicity = 1

                         Standard orientation:
 ---------------------------------------------------------------------
 Center     Atomic      Atomic             Coordinates (Angstroms)
 Number     Number       Type             X           Y           Z
 ---------------------------------------------------------------------
      1         15           0        1.281750   -0.404609    1.592569
      2         15           0       -1.158750   -0.011719    0.233499
      3          6           0        2.127840   -1.996799    2.140429
      4          1           0        3.185620   -1.796369    1.943819
      5          6           0        1.696760   -3.173539    1.255589
      6          1           0        2.337480   -4.034349    1.457629
      7          1           0        1.762970   -2.941449    0.192689
      8          1           0        0.671430   -3.480729    1.470349
      9          6           0        1.960990   -2.339829    3.625149
     10          1           0        2.437510   -3.301499    3.829819
     11          1           0        0.909070   -2.434519    3.904109
     12          1           0        2.422260   -1.604039    4.281049
     13          6           0        1.920750    1.009121    2.677369
     14          1           0        1.628490    1.888801    2.098319
     15          6           0        3.454830    0.983381    2.738879
     16          1           0        3.816700    1.912471    3.183589
     17          1           0        3.912340    0.894971    1.752169
     18          1           0        3.823260    0.162911    3.356479
     19          6           0        1.302960    1.136971    4.074019
     20          1           0        1.694000    2.037921    4.553089
     21          1           0        1.546500    0.293711    4.718739
     22          1           0        0.217660    1.237361    4.047379
     23          6           0       -2.406540   -1.274720   -0.384761
     24          1           0       -2.748100   -0.848190   -1.335221
     25          6           0       -1.749340   -2.631249   -0.694221
     26          1           0       -0.895070   -2.496599   -1.361431
     27          1           0       -1.357570   -3.067579    0.230429
     28          6           0       -2.760910   -3.610430   -1.305551
     29          1           0       -3.081950   -3.234140   -2.283311
     30          1           0       -2.273739   -4.571400   -1.487711
     31          6           0       -3.983100   -3.793650   -0.401791
     32          1           0       -4.709989   -4.454220   -0.879481
     33          1           0       -3.676690   -4.289980    0.526249
     34          6           0       -4.633840   -2.449140   -0.067981
     35          1           0       -5.464410   -2.589000    0.627919
     36          1           0       -5.062020   -2.015650   -0.978601
     37          6           0       -3.627850   -1.455690    0.534549
     38          1           0       -3.296840   -1.828390    1.510489
     39          1           0       -4.126720   -0.501970    0.715639
     40          6           0       -2.162150    1.540590    0.590829
     41          1           0       -2.869120    1.246360    1.374809
     42          6           0       -1.283521    2.678371    1.139079
     43          1           0       -0.757561    2.356481    2.040629
     44          1           0       -0.516121    2.928971    0.398799
     45          6           0       -2.116611    3.927930    1.458759
     46          1           0       -2.798061    3.704870    2.287229
     47          1           0       -1.455701    4.725161    1.807659
     48          6           0       -2.925851    4.395790    0.246889
     49          1           0       -3.547551    5.252050    0.517279
     50          1           0       -2.241791    4.743870   -0.535601
     51          6           0       -3.796341    3.264820   -0.305271
     52          1           0       -4.326081    3.592710   -1.202691
     53          1           0       -4.564741    3.003000    0.430509
     54          6           0       -2.966730    2.014790   -0.633201
     55          1           0       -3.628130    1.225180   -0.994521
     56          1           0       -2.280311    2.250680   -1.453201
     57          6           0       -0.555780   -0.604439    1.909989
     58          1           0       -0.950050   -0.048869    2.759379
     59          1           0       -0.802160   -1.656569    2.054159
     60         45           0        1.019450    0.108061   -0.716291
     61          6           0        3.124070    0.721271   -1.347151
     62          6           0        3.004480   -0.648369   -1.460811
     63          6           0        0.563070   -0.059399   -2.942171
     64          6           0        0.551180    1.273361   -2.586761
     65          6           0        3.077990    1.707091   -2.498711
     66          1           0        3.557500    1.103271   -0.429971
     67          1           0        3.393440   -1.248679   -0.645151
     68          6           0        2.722860   -1.425659   -2.723431
     69          6           0        1.693020   -0.767169   -3.666961
     70          1           0       -0.394150   -0.568309   -2.965931
     71          6           0        1.667709    2.270161   -2.772241
     72          1           0       -0.416120    1.721341   -2.388811
     73          1           0        3.744609    2.539931   -2.268981
     74          1           0        3.482090    1.240441   -3.396801
     75          1           0        3.660380   -1.602949   -3.265141
     76          1           0        2.358540   -2.413119   -2.431841
     77          1           0        2.188500   -0.067889   -4.340231
     78          1           0        1.264490   -1.542209   -4.304451
     79          1           0        1.480669    3.107931   -2.096841
     80          1           0        1.625329    2.689021   -3.785471
 ---------------------------------------------------------------------

 SCF Done:  E(RB3LYP) =  -1852.58725643     A.U. after   15 cycles

      1  P    Isotropic =   306.7815   Anisotropy =   100.5971

      2  P    Isotropic =   310.5204   Anisotropy =   119.5775

      3  C    Isotropic =   149.3871   Anisotropy =    21.7099

      4  H    Isotropic =    29.7505   Anisotropy =     4.7734

      5  C    Isotropic =   162.4922   Anisotropy =    32.0839

      6  H    Isotropic =    30.4365   Anisotropy =    11.3202

      7  H    Isotropic =    30.2254   Anisotropy =     7.5934

      8  H    Isotropic =    30.7545   Anisotropy =     6.0227

      9  C    Isotropic =   165.1667   Anisotropy =    30.4548

     10  H    Isotropic =    30.6093   Anisotropy =    12.2348

     11  H    Isotropic =    31.0164   Anisotropy =     6.1314

     12  H    Isotropic =    30.6727   Anisotropy =     8.6586

     13  C    Isotropic =   148.2414   Anisotropy =    26.3111

     14  H    Isotropic =    29.3872   Anisotropy =     6.2120

     15  C    Isotropic =   167.2053   Anisotropy =    27.2673

     16  H    Isotropic =    30.4291   Anisotropy =    11.7249

     17  H    Isotropic =    30.9632   Anisotropy =     6.6999

     18  H    Isotropic =    30.9395   Anisotropy =     7.9163

     19  C    Isotropic =   166.6682   Anisotropy =    26.7863

     20  H    Isotropic =    30.6650   Anisotropy =    11.6978

     21  H    Isotropic =    30.8299   Anisotropy =     7.9412

     22  H    Isotropic =    30.5554   Anisotropy =     6.1882

     23  C    Isotropic =   141.7418   Anisotropy =    22.2076

     24  H    Isotropic =    30.1369   Anisotropy =     3.2200

     25  C    Isotropic =   150.4478   Anisotropy =    10.8798

     26  H    Isotropic =    29.7098   Anisotropy =     9.5224

     27  H    Isotropic =    30.5052   Anisotropy =     6.9735

     28  C    Isotropic =   154.0122   Anisotropy =     8.5821

     29  H    Isotropic =    30.5025   Anisotropy =     7.9391

     30  H    Isotropic =    29.9608   Anisotropy =     9.7920

     31  C    Isotropic =   155.6281   Anisotropy =     2.7773

     32  H    Isotropic =    30.0758   Anisotropy =    11.7474

     33  H    Isotropic =    30.6076   Anisotropy =     8.3702

     34  C    Isotropic =   154.3963   Anisotropy =     7.6942

     35  H    Isotropic =    30.0251   Anisotropy =    11.0714

     36  H    Isotropic =    30.5638   Anisotropy =     8.5372

     37  C    Isotropic =   154.9840   Anisotropy =    11.6089

     38  H    Isotropic =    30.8167   Anisotropy =     4.1068

     39  H    Isotropic =    30.2786   Anisotropy =     7.3499

     40  C    Isotropic =   138.4583   Anisotropy =    28.3027

     41  H    Isotropic =    29.9315   Anisotropy =     3.1519

     42  C    Isotropic =   150.9635   Anisotropy =    13.1844

     43  H    Isotropic =    30.2606   Anisotropy =     9.3079

     44  H    Isotropic =    30.1367   Anisotropy =     6.8655

     45  C    Isotropic =   154.5861   Anisotropy =     7.6123

     46  H    Isotropic =    30.5124   Anisotropy =     8.6873

     47  H    Isotropic =    29.9692   Anisotropy =     9.6985

     48  C    Isotropic =   155.7356   Anisotropy =     2.8340

     49  H    Isotropic =    30.0370   Anisotropy =    11.7972

     50  H    Isotropic =    30.5356   Anisotropy =     7.8285

     51  C    Isotropic =   154.8780   Anisotropy =     6.3875

     52  H    Isotropic =    30.0236   Anisotropy =    10.7763

     53  H    Isotropic =    30.5786   Anisotropy =     8.9719

     54  C    Isotropic =   153.9882   Anisotropy =    12.1563

     55  H    Isotropic =    30.3035   Anisotropy =     6.9475

     56  H    Isotropic =    30.8147   Anisotropy =     5.8354

     57  C    Isotropic =   153.3232   Anisotropy =    42.9108

     58  H    Isotropic =    29.4107   Anisotropy =     7.4689

     59  H    Isotropic =    28.8162   Anisotropy =     4.0148

     60  Rh   Isotropic =  -319.5633   Anisotropy =   378.2284

     61  C    Isotropic =    79.3129   Anisotropy =   121.0151

     62  C    Isotropic =    78.9561   Anisotropy =   114.0472

     63  C    Isotropic =    80.3931   Anisotropy =   120.2571

     64  C    Isotropic =    79.6288   Anisotropy =   112.7953

     65  C    Isotropic =   154.1720   Anisotropy =    24.9111

     66  H    Isotropic =    26.9787   Anisotropy =     6.8293

     67  H    Isotropic =    26.6285   Anisotropy =     3.9465

     68  C    Isotropic =   147.7007   Anisotropy =    29.0597

     69  C    Isotropic =   154.0351   Anisotropy =    25.3083

     70  H    Isotropic =    27.1358   Anisotropy =     5.7983

     71  C    Isotropic =   147.4410   Anisotropy =    30.4463

     72  H    Isotropic =    26.3723   Anisotropy =     4.9331

     73  H    Isotropic =    29.8689   Anisotropy =    11.6169

     74  H    Isotropic =    29.8367   Anisotropy =     9.6873

     75  H    Isotropic =    29.1322   Anisotropy =    12.7313

     76  H    Isotropic =    29.1863   Anisotropy =     6.9535

     77  H    Isotropic =    29.8407   Anisotropy =     9.7124

     78  H    Isotropic =    29.8853   Anisotropy =    11.1022

     79  H    Isotropic =    29.1374   Anisotropy =     7.3395

     80  H    Isotropic =    29.1031   Anisotropy =    12.4865

 The electronic state is 1-A.
 Alpha  occ. eigenvalues --  -77.23050 -77.22809 -10.30510 -10.30481 -10.30348
 Alpha  occ. eigenvalues --  -10.29693 -10.29632 -10.29358 -10.29219 -10.29155
 Alpha  occ. eigenvalues --  -10.29117 -10.27811 -10.27726 -10.27553 -10.27497
 Alpha  occ. eigenvalues --  -10.27469 -10.27439 -10.27405 -10.27267 -10.27258
 Alpha  occ. eigenvalues --  -10.27218 -10.27171 -10.27151 -10.25905 -10.25805
 Alpha  occ. eigenvalues --  -10.25773 -10.25708 -10.25273 -10.25165  -6.69088
 Alpha  occ. eigenvalues --   -6.68851  -4.85388  -4.85275  -4.85154  -4.85024
 Alpha  occ. eigenvalues --   -4.84983  -4.84757  -3.31527  -2.08396  -2.07748
 Alpha  occ. eigenvalues --   -2.04989  -0.94755  -0.94429  -0.93303  -0.92505
 Alpha  occ. eigenvalues --   -0.89851  -0.89421  -0.88263  -0.87655  -0.84644
 Alpha  occ. eigenvalues --   -0.84368  -0.83988  -0.83848  -0.80621  -0.79974
 Alpha  occ. eigenvalues --   -0.79720  -0.78073  -0.75488  -0.73421  -0.71327
 Alpha  occ. eigenvalues --   -0.71269  -0.70812  -0.70408  -0.70132  -0.66241
 Alpha  occ. eigenvalues --   -0.66147  -0.65695  -0.64951  -0.64402  -0.62771
 Alpha  occ. eigenvalues --   -0.60437  -0.58912  -0.58390  -0.57956  -0.57521
 Alpha  occ. eigenvalues --   -0.57137  -0.56595  -0.55700  -0.55269  -0.54699
 Alpha  occ. eigenvalues --   -0.54418  -0.54011  -0.53870  -0.53835  -0.53593
 Alpha  occ. eigenvalues --   -0.53103  -0.52830  -0.52804  -0.52173  -0.51829
 Alpha  occ. eigenvalues --   -0.51345  -0.50063  -0.49646  -0.49327  -0.48733
 Alpha  occ. eigenvalues --   -0.48412  -0.48366  -0.48208  -0.47909  -0.47725
 Alpha  occ. eigenvalues --   -0.46947  -0.46542  -0.46411  -0.46329  -0.46121
 Alpha  occ. eigenvalues --   -0.45998  -0.45949  -0.45628  -0.45085  -0.44587
 Alpha  occ. eigenvalues --   -0.44376  -0.43557  -0.43327  -0.43024  -0.42253
 Alpha  occ. eigenvalues --   -0.41833  -0.41688  -0.41524  -0.41331  -0.40696
 Alpha  occ. eigenvalues --   -0.40299  -0.39883  -0.38890  -0.36471  -0.36415
 Alpha  occ. eigenvalues --   -0.34970  -0.34615  -0.33806  -0.30771
 Alpha virt. eigenvalues --   -0.16276  -0.13881  -0.09677  -0.09012  -0.08665
 Alpha virt. eigenvalues --   -0.07970  -0.07486  -0.07195  -0.06596  -0.06085
 Alpha virt. eigenvalues --   -0.05355  -0.04985  -0.04807  -0.04561  -0.04234

 Mulliken charges:
               1
     1  P    0.387006
     2  P    0.455627
     3  C   -0.220459
     4  H    0.177277
     5  C   -0.389254
     6  H    0.163200
     7  H    0.135530
     8  H    0.122830
     9  C   -0.370139
    10  H    0.153290
    11  H    0.135395
    12  H    0.136871
    13  C   -0.178600
    14  H    0.173749
    15  C   -0.424127
    16  H    0.159196
    17  H    0.140595
    18  H    0.150068
    19  C   -0.362647
    20  H    0.153055
    21  H    0.146550
    22  H    0.122286
    23  C   -0.263349
    24  H    0.172438
    25  C   -0.241722
    26  H    0.135607
    27  H    0.104925
    28  C   -0.232488
    29  H    0.122691
    30  H    0.144010
    31  C   -0.233271
    32  H    0.151120
    33  H    0.114154
    34  C   -0.232880
    35  H    0.148599
    36  H    0.120820
    37  C   -0.243593
    38  H    0.126292
    39  H    0.150573
    40  C   -0.181679
    41  H    0.179587
    42  C   -0.268016
    43  H    0.120605
    44  H    0.131678
    45  C   -0.227238
    46  H    0.122183
    47  H    0.142544
    48  C   -0.234745
    49  H    0.151735
    50  H    0.114068
    51  C   -0.246667
    52  H    0.149893
    53  H    0.124664
    54  C   -0.266672
    55  H    0.150429
    56  H    0.112183
    57  C   -0.658844
    58  H    0.214098
    59  H    0.200739
    60  Rh  -0.434250
    61  C   -0.023843
    62  C   -0.095221
    63  C   -0.024024
    64  C   -0.109855
    65  C   -0.352707
    66  H    0.170015
    67  H    0.181059
    68  C   -0.226261
    69  C   -0.350381
    70  H    0.177711
    71  C   -0.220716
    72  H    0.192428
    73  H    0.168852
    74  H    0.167460
    75  H    0.172456
    76  H    0.128224
    77  H    0.169118
    78  H    0.167720
    79  H    0.129649
    80  H    0.170797
 Sum of Mulliken charges =   1.00000

 Dipole moment (field-independent basis, Debye):
    X=              1.0514    Y=             -0.2909    Z=              1.4274  Tot=              1.7965
 Quadrupole moment (field-independent basis, Debye-Ang):
   XX=           -180.9645   YY=           -190.6930   ZZ=           -186.5768
   XY=             -0.4533   XZ=              1.4114   YZ=             -1.2751

 Summary of Natural Population Analysis:

                                       Natural Population
                Natural  -----------------------------------------------
    Atom  No    Charge         Core      Valence    Rydberg      Total
 -----------------------------------------------------------------------
      P    1    1.08821      9.99684     3.86766    0.04729    13.91179
      P    2    1.12077      9.99686     3.83517    0.04720    13.87923
      C    3   -0.46893      1.99940     4.45538    0.01415     6.46893
      H    4    0.22447      0.00000     0.77366    0.00187     0.77553
      C    5   -0.59168      1.99941     4.58467    0.00760     6.59168
      H    6    0.22409      0.00000     0.77444    0.00147     0.77591
      H    7    0.21708      0.00000     0.78123    0.00169     0.78292
      H    8    0.19983      0.00000     0.79844    0.00174     0.80017
      C    9   -0.59910      1.99941     4.59156    0.00813     6.59910
      H   10    0.22462      0.00000     0.77386    0.00152     0.77538
      H   11    0.20422      0.00000     0.79410    0.00168     0.79578
      H   12    0.20899      0.00000     0.78932    0.00169     0.79101
      C   13   -0.46130      1.99940     4.44683    0.01507     6.46130
      H   14    0.22803      0.00000     0.77003    0.00195     0.77197
      C   15   -0.59598      1.99941     4.58899    0.00758     6.59598
      H   16    0.22621      0.00000     0.77232    0.00147     0.77379
      H   17    0.20685      0.00000     0.79168    0.00147     0.79315
      H   18    0.20710      0.00000     0.79132    0.00159     0.79290
      C   19   -0.59813      1.99940     4.59080    0.00792     6.59813
      H   20    0.22466      0.00000     0.77382    0.00152     0.77534
      H   21    0.20934      0.00000     0.78898    0.00168     0.79066
      H   22    0.20252      0.00000     0.79583    0.00165     0.79748
      C   23   -0.47250      1.99935     4.45679    0.01635     6.47250
      H   24    0.22274      0.00000     0.77450    0.00275     0.77726
      C   25   -0.38499      1.99938     4.37537    0.01024     6.38499
      H   26    0.21466      0.00000     0.78354    0.00181     0.78534
      H   27    0.18632      0.00000     0.81078    0.00290     0.81368
      C   28   -0.38390      1.99942     4.37477    0.00971     6.38390
      H   29    0.19402      0.00000     0.80412    0.00186     0.80598
      H   30    0.21390      0.00000     0.78472    0.00138     0.78610
      C   31   -0.38930      1.99942     4.38037    0.00952     6.38930
      H   32    0.21712      0.00000     0.78154    0.00134     0.78288
      H   33    0.19177      0.00000     0.80641    0.00182     0.80823
      C   34   -0.38236      1.99942     4.37317    0.00977     6.38236
      H   35    0.21635      0.00000     0.78225    0.00140     0.78365
      H   36    0.19444      0.00000     0.80370    0.00186     0.80556
      C   37   -0.39421      1.99938     4.38383    0.01100     6.39421
      H   38    0.19225      0.00000     0.80529    0.00246     0.80775
      H   39    0.20508      0.00000     0.79307    0.00186     0.79492
      C   40   -0.47118      1.99935     4.45341    0.01843     6.47118
      H   41    0.21970      0.00000     0.77651    0.00379     0.78030
      C   42   -0.38841      1.99939     4.37799    0.01102     6.38841
      H   43    0.19687      0.00000     0.80099    0.00214     0.80313
      H   44    0.20363      0.00000     0.79420    0.00218     0.79637
      C   45   -0.38389      1.99942     4.37468    0.00980     6.38389
      H   46    0.19519      0.00000     0.80297    0.00184     0.80481
      H   47    0.21362      0.00000     0.78501    0.00137     0.78638
      C   48   -0.38911      1.99942     4.38017    0.00952     6.38911
      H   49    0.21720      0.00000     0.78146    0.00134     0.78280
      H   50    0.19163      0.00000     0.80649    0.00188     0.80837
      C   51   -0.38281      1.99942     4.37358    0.00982     6.38281
      H   52    0.21621      0.00000     0.78242    0.00136     0.78379
      H   53    0.19554      0.00000     0.80261    0.00184     0.80446
      C   54   -0.39263      1.99937     4.38161    0.01165     6.39263
      H   55    0.20561      0.00000     0.79250    0.00188     0.79439
      H   56    0.19501      0.00000     0.80298    0.00201     0.80499
      C   57   -1.01361      1.99941     4.99583    0.01837     7.01361
      H   58    0.25345      0.00000     0.74424    0.00231     0.74655
      H   59    0.25835      0.00000     0.73915    0.00250     0.74165
     Rh   60   -0.38213     35.98631     9.37032    0.02550    45.38213
      C   61   -0.17949      1.99908     4.16063    0.01978     6.17949
      C   62   -0.16569      1.99909     4.14633    0.02027     6.16569
      C   63   -0.17365      1.99908     4.15496    0.01960     6.17365
      C   64   -0.16914      1.99909     4.14986    0.02018     6.16914
      C   65   -0.42270      1.99936     4.41139    0.01195     6.42270
      H   66    0.22013      0.00000     0.77770    0.00217     0.77987
      H   67    0.22024      0.00000     0.77773    0.00203     0.77976
      C   68   -0.41726      1.99935     4.40513    0.01277     6.41726
      C   69   -0.42375      1.99936     4.41235    0.01204     6.42375
      H   70    0.22190      0.00000     0.77612    0.00199     0.77810
      C   71   -0.41663      1.99935     4.40459    0.01269     6.41663
      H   72    0.21960      0.00000     0.77778    0.00263     0.78040
      H   73    0.22850      0.00000     0.77007    0.00144     0.77150
      H   74    0.21542      0.00000     0.78269    0.00189     0.78458
      H   75    0.23355      0.00000     0.76462    0.00183     0.76645
      H   76    0.21458      0.00000     0.78368    0.00175     0.78542
      H   77    0.21599      0.00000     0.78212    0.00189     0.78401
      H   78    0.22818      0.00000     0.77039    0.00143     0.77182
      H   79    0.21555      0.00000     0.78282    0.00163     0.78445
      H   80    0.23316      0.00000     0.76501    0.00183     0.76684
 =======================================================================
   * Total *    1.00000    109.96233   175.47939    0.55828   286.00000

 Normal termination of Gaussian 16 at Tue Jan 21 10:56:20 2025.
