 Gaussian 16, Revision B.01,
 Gaussian 16:  ES64L-G16RevB.01 20-Dec-2017

 ------------------------------------------
 # nmr=giao b3lyp/genecp pop=nbo scfcyc=200
 ------------------------------------------

 ---------
 MB-47_SPE
 ---------
 Symbolic Z-matrix:
 Charge =  1 Multiplicity = 1

                         Standard orientation:
 ---------------------------------------------------------------------
 Center     Atomic      Atomic             Coordinates (Angstroms)
 Number     Number       Type             X           Y           Z
 ---------------------------------------------------------------------
      1         15           0        0.980458   -1.145073    0.190320
      2         15           0       -1.634549   -0.098751    0.075650
      3          6           0       -0.711299   -1.548895    0.868180
      4          1           0       -0.739291   -1.381185    1.944800
      5          1           0       -1.052943   -2.559137    0.668930
      6          6           0        1.858279   -1.281018    2.811670
      7          1           0        0.988285   -0.625173    2.875820
      8          1           0        2.688875   -0.687352    3.201050
      9          6           0        3.490464   -1.996107    1.049900
     10          1           0        3.521635   -2.162937   -0.024640
     11          1           0        3.704400   -2.963585    1.517010
     12          6           0        1.651291   -1.561399   -2.434010
     13          1           0        2.657203   -1.913332   -2.695090
     14          1           0        1.714054   -0.483109   -2.294230
     15          6           0        1.521824   -3.618440   -1.077460
     16          1           0        1.302157   -4.010551   -2.071180
     17          1           0        2.592465   -3.788553   -0.915190
     18          6           0       -2.109278    1.344676    2.342860
     19          1           0       -1.106220    1.635183    2.023400
     20          1           0       -1.971824    0.704327    3.223980
     21          6           0       -4.036960    0.002784    1.507980
     22          1           0       -4.414317   -0.417639    0.578950
     23          1           0       -4.713625    0.823429    1.756200
     24          6           0       -3.363799   -0.032522   -2.102830
     25          1           0       -3.561355   -0.686073   -2.954420
     26          1           0       -4.342481    0.224011   -1.675390
     27          6           0       -3.207485   -2.173311   -0.947080
     28          1           0       -4.297446   -2.061188   -0.970800
     29          1           0       -2.974283   -2.557959    0.043220
     30         45           0        0.469013    1.067493   -0.341700
     31          6           0        2.294307    2.029655    0.501280
     32          6           0        2.559829    1.684777   -0.816850
     33          6           0        0.111020    3.123621   -1.392760
     34          6           0       -0.282051    3.247848   -0.086380
     35          1           0        2.621182    1.329067    1.260000
     36          6           0        2.032318    3.440044    1.005940
     37          1           0        3.118625    0.768601   -0.977940
     38          6           0        2.534803    2.604977   -2.012160
     39          6           0        1.404286    3.653329   -1.975680
     40          1           0       -0.644858    2.843126   -2.114290
     41          1           0       -1.334650    3.112161    0.134130
     42          6           0        0.542175    3.848114    1.026010
     43          1           0        2.608883    4.146527    0.408440
     44          1           0        2.425067    3.519406    2.020900
     45          1           0        3.504070    3.107983   -2.118870
     46          1           0        2.422467    1.988916   -2.907740
     47          1           0        1.209514    3.992768   -2.994560
     48          1           0        1.722860    4.535541   -1.421420
     49          1           0        0.459978    4.941463    0.997910
     50          1           0        0.102017    3.545551    1.977310
     51          6           0        4.599307   -1.009080    1.419480
     52          1           0        4.453011   -0.036641    0.947050
     53          1           0        4.688106   -0.858039    2.495690
     54          1           0        5.555840   -1.406973    1.074200
     55          6           0        1.650037   -2.509289    3.697130
     56          1           0        2.514641   -3.174233    3.667300
     57          1           0        1.505055   -2.204610    4.736000
     58          1           0        0.774611   -3.081495    3.384900
     59          6           0        0.684173   -1.850505   -3.578940
     60          1           0        1.047089   -1.376573   -4.493750
     61          1           0        0.587570   -2.917436   -3.785160
     62          1           0       -0.306700   -1.455182   -3.353790
     63          6           0        0.732930   -4.435625   -0.062570
     64          1           0        0.907317   -4.108334    0.961410
     65          1           0       -0.338040   -4.415032   -0.266350
     66          1           0        1.057386   -5.475333   -0.133720
     67          6           0       -2.775969   -3.185158   -2.004790
     68          1           0       -3.282042   -4.138442   -1.836630
     69          1           0       -3.030031   -2.852540   -3.012080
     70          1           0       -1.699628   -3.351881   -1.969190
     71          6           0       -2.697748    1.231752   -2.611980
     72          1           0       -2.588503    1.977333   -1.824590
     73          1           0       -1.717876    1.020879   -3.041920
     74          1           0       -3.324701    1.669528   -3.390810
     75          6           0       -2.900957    2.587411    2.744140
     76          1           0       -3.873545    2.337895    3.169690
     77          1           0       -2.351540    3.145085    3.505360
     78          1           0       -3.066461    3.244380    1.888370
     79          6           0       -4.094973   -1.053607    2.614910
     80          1           0       -3.458267   -1.912573    2.393190
     81          1           0       -3.793495   -0.651075    3.583090
     82          1           0       -5.118790   -1.418134    2.720760
     83          7           0       -2.711843    0.585512    1.236970
     84          7           0       -2.593774   -0.837657   -1.128900
     85          7           0        1.253985   -2.162082   -1.143050
     86          7           0        2.113801   -1.603616    1.400070
 ---------------------------------------------------------------------

 SCF Done:  E(RB3LYP) =  -1997.79665880     A.U. after   16 cycles

      1  P    Isotropic =   200.8937   Anisotropy =   148.2838

      2  P    Isotropic =   242.5707   Anisotropy =   129.2745

      3  C    Isotropic =   119.4506   Anisotropy =    63.4326

      4  H    Isotropic =    28.0020   Anisotropy =     6.2670

      5  H    Isotropic =    28.1844   Anisotropy =     5.3352

      6  C    Isotropic =   144.7585   Anisotropy =    40.7537

      7  H    Isotropic =    29.1871   Anisotropy =     5.6957

      8  H    Isotropic =    28.9215   Anisotropy =     5.6145

      9  C    Isotropic =   143.7444   Anisotropy =    41.8165

     10  H    Isotropic =    29.6415   Anisotropy =     5.5320

     11  H    Isotropic =    28.8103   Anisotropy =     8.8419

     12  C    Isotropic =   128.9982   Anisotropy =    55.2116

     13  H    Isotropic =    28.8954   Anisotropy =     7.6231

     14  H    Isotropic =    27.7105   Anisotropy =     8.3488

     15  C    Isotropic =   134.5273   Anisotropy =    55.4262

     16  H    Isotropic =    28.5740   Anisotropy =     7.5901

     17  H    Isotropic =    28.9214   Anisotropy =     7.7032

     18  C    Isotropic =   143.7808   Anisotropy =    39.1300

     19  H    Isotropic =    27.7315   Anisotropy =     8.7030

     20  H    Isotropic =    28.8281   Anisotropy =     5.1614

     21  C    Isotropic =   141.9596   Anisotropy =    46.7118

     22  H    Isotropic =    29.4041   Anisotropy =     4.8934

     23  H    Isotropic =    28.6783   Anisotropy =     8.4020

     24  C    Isotropic =   135.0913   Anisotropy =    50.1287

     25  H    Isotropic =    28.6008   Anisotropy =     7.8619

     26  H    Isotropic =    28.9420   Anisotropy =     8.4746

     27  C    Isotropic =   133.0076   Anisotropy =    51.9708

     28  H    Isotropic =    28.9999   Anisotropy =     7.7281

     29  H    Isotropic =    28.5147   Anisotropy =     3.4152

     30  Rh   Isotropic =  -346.2172   Anisotropy =   389.9382

     31  C    Isotropic =    80.3876   Anisotropy =   120.6639

     32  C    Isotropic =    90.1321   Anisotropy =    98.8088

     33  C    Isotropic =    66.8936   Anisotropy =   139.9098

     34  C    Isotropic =    73.5280   Anisotropy =   124.9540

     35  H    Isotropic =    27.4414   Anisotropy =     6.2641

     36  C    Isotropic =   153.1673   Anisotropy =    26.5750

     37  H    Isotropic =    27.8452   Anisotropy =     3.8073

     38  C    Isotropic =   146.8170   Anisotropy =    30.9496

     39  C    Isotropic =   155.0818   Anisotropy =    24.4992

     40  H    Isotropic =    26.8347   Anisotropy =     5.0211

     41  H    Isotropic =    26.6788   Anisotropy =     3.4088

     42  C    Isotropic =   149.4992   Anisotropy =    25.6392

     43  H    Isotropic =    29.7230   Anisotropy =     9.3624

     44  H    Isotropic =    29.7800   Anisotropy =    10.4757

     45  H    Isotropic =    29.1129   Anisotropy =    12.3928

     46  H    Isotropic =    29.2101   Anisotropy =     7.0731

     47  H    Isotropic =    29.9139   Anisotropy =    11.6443

     48  H    Isotropic =    29.9264   Anisotropy =     9.0938

     49  H    Isotropic =    29.2965   Anisotropy =    12.2223

     50  H    Isotropic =    29.2853   Anisotropy =     7.1075

     51  C    Isotropic =   170.4036   Anisotropy =    25.3196

     52  H    Isotropic =    31.7790   Anisotropy =     8.0029

     53  H    Isotropic =    30.3599   Anisotropy =     8.2271

     54  H    Isotropic =    30.8845   Anisotropy =    12.1404

     55  C    Isotropic =   170.2493   Anisotropy =    26.4993

     56  H    Isotropic =    30.3875   Anisotropy =     9.0565

     57  H    Isotropic =    30.9034   Anisotropy =    12.0933

     58  H    Isotropic =    31.2104   Anisotropy =     5.7528

     59  C    Isotropic =   168.1278   Anisotropy =    23.7238

     60  H    Isotropic =    30.6994   Anisotropy =    10.9950

     61  H    Isotropic =    30.3153   Anisotropy =     7.6439

     62  H    Isotropic =    30.6640   Anisotropy =     7.7295

     63  C    Isotropic =   168.9537   Anisotropy =    14.3393

     64  H    Isotropic =    30.4062   Anisotropy =     5.8455

     65  H    Isotropic =    30.6659   Anisotropy =     6.6764

     66  H    Isotropic =    30.6442   Anisotropy =    12.2852

     67  C    Isotropic =   169.0228   Anisotropy =    23.0542

     68  H    Isotropic =    30.8506   Anisotropy =    12.1209

     69  H    Isotropic =    30.3463   Anisotropy =     7.4012

     70  H    Isotropic =    30.7939   Anisotropy =     8.2975

     71  C    Isotropic =   167.1209   Anisotropy =    16.6145

     72  H    Isotropic =    31.0882   Anisotropy =     6.0315

     73  H    Isotropic =    30.6791   Anisotropy =     6.1254

     74  H    Isotropic =    30.4838   Anisotropy =    11.3340

     75  C    Isotropic =   170.6653   Anisotropy =    26.5962

     76  H    Isotropic =    30.1923   Anisotropy =     9.4803

     77  H    Isotropic =    30.7238   Anisotropy =    10.5338

     78  H    Isotropic =    31.0784   Anisotropy =     6.7763

     79  C    Isotropic =   172.7875   Anisotropy =    20.0570

     80  H    Isotropic =    31.4954   Anisotropy =     5.1900

     81  H    Isotropic =    30.3174   Anisotropy =     7.6239

     82  H    Isotropic =    30.9775   Anisotropy =    12.5193

     83  N    Isotropic =   173.6394   Anisotropy =    69.8940

     84  N    Isotropic =   176.9508   Anisotropy =    35.6206

     85  N    Isotropic =   178.0460   Anisotropy =    35.5398

     86  N    Isotropic =   188.8268   Anisotropy =    65.8924

 The electronic state is 1-A.
 Alpha  occ. eigenvalues --  -77.26885 -77.26284 -14.43072 -14.42929 -14.42461
 Alpha  occ. eigenvalues --  -14.42005 -10.30574 -10.30523 -10.30486 -10.30392
 Alpha  occ. eigenvalues --  -10.30323 -10.30195 -10.30021 -10.29753 -10.29230
 Alpha  occ. eigenvalues --  -10.28992 -10.28865 -10.28815 -10.28776 -10.27695
 Alpha  occ. eigenvalues --  -10.27593 -10.27490 -10.27333 -10.26107 -10.26104
 Alpha  occ. eigenvalues --  -10.25681 -10.25664 -10.25542 -10.25540 -10.25494
 Alpha  occ. eigenvalues --  -10.25316  -6.72188  -6.71586  -4.88556  -4.88447
 Alpha  occ. eigenvalues --   -4.88106  -4.87953  -4.87868  -4.87466  -3.31457
 Alpha  occ. eigenvalues --   -2.08296  -2.07607  -2.05021  -1.03716  -1.03299
 Alpha  occ. eigenvalues --   -1.00685  -1.00470  -0.94581  -0.89240  -0.88113
 Alpha  occ. eigenvalues --   -0.87424  -0.86869  -0.86776  -0.86444  -0.86112
 Alpha  occ. eigenvalues --   -0.84192  -0.82132  -0.81960  -0.81809  -0.80440
 Alpha  occ. eigenvalues --   -0.77904  -0.75210  -0.74289  -0.73974  -0.73390
 Alpha  occ. eigenvalues --   -0.72674  -0.72350  -0.70676  -0.68842  -0.68533
 Alpha  occ. eigenvalues --   -0.66088  -0.65153  -0.64585  -0.62660  -0.61052
 Alpha  occ. eigenvalues --   -0.60376  -0.59984  -0.59073  -0.58719  -0.58118
 Alpha  occ. eigenvalues --   -0.57963  -0.57424  -0.56946  -0.56843  -0.56363
 Alpha  occ. eigenvalues --   -0.55892  -0.55189  -0.53811  -0.53723  -0.53463
 Alpha  occ. eigenvalues --   -0.53245  -0.52833  -0.52683  -0.52576  -0.52234
 Alpha  occ. eigenvalues --   -0.52071  -0.51713  -0.51160  -0.50810  -0.50247
 Alpha  occ. eigenvalues --   -0.49357  -0.49183  -0.48560  -0.48372  -0.48294
 Alpha  occ. eigenvalues --   -0.48061  -0.47705  -0.47550  -0.47255  -0.47058
 Alpha  occ. eigenvalues --   -0.46801  -0.46751  -0.46433  -0.46310  -0.46148
 Alpha  occ. eigenvalues --   -0.46066  -0.45933  -0.45699  -0.45184  -0.44919
 Alpha  occ. eigenvalues --   -0.44602  -0.44345  -0.44185  -0.43696  -0.43471
 Alpha  occ. eigenvalues --   -0.43275  -0.43078  -0.42662  -0.41649  -0.38425
 Alpha  occ. eigenvalues --   -0.37362  -0.35497  -0.35088  -0.34466  -0.34047
 Alpha  occ. eigenvalues --   -0.33660  -0.32608  -0.31983  -0.30435
 Alpha virt. eigenvalues --   -0.16380  -0.13532  -0.09591  -0.07917  -0.07595
 Alpha virt. eigenvalues --   -0.07486  -0.06981  -0.06474  -0.06220  -0.05452
 Alpha virt. eigenvalues --   -0.05320  -0.04681  -0.04507  -0.04235  -0.03953

 Mulliken charges:
               1
     1  P    0.541358
     2  P    0.490958
     3  C   -0.555881
     4  H    0.206736
     5  H    0.204925
     6  C   -0.172967
     7  H    0.135628
     8  H    0.151215
     9  C   -0.110278
    10  H    0.133891
    11  H    0.150178
    12  C   -0.112456
    13  H    0.147817
    14  H    0.115865
    15  C   -0.086369
    16  H    0.142521
    17  H    0.138064
    18  C   -0.205880
    19  H    0.159041
    20  H    0.144617
    21  C   -0.154469
    22  H    0.142386
    23  H    0.163688
    24  C   -0.116002
    25  H    0.136010
    26  H    0.140286
    27  C   -0.166657
    28  H    0.154153
    29  H    0.139261
    30  Rh  -0.556387
    31  C   -0.004270
    32  C   -0.135328
    33  C   -0.021743
    34  C   -0.106354
    35  H    0.187797
    36  C   -0.361806
    37  H    0.204335
    38  C   -0.242974
    39  C   -0.333441
    40  H    0.182355
    41  H    0.195247
    42  C   -0.235694
    43  H    0.173205
    44  H    0.167392
    45  H    0.170918
    46  H    0.137465
    47  H    0.170486
    48  H    0.168678
    49  H    0.172482
    50  H    0.134794
    51  C   -0.413899
    52  H    0.126335
    53  H    0.145529
    54  H    0.151056
    55  C   -0.355836
    56  H    0.134367
    57  H    0.144802
    58  H    0.118969
    59  C   -0.379182
    60  H    0.142357
    61  H    0.129844
    62  H    0.134333
    63  C   -0.434354
    64  H    0.150550
    65  H    0.137512
    66  H    0.156632
    67  C   -0.368642
    68  H    0.148278
    69  H    0.130204
    70  H    0.128689
    71  C   -0.413596
    72  H    0.125722
    73  H    0.135284
    74  H    0.157272
    75  C   -0.381331
    76  H    0.144506
    77  H    0.138132
    78  H    0.131353
    79  C   -0.374151
    80  H    0.112129
    81  H    0.136867
    82  H    0.148185
    83  N   -0.287599
    84  N   -0.331859
    85  N   -0.374946
    86  N   -0.318307
 Sum of Mulliken charges =   1.00000

 Dipole moment (field-independent basis, Debye):
    X=              0.0754    Y=             -0.7627    Z=              0.4026  Tot=              0.8657
 Quadrupole moment (field-independent basis, Debye-Ang):
   XX=           -190.5179   YY=           -194.8505   ZZ=           -204.6027
   XY=              0.9968   XZ=              0.3428   YZ=              0.2650

 Summary of Natural Population Analysis:

                                       Natural Population
                Natural  -----------------------------------------------
    Atom  No    Charge         Core      Valence    Rydberg      Total
 -----------------------------------------------------------------------
      P    1    1.57565      9.99604     3.35571    0.07260    13.42435
      P    2    1.46255      9.99642     3.47140    0.06963    13.53745
      C    3   -1.07466      1.99939     5.05256    0.02271     7.07466
      H    4    0.25496      0.00000     0.74321    0.00183     0.74504
      H    5    0.25545      0.00000     0.74249    0.00206     0.74455
      C    6   -0.20527      1.99936     4.19182    0.01410     6.20527
      H    7    0.19218      0.00000     0.80555    0.00227     0.80782
      H    8    0.19260      0.00000     0.80472    0.00268     0.80740
      C    9   -0.20517      1.99935     4.19138    0.01445     6.20517
      H   10    0.20096      0.00000     0.79655    0.00249     0.79904
      H   11    0.19089      0.00000     0.80637    0.00275     0.80911
      C   12   -0.19351      1.99936     4.18036    0.01380     6.19351
      H   13    0.18222      0.00000     0.81522    0.00256     0.81778
      H   14    0.21107      0.00000     0.78588    0.00305     0.78893
      C   15   -0.20388      1.99933     4.18817    0.01638     6.20388
      H   16    0.20477      0.00000     0.79307    0.00216     0.79523
      H   17    0.17815      0.00000     0.81885    0.00300     0.82185
      C   18   -0.21148      1.99936     4.19743    0.01469     6.21148
      H   19    0.20948      0.00000     0.78737    0.00314     0.79052
      H   20    0.17468      0.00000     0.82198    0.00334     0.82532
      C   21   -0.21070      1.99935     4.19620    0.01515     6.21070
      H   22    0.19690      0.00000     0.80002    0.00308     0.80310
      H   23    0.19840      0.00000     0.79925    0.00235     0.80160
      C   24   -0.19962      1.99934     4.18477    0.01551     6.19962
      H   25    0.20037      0.00000     0.79745    0.00218     0.79963
      H   26    0.17650      0.00000     0.82061    0.00289     0.82350
      C   27   -0.20803      1.99936     4.19363    0.01504     6.20803
      H   28    0.18925      0.00000     0.80817    0.00257     0.81075
      H   29    0.19324      0.00000     0.80397    0.00279     0.80676
     Rh   30   -0.40531     35.98498     9.38963    0.03069    45.40531
      C   31   -0.15835      1.99907     4.13986    0.01942     6.15835
      C   32   -0.20005      1.99908     4.18089    0.02008     6.20005
      C   33   -0.17359      1.99909     4.15475    0.01975     6.17359
      C   34   -0.17908      1.99910     4.15814    0.02184     6.17908
      H   35    0.22345      0.00000     0.77429    0.00226     0.77655
      C   36   -0.42349      1.99935     4.41191    0.01223     6.42349
      H   37    0.21938      0.00000     0.77842    0.00220     0.78062
      C   38   -0.41386      1.99935     4.40158    0.01293     6.41386
      C   39   -0.42506      1.99936     4.41374    0.01196     6.42506
      H   40    0.22961      0.00000     0.76834    0.00205     0.77039
      H   41    0.22850      0.00000     0.76864    0.00286     0.77150
      C   42   -0.42022      1.99935     4.40763    0.01324     6.42022
      H   43    0.21630      0.00000     0.78169    0.00201     0.78370
      H   44    0.22660      0.00000     0.77190    0.00150     0.77340
      H   45    0.23103      0.00000     0.76694    0.00203     0.76897
      H   46    0.21352      0.00000     0.78469    0.00179     0.78648
      H   47    0.22968      0.00000     0.76883    0.00149     0.77032
      H   48    0.21494      0.00000     0.78307    0.00199     0.78506
      H   49    0.23363      0.00000     0.76443    0.00194     0.76637
      H   50    0.21252      0.00000     0.78562    0.00186     0.78748
      C   51   -0.61006      1.99945     4.60404    0.00657     6.61006
      H   52    0.20051      0.00000     0.79776    0.00173     0.79949
      H   53    0.20477      0.00000     0.79388    0.00135     0.79523
      H   54    0.22370      0.00000     0.77522    0.00108     0.77630
      C   55   -0.60286      1.99945     4.59679    0.00661     6.60286
      H   56    0.20892      0.00000     0.78978    0.00130     0.79108
      H   57    0.21745      0.00000     0.78140    0.00116     0.78255
      H   58    0.20042      0.00000     0.79797    0.00161     0.79958
      C   59   -0.60291      1.99945     4.59670    0.00676     6.60291
      H   60    0.21639      0.00000     0.78246    0.00115     0.78361
      H   61    0.20298      0.00000     0.79535    0.00167     0.79702
      H   62    0.20951      0.00000     0.78890    0.00159     0.79049
      C   63   -0.60769      1.99944     4.60129    0.00696     6.60769
      H   64    0.20973      0.00000     0.78844    0.00184     0.79027
      H   65    0.19933      0.00000     0.79907    0.00160     0.80067
      H   66    0.22739      0.00000     0.77158    0.00103     0.77261
      C   67   -0.60220      1.99945     4.59573    0.00703     6.60220
      H   68    0.21754      0.00000     0.78128    0.00118     0.78246
      H   69    0.20660      0.00000     0.79175    0.00166     0.79340
      H   70    0.20380      0.00000     0.79449    0.00171     0.79620
      C   71   -0.59952      1.99945     4.59280    0.00728     6.59952
      H   72    0.20369      0.00000     0.79464    0.00167     0.79631
      H   73    0.21044      0.00000     0.78796    0.00160     0.78956
      H   74    0.22777      0.00000     0.77115    0.00108     0.77223
      C   75   -0.60678      1.99946     4.59899    0.00834     6.60678
      H   76    0.20966      0.00000     0.78903    0.00131     0.79034
      H   77    0.21701      0.00000     0.78181    0.00118     0.78299
      H   78    0.20637      0.00000     0.79220    0.00143     0.79363
      C   79   -0.61403      1.99945     4.60811    0.00647     6.61403
      H   80    0.19408      0.00000     0.80438    0.00154     0.80592
      H   81    0.20564      0.00000     0.79312    0.00125     0.79436
      H   82    0.22287      0.00000     0.77605    0.00108     0.77713
      N   83   -0.74713      1.99955     5.72141    0.02617     7.74713
      N   84   -0.74641      1.99954     5.72430    0.02257     7.74641
      N   85   -0.75443      1.99953     5.73137    0.02353     7.75443
      N   86   -0.76061      1.99954     5.73430    0.02676     7.76061
 =======================================================================
   * Total *    1.00000    113.95916   191.33467    0.70617   306.00000

 Normal termination of Gaussian 16 at Tue Jan 21 13:21:49 2025.
