 Gaussian 16, Revision B.01,
 Gaussian 16:  ES64L-G16RevB.01 20-Dec-2017

 ------------------------------------------
 # nmr=giao b3lyp/genecp pop=nbo scfcyc=200
 ------------------------------------------

 ---------
 MB-42_SPE
 ---------
 Symbolic Z-matrix:
 Charge =  1 Multiplicity = 1

                         Standard orientation:
 ---------------------------------------------------------------------
 Center     Atomic      Atomic             Coordinates (Angstroms)
 Number     Number       Type             X           Y           Z
 ---------------------------------------------------------------------
      1         15           0       -1.537632   -1.423228   -0.014190
      2         15           0        1.083499   -0.309720   -0.032860
      3          6           0        0.252158   -1.992110   -0.049490
      4          1           0        0.490168   -2.596290   -0.921570
      5          1           0        0.521258   -2.571180    0.832270
      6          6           0       -2.257862   -2.055698   -1.688290
      7          6           0       -1.367472   -1.468878   -2.800470
      8          1           0       -1.819702   -1.699488   -3.768280
      9          1           0       -0.364702   -1.896919   -2.807650
     10          1           0       -1.282711   -0.383358   -2.718990
     11          6           0       -2.258003   -3.587598   -1.797270
     12          1           0       -3.022053   -4.043997   -1.170050
     13          1           0       -1.294083   -4.032468   -1.544240
     14          1           0       -2.482133   -3.866808   -2.830430
     15          6           0       -3.685192   -1.525947   -1.902000
     16          1           0       -3.708771   -0.438147   -1.948320
     17          1           0       -4.383842   -1.856136   -1.136120
     18          1           0       -4.055332   -1.898446   -2.860710
     19          6           0       -2.305562   -2.287068    1.525530
     20          6           0       -2.027353   -3.796908    1.594610
     21          1           0       -0.963473   -4.032389    1.540250
     22          1           0       -2.539184   -4.355608    0.815080
     23          1           0       -2.388764   -4.174638    2.555070
     24          6           0       -3.822962   -2.042207    1.565230
     25          1           0       -4.208632   -2.358346    2.537790
     26          1           0       -4.352042   -2.619336    0.808030
     27          1           0       -4.082741   -0.989896    1.438300
     28          6           0       -1.659002   -1.615778    2.752430
     29          1           0       -1.797381   -0.534458    2.756100
     30          1           0       -0.589522   -1.821579    2.818580
     31          1           0       -2.118092   -2.019178    3.658520
     32          6           0        2.190869   -0.201631   -1.559180
     33          1           0        1.457039    0.006350   -2.346530
     34          6           0        3.148030    1.005018   -1.493600
     35          1           0        2.613251    1.915959   -1.213660
     36          1           0        3.898250    0.832298   -0.716960
     37          6           0        3.862780    1.210628   -2.836840
     38          1           0        3.126071    1.489698   -3.598590
     39          1           0        4.557571    2.049767   -2.754490
     40          6           0        4.603089   -0.054163   -3.279990
     41          1           0        5.428979   -0.251793   -2.587360
     42          1           0        5.054460    0.099007   -4.262730
     43          6           0        3.668059   -1.266252   -3.312820
     44          1           0        4.225358   -2.170032   -3.570370
     45          1           0        2.918919   -1.127961   -4.100630
     46          6           0        2.954458   -1.474551   -1.967510
     47          1           0        3.693988   -1.729872   -1.205760
     48          1           0        2.279518   -2.329471   -2.046990
     49          6           0        2.087759   -0.377161    1.566560
     50          1           0        1.329659   -0.748420    2.266530
     51          6           0        2.546380    0.990089    2.102530
     52          1           0        3.274231    1.438008    1.420270
     53          1           0        1.696971    1.671889    2.159670
     54          6           0        3.181450    0.847098    3.494490
     55          1           0        2.410860    0.534219    4.208300
     56          1           0        3.537421    1.823398    3.832080
     57          6           0        4.324729   -0.170722    3.504690
     58          1           0        5.153120    0.205437    2.893710
     59          1           0        4.716019   -0.286423    4.517880
     60          6           0        3.866868   -1.524892    2.957240
     61          1           0        3.127908   -1.964312    3.636860
     62          1           0        4.705328   -2.224283    2.916480
     63          6           0        3.250738   -1.385622    1.557050
     64          1           0        2.920238   -2.363851    1.198500
     65          1           0        4.025479   -1.041862    0.866740
     66         45           0       -0.958040    0.919731    0.024730
     67          6           0       -0.156128    3.038901    0.287990
     68          6           0       -0.360639    2.780811   -1.054110
     69          6           0       -3.018069    1.912603   -0.266160
     70          6           0       -2.703689    1.880773    1.074940
     71          1           0        0.852602    2.906610    0.657840
     72          6           0       -1.070398    3.856811    1.180140
     73          1           0        0.505151    2.482420   -1.636150
     74          6           0       -1.538418    3.214382   -1.890870
     75          6           0       -2.900698    3.121063   -1.173550
     76          1           0       -3.650970    1.115113   -0.632620
     77          1           0       -3.129370    1.071813    1.659210
     78          6           0       -2.137258    3.007782    1.901950
     79          1           0       -1.542507    4.649052    0.599180
     80          1           0       -0.463017    4.361371    1.933290
     81          1           0       -1.374347    4.238542   -2.249340
     82          1           0       -1.561309    2.587542   -2.785150
     83          1           0       -3.687108    3.068563   -1.928280
     84          1           0       -3.094178    4.029933   -0.604150
     85          1           0       -2.954548    3.651463    2.251100
     86          1           0       -1.697509    2.572162    2.801990
 ---------------------------------------------------------------------

 SCF Done:  E(RB3LYP) =  -1931.22473761     A.U. after   15 cycles

      1  P    Isotropic =   285.0763   Anisotropy =   137.7420

      2  P    Isotropic =   315.5385   Anisotropy =    91.2137

      3  C    Isotropic =   147.8383   Anisotropy =    48.3003

      4  H    Isotropic =    28.8950   Anisotropy =     4.7463

      5  H    Isotropic =    29.4568   Anisotropy =     4.7588

      6  C    Isotropic =   133.6419   Anisotropy =    35.1622

      7  C    Isotropic =   151.5481   Anisotropy =    40.9747

      8  H    Isotropic =    30.7750   Anisotropy =     9.3715

      9  H    Isotropic =    30.7237   Anisotropy =     7.0841

     10  H    Isotropic =    29.5047   Anisotropy =     6.9031

     11  C    Isotropic =   157.0104   Anisotropy =    34.8652

     12  H    Isotropic =    30.5426   Anisotropy =     8.4980

     13  H    Isotropic =    30.7264   Anisotropy =     6.2220

     14  H    Isotropic =    30.7845   Anisotropy =    10.7884

     15  C    Isotropic =   155.3950   Anisotropy =    38.8544

     16  H    Isotropic =    30.4331   Anisotropy =     6.6763

     17  H    Isotropic =    30.3804   Anisotropy =     7.1939

     18  H    Isotropic =    30.7100   Anisotropy =    10.5036

     19  C    Isotropic =   136.0795   Anisotropy =    32.6496

     20  C    Isotropic =   158.0368   Anisotropy =    38.5100

     21  H    Isotropic =    30.8471   Anisotropy =     6.1404

     22  H    Isotropic =    30.5547   Anisotropy =     8.1120

     23  H    Isotropic =    30.8599   Anisotropy =    11.0087

     24  C    Isotropic =   155.8710   Anisotropy =    35.7883

     25  H    Isotropic =    30.7338   Anisotropy =    10.6876

     26  H    Isotropic =    30.5402   Anisotropy =     7.9379

     27  H    Isotropic =    30.9472   Anisotropy =     5.1469

     28  C    Isotropic =   151.5395   Anisotropy =    42.4794

     29  H    Isotropic =    30.2731   Anisotropy =     6.7151

     30  H    Isotropic =    30.7088   Anisotropy =     7.1896

     31  H    Isotropic =    30.8939   Anisotropy =     9.9713

     32  C    Isotropic =   136.0432   Anisotropy =    29.8867

     33  H    Isotropic =    29.9937   Anisotropy =     6.3595

     34  C    Isotropic =   151.3394   Anisotropy =    11.4197

     35  H    Isotropic =    30.5338   Anisotropy =     6.9227

     36  H    Isotropic =    30.3951   Anisotropy =     6.6753

     37  C    Isotropic =   153.4012   Anisotropy =     8.1781

     38  H    Isotropic =    30.6448   Anisotropy =     7.4144

     39  H    Isotropic =    30.0107   Anisotropy =    10.3784

     40  C    Isotropic =   155.6879   Anisotropy =     1.9637

     41  H    Isotropic =    30.5541   Anisotropy =     8.9311

     42  H    Isotropic =    30.0965   Anisotropy =    11.7863

     43  C    Isotropic =   153.2361   Anisotropy =     8.6813

     44  H    Isotropic =    29.9855   Anisotropy =    10.7671

     45  H    Isotropic =    30.6959   Anisotropy =     7.6609

     46  C    Isotropic =   152.5540   Anisotropy =    14.1958

     47  H    Isotropic =    30.4550   Anisotropy =     6.2585

     48  H    Isotropic =    30.1845   Anisotropy =     6.2730

     49  C    Isotropic =   129.4446   Anisotropy =    36.4949

     50  H    Isotropic =    29.9741   Anisotropy =     6.1541

     51  C    Isotropic =   149.5093   Anisotropy =    14.3530

     52  H    Isotropic =    30.3731   Anisotropy =     4.9420

     53  H    Isotropic =    29.7196   Anisotropy =     9.7716

     54  C    Isotropic =   152.9153   Anisotropy =     8.7396

     55  H    Isotropic =    30.5313   Anisotropy =     7.2735

     56  H    Isotropic =    29.9515   Anisotropy =    10.1389

     57  C    Isotropic =   155.8595   Anisotropy =     2.3015

     58  H    Isotropic =    30.5206   Anisotropy =     8.7946

     59  H    Isotropic =    30.0762   Anisotropy =    11.7246

     60  C    Isotropic =   152.6950   Anisotropy =     8.4451

     61  H    Isotropic =    30.6740   Anisotropy =     7.6905

     62  H    Isotropic =    29.9265   Anisotropy =    10.7241

     63  C    Isotropic =   151.3010   Anisotropy =    14.2905

     64  H    Isotropic =    30.1393   Anisotropy =     4.5577

     65  H    Isotropic =    30.3444   Anisotropy =     7.2854

     66  Rh   Isotropic =  -351.1759   Anisotropy =   408.3879

     67  C    Isotropic =    86.5312   Anisotropy =   112.9414

     68  C    Isotropic =    77.2770   Anisotropy =   115.3970

     69  C    Isotropic =    82.0185   Anisotropy =   119.3483

     70  C    Isotropic =    74.7369   Anisotropy =   118.9815

     71  H    Isotropic =    27.2264   Anisotropy =     5.5405

     72  C    Isotropic =   154.9699   Anisotropy =    23.1880

     73  H    Isotropic =    26.3599   Anisotropy =     4.5135

     74  C    Isotropic =   146.2126   Anisotropy =    30.2347

     75  C    Isotropic =   155.0324   Anisotropy =    23.4900

     76  H    Isotropic =    27.0526   Anisotropy =     5.4745

     77  H    Isotropic =    26.1459   Anisotropy =     3.4973

     78  C    Isotropic =   147.1758   Anisotropy =    28.8918

     79  H    Isotropic =    29.8952   Anisotropy =     9.7713

     80  H    Isotropic =    29.9138   Anisotropy =    10.9607

     81  H    Isotropic =    29.0858   Anisotropy =    12.5339

     82  H    Isotropic =    29.1021   Anisotropy =     6.7451

     83  H    Isotropic =    29.9015   Anisotropy =    11.3027

     84  H    Isotropic =    29.8801   Anisotropy =     9.7893

     85  H    Isotropic =    29.1132   Anisotropy =    12.7799

     86  H    Isotropic =    29.0966   Anisotropy =     6.8995

 The electronic state is 1-A.
 Alpha  occ. eigenvalues --  -77.22806 -77.22740 -10.31388 -10.31355 -10.30013
 Alpha  occ. eigenvalues --  -10.29683 -10.29665 -10.29289 -10.29286 -10.28769
 Alpha  occ. eigenvalues --  -10.28635 -10.27642 -10.27614 -10.27382 -10.27381
 Alpha  occ. eigenvalues --  -10.27326 -10.27175 -10.27126 -10.27120 -10.27111
 Alpha  occ. eigenvalues --  -10.27005 -10.26928 -10.26860 -10.26721 -10.26714
 Alpha  occ. eigenvalues --  -10.25770 -10.25724 -10.25691 -10.25617 -10.25133
 Alpha  occ. eigenvalues --  -10.25053  -6.68807  -6.68719  -4.85104  -4.85018
 Alpha  occ. eigenvalues --   -4.84997  -4.84901  -4.84712  -4.84620  -3.31379
 Alpha  occ. eigenvalues --   -2.08215  -2.07565  -2.04895  -0.94618  -0.94285
 Alpha  occ. eigenvalues --   -0.93642  -0.93157  -0.91904  -0.89256  -0.88128
 Alpha  occ. eigenvalues --   -0.87588  -0.84471  -0.84125  -0.83972  -0.83764
 Alpha  occ. eigenvalues --   -0.80495  -0.80104  -0.79994  -0.79524  -0.79269
 Alpha  occ. eigenvalues --   -0.77934  -0.74906  -0.72401  -0.71102  -0.70822
 Alpha  occ. eigenvalues --   -0.70648  -0.70637  -0.66377  -0.66265  -0.66003
 Alpha  occ. eigenvalues --   -0.65185  -0.65086  -0.62991  -0.62525  -0.60396
 Alpha  occ. eigenvalues --   -0.59240  -0.57951  -0.57576  -0.57341  -0.56461
 Alpha  occ. eigenvalues --   -0.56345  -0.55590  -0.55400  -0.55277  -0.54370
 Alpha  occ. eigenvalues --   -0.54103  -0.54015  -0.53860  -0.53773  -0.53703
 Alpha  occ. eigenvalues --   -0.52834  -0.52716  -0.52619  -0.52441  -0.52298
 Alpha  occ. eigenvalues --   -0.50920  -0.50158  -0.49418  -0.49318  -0.48857
 Alpha  occ. eigenvalues --   -0.48514  -0.48424  -0.48266  -0.48137  -0.48076
 Alpha  occ. eigenvalues --   -0.47593  -0.47468  -0.47030  -0.46887  -0.46331
 Alpha  occ. eigenvalues --   -0.46166  -0.46050  -0.45427  -0.45340  -0.44813
 Alpha  occ. eigenvalues --   -0.44727  -0.44381  -0.43917  -0.43833  -0.43316
 Alpha  occ. eigenvalues --   -0.43055  -0.42825  -0.42390  -0.41808  -0.41381
 Alpha  occ. eigenvalues --   -0.41115  -0.40621  -0.40257  -0.40028  -0.39599
 Alpha  occ. eigenvalues --   -0.39027  -0.36535  -0.36311  -0.34746  -0.33975
 Alpha  occ. eigenvalues --   -0.33361  -0.30757
 Alpha virt. eigenvalues --   -0.16267  -0.13846  -0.09444  -0.08734  -0.08375
 Alpha virt. eigenvalues --   -0.07991  -0.07697  -0.06949  -0.06709  -0.06470
 Alpha virt. eigenvalues --   -0.05377  -0.04974  -0.04496  -0.04334  -0.04017

 Mulliken charges:
               1
     1  P    0.407232
     2  P    0.496787
     3  C   -0.656358
     4  H    0.201235
     5  H    0.201602
     6  C   -0.014778
     7  C   -0.439238
     8  H    0.160385
     9  H    0.139288
    10  H    0.158467
    11  C   -0.382147
    12  H    0.141974
    13  H    0.139777
    14  H    0.152425
    15  C   -0.420158
    16  H    0.132845
    17  H    0.152990
    18  H    0.156245
    19  C   -0.045638
    20  C   -0.361729
    21  H    0.131807
    22  H    0.147574
    23  H    0.151337
    24  C   -0.412816
    25  H    0.154967
    26  H    0.147060
    27  H    0.147276
    28  C   -0.398568
    29  H    0.139252
    30  H    0.131420
    31  H    0.161496
    32  C   -0.199032
    33  H    0.163447
    34  C   -0.309763
    35  H    0.154702
    36  H    0.140239
    37  C   -0.250911
    38  H    0.120051
    39  H    0.148630
    40  C   -0.231539
    41  H    0.117850
    42  H    0.150596
    43  C   -0.241193
    44  H    0.147616
    45  H    0.119088
    46  C   -0.242329
    47  H    0.149213
    48  H    0.122262
    49  C   -0.200032
    50  H    0.123104
    51  C   -0.277941
    52  H    0.146230
    53  H    0.125504
    54  C   -0.250178
    55  H    0.120441
    56  H    0.145770
    57  C   -0.228813
    58  H    0.116937
    59  H    0.149065
    60  C   -0.253853
    61  H    0.119169
    62  H    0.149030
    63  C   -0.231411
    64  H    0.142585
    65  H    0.124269
    66  Rh  -0.467158
    67  C   -0.067976
    68  C   -0.079003
    69  C   -0.054751
    70  C   -0.083642
    71  H    0.201848
    72  C   -0.368628
    73  H    0.184429
    74  C   -0.223780
    75  C   -0.362035
    76  H    0.190060
    77  H    0.168428
    78  C   -0.211937
    79  H    0.168788
    80  H    0.166890
    81  H    0.171503
    82  H    0.130951
    83  H    0.166791
    84  H    0.170569
    85  H    0.170693
    86  H    0.127149
 Sum of Mulliken charges =   1.00000

 Dipole moment (field-independent basis, Debye):
    X=             -1.0719    Y=             -1.1754    Z=             -0.1491  Tot=              1.5977
 Quadrupole moment (field-independent basis, Debye-Ang):
   XX=           -190.5180   YY=           -199.5817   ZZ=           -205.7311
   XY=              1.4510   XZ=              0.0953   YZ=             -0.0867

 Summary of Natural Population Analysis:

                                       Natural Population
                Natural  -----------------------------------------------
    Atom  No    Charge         Core      Valence    Rydberg      Total
 -----------------------------------------------------------------------
      P    1    1.07707      9.99685     3.88032    0.04576    13.92293
      P    2    1.11192      9.99684     3.84470    0.04653    13.88808
      C    3   -1.01757      1.99940     4.99969    0.01848     7.01757
      H    4    0.25290      0.00000     0.74433    0.00277     0.74710
      H    5    0.25336      0.00000     0.74405    0.00259     0.74664
      C    6   -0.25502      1.99941     4.23817    0.01744     6.25502
      C    7   -0.60124      1.99936     4.59324    0.00865     6.60124
      H    8    0.22437      0.00000     0.77379    0.00184     0.77563
      H    9    0.20132      0.00000     0.79690    0.00178     0.79868
      H   10    0.22039      0.00000     0.77794    0.00168     0.77961
      C   11   -0.60614      1.99935     4.59787    0.00892     6.60614
      H   12    0.20922      0.00000     0.78912    0.00167     0.79078
      H   13    0.20606      0.00000     0.79215    0.00179     0.79394
      H   14    0.22221      0.00000     0.77603    0.00176     0.77779
      C   15   -0.60073      1.99935     4.59315    0.00823     6.60073
      H   16    0.20863      0.00000     0.78986    0.00151     0.79137
      H   17    0.21076      0.00000     0.78758    0.00166     0.78924
      H   18    0.22082      0.00000     0.77738    0.00179     0.77918
      C   19   -0.26352      1.99941     4.24711    0.01699     6.26352
      C   20   -0.60478      1.99935     4.59661    0.00881     6.60478
      H   21    0.20366      0.00000     0.79456    0.00178     0.79634
      H   22    0.21263      0.00000     0.78572    0.00165     0.78737
      H   23    0.22176      0.00000     0.77649    0.00175     0.77824
      C   24   -0.60206      1.99935     4.59448    0.00822     6.60206
      H   25    0.22229      0.00000     0.77590    0.00180     0.77771
      H   26    0.20901      0.00000     0.78930    0.00169     0.79099
      H   27    0.20815      0.00000     0.79034    0.00151     0.79185
      C   28   -0.59771      1.99936     4.58976    0.00860     6.59771
      H   29    0.21719      0.00000     0.78113    0.00169     0.78281
      H   30    0.20006      0.00000     0.79813    0.00181     0.79994
      H   31    0.22330      0.00000     0.77485    0.00184     0.77670
      C   32   -0.47269      1.99935     4.45616    0.01718     6.47269
      H   33    0.22215      0.00000     0.77495    0.00290     0.77785
      C   34   -0.39035      1.99937     4.38084    0.01014     6.39035
      H   35    0.20403      0.00000     0.79382    0.00215     0.79597
      H   36    0.19628      0.00000     0.80120    0.00252     0.80372
      C   37   -0.38336      1.99942     4.37423    0.00972     6.38336
      H   38    0.19239      0.00000     0.80573    0.00188     0.80761
      H   39    0.21601      0.00000     0.78260    0.00139     0.78399
      C   40   -0.38971      1.99942     4.38077    0.00953     6.38971
      H   41    0.19396      0.00000     0.80425    0.00179     0.80604
      H   42    0.21679      0.00000     0.78186    0.00135     0.78321
      C   43   -0.38242      1.99942     4.37329    0.00971     6.38242
      H   44    0.21624      0.00000     0.78237    0.00139     0.78376
      H   45    0.19205      0.00000     0.80607    0.00188     0.80795
      C   46   -0.39149      1.99937     4.38162    0.01051     6.39149
      H   47    0.20046      0.00000     0.79719    0.00235     0.79954
      H   48    0.19668      0.00000     0.80098    0.00234     0.80332
      C   49   -0.46428      1.99934     4.44693    0.01801     6.46428
      H   50    0.21672      0.00000     0.77984    0.00344     0.78328
      C   51   -0.38965      1.99937     4.38027    0.01002     6.38965
      H   52    0.19677      0.00000     0.80090    0.00233     0.80323
      H   53    0.20882      0.00000     0.78921    0.00198     0.79118
      C   54   -0.38276      1.99942     4.37373    0.00961     6.38276
      H   55    0.19208      0.00000     0.80606    0.00186     0.80792
      H   56    0.21504      0.00000     0.78358    0.00138     0.78496
      C   57   -0.38988      1.99942     4.38096    0.00950     6.38988
      H   58    0.19367      0.00000     0.80453    0.00180     0.80633
      H   59    0.21642      0.00000     0.78223    0.00135     0.78358
      C   60   -0.38250      1.99942     4.37344    0.00964     6.38250
      H   61    0.19154      0.00000     0.80659    0.00186     0.80846
      H   62    0.21611      0.00000     0.78250    0.00139     0.78389
      C   63   -0.39547      1.99937     4.38528    0.01081     6.39547
      H   64    0.20247      0.00000     0.79546    0.00207     0.79753
      H   65    0.19552      0.00000     0.80195    0.00252     0.80448
     Rh   66   -0.35099     35.98598     9.33589    0.02911    45.35099
      C   67   -0.19740      1.99909     4.17878    0.01953     6.19740
      C   68   -0.15595      1.99910     4.13703    0.01982     6.15595
      C   69   -0.18927      1.99909     4.17062    0.01956     6.18927
      C   70   -0.15883      1.99909     4.13976    0.01997     6.15883
      H   71    0.22212      0.00000     0.77563    0.00226     0.77788
      C   72   -0.42190      1.99935     4.41054    0.01200     6.42190
      H   73    0.21927      0.00000     0.77840    0.00233     0.78073
      C   74   -0.41609      1.99935     4.40403    0.01271     6.41609
      C   75   -0.42322      1.99935     4.41190    0.01196     6.42322
      H   76    0.22030      0.00000     0.77753    0.00217     0.77970
      H   77    0.21920      0.00000     0.77851    0.00229     0.78080
      C   78   -0.41738      1.99935     4.40528    0.01276     6.41738
      H   79    0.21554      0.00000     0.78246    0.00199     0.78446
      H   80    0.22715      0.00000     0.77131    0.00153     0.77285
      H   81    0.23348      0.00000     0.76464    0.00188     0.76652
      H   82    0.21455      0.00000     0.78372    0.00173     0.78545
      H   83    0.22747      0.00000     0.77103    0.00150     0.77253
      H   84    0.21613      0.00000     0.78190    0.00196     0.78387
      H   85    0.23395      0.00000     0.76416    0.00189     0.76605
      H   86    0.21588      0.00000     0.78237    0.00175     0.78412
 =======================================================================
   * Total *    1.00000    113.96046   187.44756    0.59198   302.00000

 Normal termination of Gaussian 16 at Tue Jan 21 11:13:33 2025.
