 Gaussian 16, Revision B.01,
 Gaussian 16:  ES64L-G16RevB.01 20-Dec-2017

 ------------------------------------------
 # nmr=giao b3lyp/genecp pop=nbo scfcyc=200
 ------------------------------------------

 ---------
 MB-48_SPE
 ---------
 Symbolic Z-matrix:
 Charge =  1 Multiplicity = 1

                         Standard orientation:
 ---------------------------------------------------------------------
 Center     Atomic      Atomic             Coordinates (Angstroms)
 Number     Number       Type             X           Y           Z
 ---------------------------------------------------------------------
      1         15           0       -1.308271   -0.463910    0.295490
      2         15           0        1.320729   -1.146381   -0.275270
      3          6           0       -0.077391   -1.794160    0.782120
      4          6           0       -2.351901   -0.104720    1.770450
      5          6           0       -3.743151   -0.018930    1.675950
      6          6           0       -4.499401    0.324870    2.792880
      7          6           0       -3.877031    0.587620    4.007510
      8          6           0       -2.489791    0.516190    4.104690
      9          6           0       -1.729611    0.181260    2.991510
     10          6           0       -2.409791   -1.256560   -0.944030
     11          6           0       -2.571491   -0.666080   -2.199290
     12          6           0       -3.391151   -1.261190   -3.154450
     13          6           0       -4.050461   -2.449320   -2.862070
     14          6           0       -3.892191   -3.045210   -1.612480
     15          6           0       -3.076601   -2.453670   -0.656460
     16          6           0        2.915999   -1.500311    0.568320
     17          6           0        4.087949   -0.986331    0.000200
     18          6           0        5.322229   -1.232031    0.588950
     19          6           0        5.400209   -1.985021    1.757020
     20          6           0        4.240989   -2.497401    2.328220
     21          6           0        3.003519   -2.258751    1.737670
     22          6           0        1.339879   -2.210311   -1.806130
     23          1           0        0.172359   -1.663610    1.834400
     24          1           0       -0.390881   -2.824080    0.615250
     25          1           0        0.373759   -2.054431   -2.291260
     26          1           0        2.090609   -1.768051   -2.465450
     27          1           0       -4.242951   -0.226350    0.739230
     28          1           0       -5.577401    0.383340    2.710500
     29          1           0       -4.468431    0.850910    4.875180
     30          1           0       -1.999321    0.725430    5.047040
     31          1           0       -0.649801    0.151870    3.080330
     32          1           0       -2.050251    0.254100   -2.431520
     33          1           0       -3.512151   -0.796740   -4.124950
     34          1           0       -4.687611   -2.912680   -3.604750
     35          1           0       -4.406141   -3.970170   -1.383040
     36          1           0       -2.971391   -2.922110    0.314960
     37          1           0        4.045969   -0.397631   -0.909120
     38          1           0        6.222029   -0.833201    0.137760
     39          1           0        6.361479   -2.173351    2.217840
     40          1           0        4.296929   -3.089211    3.233170
     41          1           0        2.116599   -2.679681    2.193140
     42         45           0        0.368219    1.015079   -0.458730
     43          6           0        2.222980    2.342389   -0.397110
     44          6           0        1.922469    2.058039   -1.712480
     45          6           0       -0.786430    2.893880   -1.015650
     46          6           0       -0.540640    2.906380    0.342870
     47          6           0        1.917800    3.648599    0.311500
     48          1           0        2.953099    1.707869    0.092550
     49          1           0        2.467239    1.245219   -2.183050
     50          6           0        1.165880    2.935899   -2.678870
     51          6           0       -0.028110    3.694500   -2.058490
     52          1           0       -1.754660    2.518470   -1.329800
     53          6           0        0.565740    3.644719    1.055070
     54          1           0       -1.340310    2.568060    0.993220
     55          1           0        2.710570    3.841389    1.036140
     56          1           0        1.957860    4.470639   -0.402660
     57          1           0        1.854370    3.649499   -3.148370
     58          1           0        0.802560    2.298999   -3.488420
     59          1           0        0.304800    4.637339   -1.625010
     60          1           0       -0.718790    3.962270   -2.859710
     61          1           0        0.697550    3.178739    2.033880
     62          1           0        0.249130    4.675950    1.255900
     63          6           0        1.620339   -3.696071   -1.584730
     64          1           0        1.608819   -4.219521   -2.542510
     65          1           0        2.596439   -3.858371   -1.127270
     66          1           0        0.866169   -4.164781   -0.950210
 ---------------------------------------------------------------------

 SCF Done:  E(RB3LYP) =  -1919.14568530     A.U. after   16 cycles

      1  P    Isotropic =   314.1115   Anisotropy =   101.4475

      2  P    Isotropic =   318.6107   Anisotropy =    69.7757

      3  C    Isotropic =   139.1150   Anisotropy =    52.6907

      4  C    Isotropic =    44.1758   Anisotropy =   167.0778

      5  C    Isotropic =    47.0821   Anisotropy =   191.4124

      6  C    Isotropic =    48.5661   Anisotropy =   190.2042

      7  C    Isotropic =    46.0987   Anisotropy =   196.3657

      8  C    Isotropic =    48.6790   Anisotropy =   190.0399

      9  C    Isotropic =    49.5365   Anisotropy =   186.1105

     10  C    Isotropic =    47.0983   Anisotropy =   172.6665

     11  C    Isotropic =    41.2867   Anisotropy =   180.1596

     12  C    Isotropic =    48.8753   Anisotropy =   188.7692

     13  C    Isotropic =    44.0696   Anisotropy =   199.8054

     14  C    Isotropic =    47.5393   Anisotropy =   191.9085

     15  C    Isotropic =    46.1692   Anisotropy =   189.4235

     16  C    Isotropic =    48.1023   Anisotropy =   170.9618

     17  C    Isotropic =    49.1514   Anisotropy =   182.4098

     18  C    Isotropic =    48.1012   Anisotropy =   191.7854

     19  C    Isotropic =    46.0983   Anisotropy =   196.9611

     20  C    Isotropic =    48.3093   Anisotropy =   190.9468

     21  C    Isotropic =    49.9726   Anisotropy =   184.2335

     22  C    Isotropic =   154.1439   Anisotropy =    25.5991

     23  H    Isotropic =    27.7762   Anisotropy =     5.2674

     24  H    Isotropic =    28.3609   Anisotropy =     9.1401

     25  H    Isotropic =    30.4220   Anisotropy =     8.5022

     26  H    Isotropic =    30.0620   Anisotropy =     6.8908

     27  H    Isotropic =    25.0282   Anisotropy =    12.7325

     28  H    Isotropic =    24.3294   Anisotropy =     6.4365

     29  H    Isotropic =    24.0856   Anisotropy =     3.8420

     30  H    Isotropic =    23.9999   Anisotropy =     6.6563

     31  H    Isotropic =    23.9486   Anisotropy =    10.5327

     32  H    Isotropic =    23.5190   Anisotropy =    10.1611

     33  H    Isotropic =    23.9633   Anisotropy =     6.6134

     34  H    Isotropic =    23.8311   Anisotropy =     3.8998

     35  H    Isotropic =    23.9702   Anisotropy =     5.7193

     36  H    Isotropic =    24.2126   Anisotropy =    11.1088

     37  H    Isotropic =    24.7424   Anisotropy =    10.6292

     38  H    Isotropic =    24.1088   Anisotropy =     6.5808

     39  H    Isotropic =    24.0245   Anisotropy =     3.8575

     40  H    Isotropic =    24.0539   Anisotropy =     6.0754

     41  H    Isotropic =    24.4373   Anisotropy =    11.7642

     42  Rh   Isotropic =  -310.4460   Anisotropy =   340.9706

     43  C    Isotropic =    73.5288   Anisotropy =   130.3839

     44  C    Isotropic =    79.8684   Anisotropy =   112.4630

     45  C    Isotropic =    81.5859   Anisotropy =   116.6598

     46  C    Isotropic =    72.8340   Anisotropy =   122.5164

     47  C    Isotropic =   153.7718   Anisotropy =    25.4122

     48  H    Isotropic =    26.8984   Anisotropy =     6.5182

     49  H    Isotropic =    26.1608   Anisotropy =     5.3542

     50  C    Isotropic =   147.5901   Anisotropy =    29.9453

     51  C    Isotropic =   154.0778   Anisotropy =    24.8343

     52  H    Isotropic =    27.0540   Anisotropy =     6.9903

     53  C    Isotropic =   147.9273   Anisotropy =    29.3819

     54  H    Isotropic =    27.2054   Anisotropy =     4.4315

     55  H    Isotropic =    29.9569   Anisotropy =    11.0829

     56  H    Isotropic =    29.7930   Anisotropy =     9.3656

     57  H    Isotropic =    28.9762   Anisotropy =    12.6494

     58  H    Isotropic =    28.9852   Anisotropy =     8.0879

     59  H    Isotropic =    29.7653   Anisotropy =     9.4167

     60  H    Isotropic =    29.7788   Anisotropy =    11.7209

     61  H    Isotropic =    29.3079   Anisotropy =     7.2705

     62  H    Isotropic =    29.3595   Anisotropy =    12.3163

     63  C    Isotropic =   178.2531   Anisotropy =    15.8577

     64  H    Isotropic =    31.0364   Anisotropy =    12.9677

     65  H    Isotropic =    31.7139   Anisotropy =     7.4867

     66  H    Isotropic =    31.3920   Anisotropy =     7.2403

 The electronic state is 1-A.
 Alpha  occ. eigenvalues --  -77.24307 -77.23766 -10.30777 -10.30149 -10.30020
 Alpha  occ. eigenvalues --  -10.29998 -10.29478 -10.29415 -10.29282 -10.29238
 Alpha  occ. eigenvalues --  -10.29033 -10.29011 -10.28997 -10.28823 -10.28757
 Alpha  occ. eigenvalues --  -10.28740 -10.28435 -10.28289 -10.28217 -10.28168
 Alpha  occ. eigenvalues --  -10.27963 -10.27907 -10.27871 -10.27793 -10.27786
 Alpha  occ. eigenvalues --  -10.27726 -10.27669 -10.27648 -10.27494 -10.27476
 Alpha  occ. eigenvalues --  -10.26723  -6.70285  -6.69792  -4.86571  -4.86508
 Alpha  occ. eigenvalues --   -4.86182  -4.86104  -4.85983  -4.85684  -3.31891
 Alpha  occ. eigenvalues --   -2.08806  -2.08121  -2.05330  -0.97341  -0.96864
 Alpha  occ. eigenvalues --   -0.96531  -0.94685  -0.90735  -0.89413  -0.88267
 Alpha  occ. eigenvalues --   -0.88221  -0.85964  -0.85927  -0.85708  -0.85665
 Alpha  occ. eigenvalues --   -0.85319  -0.84272  -0.80567  -0.78035  -0.76402
 Alpha  occ. eigenvalues --   -0.74518  -0.71823  -0.71778  -0.71506  -0.71287
 Alpha  occ. eigenvalues --   -0.70779  -0.70690  -0.67464  -0.66528  -0.66101
 Alpha  occ. eigenvalues --   -0.63037  -0.62842  -0.62371  -0.61093  -0.60289
 Alpha  occ. eigenvalues --   -0.57681  -0.57357  -0.57263  -0.56597  -0.56457
 Alpha  occ. eigenvalues --   -0.56420  -0.56185  -0.55868  -0.55540  -0.55144
 Alpha  occ. eigenvalues --   -0.53955  -0.53827  -0.53361  -0.53049  -0.53002
 Alpha  occ. eigenvalues --   -0.52821  -0.52796  -0.52363  -0.50919  -0.50175
 Alpha  occ. eigenvalues --   -0.49248  -0.48862  -0.48365  -0.48104  -0.47900
 Alpha  occ. eigenvalues --   -0.47689  -0.46777  -0.46515  -0.46169  -0.46121
 Alpha  occ. eigenvalues --   -0.45761  -0.45590  -0.45340  -0.44325  -0.43925
 Alpha  occ. eigenvalues --   -0.43807  -0.43469  -0.43359  -0.42836  -0.41604
 Alpha  occ. eigenvalues --   -0.38441  -0.37666  -0.36948  -0.36790  -0.36412
 Alpha  occ. eigenvalues --   -0.36273  -0.36073  -0.35433  -0.34949  -0.34865
 Alpha  occ. eigenvalues --   -0.34132  -0.31045
 Alpha virt. eigenvalues --   -0.16635  -0.15244  -0.14077  -0.13089  -0.12415
 Alpha virt. eigenvalues --   -0.12002  -0.11729  -0.11221  -0.09552  -0.08130
 Alpha virt. eigenvalues --   -0.07592  -0.07339  -0.06381  -0.05878  -0.05707

 Mulliken charges:
               1
     1  P    0.335145
     2  P    0.274725
     3  C   -0.587925
     4  C   -0.158695
     5  C   -0.070079
     6  C   -0.099415
     7  C   -0.096162
     8  C   -0.097798
     9  C   -0.078986
    10  C   -0.235257
    11  C   -0.033309
    12  C   -0.106719
    13  C   -0.095707
    14  C   -0.082547
    15  C   -0.095405
    16  C   -0.079577
    17  C   -0.154000
    18  C   -0.089235
    19  C   -0.102862
    20  C   -0.086359
    21  C   -0.061013
    22  C   -0.279563
    23  H    0.202815
    24  H    0.209835
    25  H    0.160441
    26  H    0.158649
    27  H    0.161333
    28  H    0.137382
    29  H    0.141436
    30  H    0.133876
    31  H    0.141634
    32  H    0.140825
    33  H    0.134171
    34  H    0.143809
    35  H    0.139438
    36  H    0.151465
    37  H    0.152829
    38  H    0.135297
    39  H    0.141534
    40  H    0.135746
    41  H    0.134028
    42  Rh  -0.507266
    43  C   -0.023854
    44  C   -0.089231
    45  C   -0.007566
    46  C   -0.105885
    47  C   -0.349235
    48  H    0.204976
    49  H    0.164931
    50  C   -0.218639
    51  C   -0.352076
    52  H    0.176569
    53  C   -0.232296
    54  H    0.217878
    55  H    0.170295
    56  H    0.166975
    57  H    0.171928
    58  H    0.131548
    59  H    0.168047
    60  H    0.168697
    61  H    0.131980
    62  H    0.171236
    63  C   -0.362725
    64  H    0.152922
    65  H    0.152840
    66  H    0.122153
 Sum of Mulliken charges =   1.00000

 Dipole moment (field-independent basis, Debye):
    X=              0.2073    Y=             -0.9618    Z=             -0.1556  Tot=              0.9962
 Quadrupole moment (field-independent basis, Debye-Ang):
   XX=           -162.6277   YY=           -183.7530   ZZ=           -182.0591
   XY=              3.1662   XZ=              2.4943   YZ=             -1.1950

 Summary of Natural Population Analysis:

                                       Natural Population
                Natural  -----------------------------------------------
    Atom  No    Charge         Core      Valence    Rydberg      Total
 -----------------------------------------------------------------------
      P    1    1.13097      9.99642     3.82037    0.05224    13.86903
      P    2    1.10809      9.99664     3.84602    0.04925    13.89191
      C    3   -0.97869      1.99943     4.96187    0.01739     6.97869
      C    4   -0.34403      1.99900     4.32118    0.02385     6.34403
      C    5   -0.19345      1.99909     4.17904    0.01531     6.19345
      C    6   -0.18799      1.99920     4.17411    0.01468     6.18799
      C    7   -0.17892      1.99920     4.16504    0.01468     6.17892
      C    8   -0.19079      1.99920     4.17685    0.01474     6.19079
      C    9   -0.19977      1.99909     4.18527    0.01541     6.19977
      C   10   -0.35387      1.99900     4.33039    0.02447     6.35387
      C   11   -0.18478      1.99909     4.17010    0.01559     6.18478
      C   12   -0.19605      1.99920     4.18224    0.01462     6.19605
      C   13   -0.17284      1.99921     4.15910    0.01453     6.17284
      C   14   -0.19166      1.99920     4.17783    0.01463     6.19166
      C   15   -0.19296      1.99909     4.17774    0.01613     6.19296
      C   16   -0.33895      1.99900     4.31730    0.02264     6.33895
      C   17   -0.20158      1.99909     4.18693    0.01555     6.20158
      C   18   -0.18815      1.99920     4.17432    0.01463     6.18815
      C   19   -0.18001      1.99920     4.16618    0.01462     6.18001
      C   20   -0.18728      1.99920     4.17342    0.01465     6.18728
      C   21   -0.19629      1.99909     4.18162    0.01557     6.19629
      C   22   -0.65831      1.99941     4.64575    0.01315     6.65831
      H   23    0.26035      0.00000     0.73796    0.00169     0.73965
      H   24    0.25348      0.00000     0.74422    0.00229     0.74652
      H   25    0.23539      0.00000     0.76291    0.00170     0.76461
      H   26    0.23164      0.00000     0.76691    0.00146     0.76836
      H   27    0.22372      0.00000     0.77451    0.00177     0.77628
      H   28    0.22385      0.00000     0.77494    0.00121     0.77615
      H   29    0.22404      0.00000     0.77480    0.00117     0.77596
      H   30    0.22237      0.00000     0.77640    0.00123     0.77763
      H   31    0.20989      0.00000     0.78810    0.00200     0.79011
      H   32    0.22095      0.00000     0.77712    0.00193     0.77905
      H   33    0.22329      0.00000     0.77549    0.00122     0.77671
      H   34    0.22473      0.00000     0.77411    0.00116     0.77527
      H   35    0.22484      0.00000     0.77393    0.00123     0.77516
      H   36    0.21657      0.00000     0.78132    0.00211     0.78343
      H   37    0.20929      0.00000     0.78870    0.00200     0.79071
      H   38    0.22346      0.00000     0.77532    0.00122     0.77654
      H   39    0.22451      0.00000     0.77432    0.00117     0.77549
      H   40    0.22327      0.00000     0.77551    0.00122     0.77673
      H   41    0.20931      0.00000     0.78871    0.00197     0.79069
     Rh   42   -0.40662     35.98557     9.39465    0.02640    45.40662
      C   43   -0.15990      1.99905     4.14112    0.01973     6.15990
      C   44   -0.16692      1.99906     4.14773    0.02013     6.16692
      C   45   -0.18207      1.99906     4.16322    0.01979     6.18207
      C   46   -0.14860      1.99906     4.12953    0.02001     6.14860
      C   47   -0.42509      1.99936     4.41378    0.01195     6.42509
      H   48    0.22960      0.00000     0.76805    0.00235     0.77040
      H   49    0.22080      0.00000     0.77738    0.00181     0.77920
      C   50   -0.42095      1.99936     4.40910    0.01250     6.42095
      C   51   -0.42347      1.99936     4.41233    0.01178     6.42347
      H   52    0.22688      0.00000     0.77146    0.00166     0.77312
      C   53   -0.42050      1.99936     4.40877    0.01237     6.42050
      H   54    0.23170      0.00000     0.76642    0.00188     0.76830
      H   55    0.22944      0.00000     0.76917    0.00139     0.77056
      H   56    0.21429      0.00000     0.78377    0.00194     0.78571
      H   57    0.23408      0.00000     0.76411    0.00181     0.76592
      H   58    0.21813      0.00000     0.78035    0.00152     0.78187
      H   59    0.21477      0.00000     0.78329    0.00193     0.78523
      H   60    0.22835      0.00000     0.77025    0.00140     0.77165
      H   61    0.21925      0.00000     0.77920    0.00155     0.78075
      H   62    0.23394      0.00000     0.76424    0.00182     0.76606
      C   63   -0.60097      1.99945     4.59349    0.00802     6.60097
      H   64    0.22724      0.00000     0.77155    0.00121     0.77276
      H   65    0.21710      0.00000     0.78159    0.00131     0.78290
      H   66    0.20186      0.00000     0.79651    0.00162     0.79814
 =======================================================================
   * Total *    1.00000    113.95498   167.39904    0.64598   282.00000

 Normal termination of Gaussian 16 at Tue Jan 21 12:57:05 2025.
