 Gaussian 16, Revision B.01,
 Gaussian 16:  ES64L-G16RevB.01 20-Dec-2017

 ------------------------------------------
 # nmr=giao b3lyp/genecp pop=nbo scfcyc=200
 ------------------------------------------

 --------
 MB-4_SPE
 --------
 Symbolic Z-matrix:
 Charge =  1 Multiplicity = 1

                         Standard orientation:
 ---------------------------------------------------------------------
 Center     Atomic      Atomic             Coordinates (Angstroms)
 Number     Number       Type             X           Y           Z
 ---------------------------------------------------------------------
      1         15           0       -0.388794    2.156470   -0.313249
      2         15           0       -1.681270   -0.307132    0.023961
      3          6           0       -2.133903    1.510857   -0.136539
      4          1           0       -2.618214    1.895276    0.761411
      5          1           0       -2.774953    1.734476   -0.989599
      6          6           0       -0.213176    3.531350    0.905721
      7          1           0        0.780933    3.971371    0.818921
      8          1           0       -0.332056    3.144830    1.917261
      9          1           0       -0.959237    4.306329    0.722671
     10          6           0       -0.310775    3.014820   -1.945209
     11          1           0       -1.047377    3.818439   -1.995169
     12          1           0       -0.493754    2.301699   -2.747609
     13          1           0        0.685274    3.436841   -2.082899
     14          6           0       -2.465829   -0.906054    1.626381
     15          1           0       -2.180557   -1.961653    1.670261
     16          6           0       -1.844350   -0.199023    2.836901
     17          1           0       -2.129312    0.854967    2.878651
     18          1           0       -0.755030   -0.256871    2.830081
     19          1           0       -2.204120   -0.663123    3.757321
     20          6           0       -3.994909   -0.805266    1.637581
     21          1           0       -4.377709   -1.181037    2.589121
     22          1           0       -4.462978   -1.390157    0.846021
     23          1           0       -4.332631    0.229263    1.540811
     24          6           0       -2.608779   -1.176324   -1.363479
     25          1           0       -3.650209   -0.860276   -1.252019
     26          6           0       -2.540316   -2.701434   -1.224449
     27          1           0       -3.119046   -3.165245   -2.025889
     28          1           0       -2.950466   -3.058934   -0.279719
     29          1           0       -1.516356   -3.070022   -1.311429
     30          6           0       -2.104819   -0.718053   -2.736169
     31          1           0       -1.051589   -0.967811   -2.878649
     32          1           0       -2.223241    0.355977   -2.888069
     33          1           0       -2.676659   -1.217294   -3.521149
     34         45           0        0.668139    0.087201   -0.034079
     35          6           0        2.816888    0.601285   -0.595249
     36          6           0        2.632688    0.841964    0.751561
     37          6           0        1.520812   -1.861897    0.838841
     38          6           0        1.450123   -1.981928   -0.530489
     39          6           0        3.519750   -0.606474   -1.185589
     40          1           0        2.710107    1.447874   -1.265059
     41          1           0        2.433466    1.866374    1.049311
     42          6           0        3.014200   -0.065365    1.895111
     43          6           0        2.778762   -1.568785    1.633951
     44          1           0        0.689563   -2.260779    1.409971
     45          6           0        2.569592   -1.776146   -1.520129
     46          1           0        0.584843   -2.494079   -0.936699
     47          1           0        4.023230   -0.299713   -2.103649
     48          1           0        4.307731   -0.937743   -0.509649
     49          1           0        4.064819    0.102877    2.162871
     50          1           0        2.433799    0.240914    2.768131
     51          1           0        3.639523   -2.005844    1.128571
     52          1           0        2.706783   -2.078046    2.596261
     53          1           0        2.118432   -1.599946   -2.498979
     54          1           0        3.145934   -2.704205   -1.620989
 ---------------------------------------------------------------------

 SCF Done:  E(RB3LYP) =  -1461.74521599     A.U. after   15 cycles

      1  P    Isotropic =   345.3334   Anisotropy =    48.2204

      2  P    Isotropic =   305.9207   Anisotropy =   123.3428

      3  C    Isotropic =   143.4057   Anisotropy =    58.7193

      4  H    Isotropic =    28.8809   Anisotropy =     6.2281

      5  H    Isotropic =    29.2692   Anisotropy =     7.9014

      6  C    Isotropic =   167.4935   Anisotropy =    30.2230

      7  H    Isotropic =    30.6777   Anisotropy =     9.5659

      8  H    Isotropic =    30.4760   Anisotropy =     7.7490

      9  H    Isotropic =    30.4961   Anisotropy =    11.2560

     10  C    Isotropic =   166.9138   Anisotropy =    31.0740

     11  H    Isotropic =    30.5017   Anisotropy =    11.4189

     12  H    Isotropic =    30.2927   Anisotropy =     7.4758

     13  H    Isotropic =    30.6747   Anisotropy =     9.4559

     14  C    Isotropic =   150.3296   Anisotropy =    20.9781

     15  H    Isotropic =    29.8309   Anisotropy =     4.8449

     16  C    Isotropic =   163.6710   Anisotropy =    32.3574

     17  H    Isotropic =    30.8747   Anisotropy =     6.0507

     18  H    Isotropic =    29.8965   Anisotropy =     8.6651

     19  H    Isotropic =    30.3014   Anisotropy =    11.4411

     20  C    Isotropic =   168.7019   Anisotropy =    30.1746

     21  H    Isotropic =    30.5533   Anisotropy =    12.2094

     22  H    Isotropic =    30.7630   Anisotropy =     9.1691

     23  H    Isotropic =    31.1935   Anisotropy =     7.5932

     24  C    Isotropic =   147.2964   Anisotropy =    24.0390

     25  H    Isotropic =    29.8298   Anisotropy =     6.4672

     26  C    Isotropic =   166.9242   Anisotropy =    29.4580

     27  H    Isotropic =    30.5124   Anisotropy =    12.1035

     28  H    Isotropic =    30.7417   Anisotropy =     8.2671

     29  H    Isotropic =    31.1553   Anisotropy =     6.2356

     30  C    Isotropic =   164.5021   Anisotropy =    28.7333

     31  H    Isotropic =    30.5062   Anisotropy =     6.0159

     32  H    Isotropic =    30.6451   Anisotropy =     7.3904

     33  H    Isotropic =    30.3662   Anisotropy =    11.7999

     34  Rh   Isotropic =  -314.7135   Anisotropy =   379.5432

     35  C    Isotropic =    80.2838   Anisotropy =   119.4840

     36  C    Isotropic =    76.8223   Anisotropy =   116.0625

     37  C    Isotropic =    76.9584   Anisotropy =   124.8085

     38  C    Isotropic =    75.4442   Anisotropy =   118.2426

     39  C    Isotropic =   154.3794   Anisotropy =    24.2985

     40  H    Isotropic =    27.2463   Anisotropy =     7.5356

     41  H    Isotropic =    26.6201   Anisotropy =     4.9878

     42  C    Isotropic =   147.4959   Anisotropy =    29.5097

     43  C    Isotropic =   154.0932   Anisotropy =    24.8032

     44  H    Isotropic =    26.9414   Anisotropy =     6.0859

     45  C    Isotropic =   147.7275   Anisotropy =    30.1485

     46  H    Isotropic =    26.1089   Anisotropy =     4.3509

     47  H    Isotropic =    29.8687   Anisotropy =    11.6529

     48  H    Isotropic =    29.8342   Anisotropy =     9.1961

     49  H    Isotropic =    29.0876   Anisotropy =    12.4246

     50  H    Isotropic =    29.1416   Anisotropy =     7.6108

     51  H    Isotropic =    29.8081   Anisotropy =     9.1702

     52  H    Isotropic =    29.8575   Anisotropy =    11.2291

     53  H    Isotropic =    29.1266   Anisotropy =     7.7195

     54  H    Isotropic =    29.0826   Anisotropy =    12.2562

 The electronic state is 1-A.
 Alpha  occ. eigenvalues --  -77.24823 -77.23774 -10.31313 -10.31111 -10.31107
 Alpha  occ. eigenvalues --  -10.30180 -10.30116 -10.30042 -10.30002 -10.29998
 Alpha  occ. eigenvalues --  -10.29872 -10.28462 -10.28422 -10.28226 -10.28149
 Alpha  occ. eigenvalues --  -10.27959 -10.27889 -10.27865 -10.27734  -6.70853
 Alpha  occ. eigenvalues --   -6.69840  -4.87147  -4.87066  -4.86743  -4.86146
 Alpha  occ. eigenvalues --   -4.86009  -4.85741  -3.32509  -2.09414  -2.08739
 Alpha  occ. eigenvalues --   -2.05944  -0.95449  -0.93522  -0.90554  -0.90247
 Alpha  occ. eigenvalues --   -0.90109  -0.88956  -0.84218  -0.82563  -0.81332
 Alpha  occ. eigenvalues --   -0.80632  -0.80255  -0.78806  -0.75352  -0.71520
 Alpha  occ. eigenvalues --   -0.70567  -0.68014  -0.66899  -0.65498  -0.63440
 Alpha  occ. eigenvalues --   -0.61157  -0.59580  -0.58337  -0.57817  -0.57267
 Alpha  occ. eigenvalues --   -0.57009  -0.56801  -0.55923  -0.55443  -0.54800
 Alpha  occ. eigenvalues --   -0.54548  -0.53693  -0.53525  -0.53361  -0.52949
 Alpha  occ. eigenvalues --   -0.52367  -0.51642  -0.50573  -0.50303  -0.49847
 Alpha  occ. eigenvalues --   -0.49153  -0.48756  -0.47637  -0.47479  -0.47279
 Alpha  occ. eigenvalues --   -0.46897  -0.46888  -0.46712  -0.46106  -0.44360
 Alpha  occ. eigenvalues --   -0.44085  -0.43680  -0.43271  -0.42580  -0.41817
 Alpha  occ. eigenvalues --   -0.37854  -0.37461  -0.35999  -0.35629  -0.34769
 Alpha  occ. eigenvalues --   -0.31762
 Alpha virt. eigenvalues --   -0.17298  -0.14781  -0.10456  -0.09950  -0.09320
 Alpha virt. eigenvalues --   -0.08786  -0.08142  -0.07458  -0.06999  -0.06451
 Alpha virt. eigenvalues --   -0.05697  -0.05010  -0.04736  -0.04664  -0.04263

 Mulliken charges:
               1
     1  P    0.368316
     2  P    0.437288
     3  C   -0.635350
     4  H    0.209815
     5  H    0.215515
     6  C   -0.436999
     7  H    0.164704
     8  H    0.160417
     9  H    0.167797
    10  C   -0.422907
    11  H    0.163649
    12  H    0.159555
    13  H    0.161837
    14  C   -0.216538
    15  H    0.173309
    16  C   -0.397350
    17  H    0.123287
    18  H    0.145179
    19  H    0.163430
    20  C   -0.366782
    21  H    0.156468
    22  H    0.148329
    23  H    0.130300
    24  C   -0.192273
    25  H    0.182596
    26  C   -0.398898
    27  H    0.161192
    28  H    0.149004
    29  H    0.131049
    30  C   -0.379046
    31  H    0.137472
    32  H    0.120194
    33  H    0.162749
    34  Rh  -0.484620
    35  C   -0.004964
    36  C   -0.089285
    37  C   -0.018311
    38  C   -0.095042
    39  C   -0.352142
    40  H    0.170754
    41  H    0.176028
    42  C   -0.223597
    43  C   -0.351084
    44  H    0.174132
    45  C   -0.217097
    46  H    0.173155
    47  H    0.171731
    48  H    0.168002
    49  H    0.175048
    50  H    0.132265
    51  H    0.169989
    52  H    0.171365
    53  H    0.131644
    54  H    0.174722
 Sum of Mulliken charges =   1.00000

 Dipole moment (field-independent basis, Debye):
    X=             -1.7445    Y=              1.8312    Z=             -0.2024  Tot=              2.5372
 Quadrupole moment (field-independent basis, Debye-Ang):
   XX=           -121.4396   YY=           -127.6459   ZZ=           -137.5189
   XY=             -0.7335   XZ=              0.2722   YZ=             -1.3412

 Summary of Natural Population Analysis:

                                       Natural Population
                Natural  -----------------------------------------------
    Atom  No    Charge         Core      Valence    Rydberg      Total
 -----------------------------------------------------------------------
      P    1    1.12356      9.99681     3.83196    0.04767    13.87644
      P    2    1.10282      9.99681     3.85358    0.04680    13.89718
      C    3   -1.00194      1.99944     4.98444    0.01806     7.00194
      H    4    0.25829      0.00000     0.73952    0.00219     0.74171
      H    5    0.25777      0.00000     0.74034    0.00189     0.74223
      C    6   -0.90016      1.99943     4.89127    0.00946     6.90016
      H    7    0.24303      0.00000     0.75589    0.00109     0.75697
      H    8    0.24300      0.00000     0.75579    0.00122     0.75700
      H    9    0.24021      0.00000     0.75801    0.00178     0.75979
      C   10   -0.89733      1.99943     4.88830    0.00959     6.89733
      H   11    0.23862      0.00000     0.75957    0.00180     0.76138
      H   12    0.24313      0.00000     0.75553    0.00134     0.75687
      H   13    0.24369      0.00000     0.75524    0.00107     0.75631
      C   14   -0.46365      1.99941     4.45010    0.01414     6.46365
      H   15    0.22438      0.00000     0.77378    0.00184     0.77562
      C   16   -0.59398      1.99941     4.58711    0.00745     6.59398
      H   17    0.19767      0.00000     0.80061    0.00172     0.80233
      H   18    0.21938      0.00000     0.77925    0.00136     0.78062
      H   19    0.22638      0.00000     0.77217    0.00145     0.77362
      C   20   -0.60304      1.99942     4.59526    0.00836     6.60304
      H   21    0.22812      0.00000     0.77043    0.00144     0.77188
      H   22    0.21132      0.00000     0.78725    0.00143     0.78868
      H   23    0.20414      0.00000     0.79418    0.00168     0.79586
      C   24   -0.46658      1.99941     4.45214    0.01503     6.46658
      H   25    0.22216      0.00000     0.77535    0.00249     0.77784
      C   26   -0.59881      1.99941     4.59169    0.00771     6.59881
      H   27    0.22842      0.00000     0.77013    0.00145     0.77158
      H   28    0.21097      0.00000     0.78759    0.00144     0.78903
      H   29    0.20354      0.00000     0.79496    0.00150     0.79646
      C   30   -0.59416      1.99942     4.58745    0.00729     6.59416
      H   31    0.21232      0.00000     0.78620    0.00148     0.78768
      H   32    0.20105      0.00000     0.79740    0.00155     0.79895
      H   33    0.22711      0.00000     0.77142    0.00147     0.77289
     Rh   34   -0.43331     35.98583     9.42107    0.02641    45.43331
      C   35   -0.17521      1.99906     4.15637    0.01978     6.17521
      C   36   -0.15515      1.99907     4.13572    0.02036     6.15515
      C   37   -0.16761      1.99907     4.14879    0.01975     6.16761
      C   38   -0.15903      1.99907     4.13942    0.02054     6.15903
      C   39   -0.42366      1.99936     4.41236    0.01194     6.42366
      H   40    0.22239      0.00000     0.77571    0.00190     0.77761
      H   41    0.22071      0.00000     0.77742    0.00187     0.77929
      C   42   -0.42063      1.99936     4.40876    0.01251     6.42063
      C   43   -0.42549      1.99936     4.41412    0.01201     6.42549
      H   44    0.22323      0.00000     0.77484    0.00194     0.77677
      C   45   -0.42172      1.99936     4.40987    0.01250     6.42172
      H   46    0.22153      0.00000     0.77621    0.00227     0.77847
      H   47    0.23032      0.00000     0.76828    0.00140     0.76968
      H   48    0.21569      0.00000     0.78240    0.00192     0.78431
      H   49    0.23583      0.00000     0.76239    0.00178     0.76417
      H   50    0.21874      0.00000     0.77973    0.00152     0.78126
      H   51    0.21644      0.00000     0.78165    0.00191     0.78356
      H   52    0.23014      0.00000     0.76846    0.00140     0.76986
      H   53    0.21921      0.00000     0.77927    0.00152     0.78079
      H   54    0.23615      0.00000     0.76207    0.00178     0.76385
 =======================================================================
   * Total *    1.00000     89.96793   119.62881    0.40327   210.00000

 Normal termination of Gaussian 16 at Tue Jan 21 01:06:08 2025.
