 Gaussian 16, Revision B.01,
 Gaussian 16:  ES64L-G16RevB.01 20-Dec-2017

 ------------------------------------------
 # nmr=giao b3lyp/genecp pop=nbo scfcyc=200
 ------------------------------------------

 ---------
 MB-54_SPE
 ---------
 Symbolic Z-matrix:
 Charge =  1 Multiplicity = 1

                         Standard orientation:
 ---------------------------------------------------------------------
 Center     Atomic      Atomic             Coordinates (Angstroms)
 Number     Number       Type             X           Y           Z
 ---------------------------------------------------------------------
      1          6           0        2.878801   -3.416080   -0.976270
      2          6           0        2.592030   -1.896120    0.867800
      3          6           0        2.016260   -0.696730    1.330380
      4          6           0        2.333220   -0.258900    2.614550
      5          6           0        3.196210   -0.979870    3.432710
      6          6           0        3.759010   -2.157320    2.960700
      7          6           0        3.464420   -2.617390    1.681550
      8          6           0        4.486810    2.699290    0.394720
      9          6           0        2.973030    1.569750   -1.095520
     10          6           0        1.832440    0.753740   -1.237360
     11          6           0        1.448050    0.348240   -2.514580
     12          6           0        2.168850    0.727020   -3.640780
     13          6           0        3.295910    1.523680   -3.486730
     14          6           0        3.700370    1.947710   -2.225010
     15          6           0        0.314050    1.774380    1.083820
     16          6           0       -1.861440    3.200629   -0.411990
     17          6           0       -1.108130    3.143670   -1.744130
     18          6           0       -3.366210    3.392379   -0.634130
     19          6           0       -2.440260    1.963759    2.255630
     20          6           0       -2.184340    3.338729    2.883100
     21          6           0       -2.168520    0.833209    3.255220
     22          8           0        2.239990   -2.279950   -0.391430
     23          8           0        3.287030    1.956430    0.169210
     24         15           0       -1.504280    1.685100    0.644120
     25         15           0        0.850380    0.202000    0.216580
     26          1           0        2.490661   -3.485630   -1.989020
     27          1           0        3.962021   -3.281320   -1.012730
     28          1           0        2.636841   -4.331710   -0.431130
     29          1           0        1.922960    0.668420    2.988730
     30          1           0        3.429100   -0.618530    4.425630
     31          1           0        4.434750   -2.727440    3.585630
     32          1           0        3.912821   -3.535040    1.329550
     33          1           0        4.546220    2.842040    1.470420
     34          1           0        5.362990    2.143560    0.053440
     35          1           0        4.449680    3.672820   -0.100180
     36          1           0        0.566940   -0.271250   -2.620470
     37          1           0        1.854990    0.403110   -4.624310
     38          1           0        3.870880    1.825990   -4.353140
     39          1           0        4.577600    2.571240   -2.130510
     40          1           0        0.844660    2.663050    0.748850
     41          1           0        0.429750    1.695730    2.162820
     42          1           0       -1.480230    4.046940    0.167300
     43          1           0       -0.029500    3.053170   -1.615170
     44          1           0       -1.443570    2.302500   -2.353710
     45          1           0       -1.295900    4.060570   -2.307240
     46          1           0       -3.922270    3.506739    0.296660
     47          1           0       -3.799810    2.557709   -1.188960
     48          1           0       -3.533860    4.294689   -1.226010
     49          1           0       -3.491340    1.903279    1.957010
     50          1           0       -2.475380    4.162099    2.231160
     51          1           0       -1.132570    3.471050    3.147870
     52          1           0       -2.763310    3.432979    3.804730
     53          1           0       -2.332350   -0.151021    2.815740
     54          1           0       -1.144650    0.864760    3.634210
     55          1           0       -2.832070    0.938269    4.116130
     56         45           0       -1.381010   -0.523440   -0.206350
     57          6           0       -1.067840   -2.512260   -1.283740
     58          6           0       -1.094620   -2.730870    0.077980
     59          6           0       -3.552450   -1.169621    0.054710
     60          6           0       -3.362160   -0.718941   -1.235990
     61          1           0       -0.087730   -2.398110   -1.731490
     62          6           0       -2.211290   -2.783281   -2.242430
     63          1           0       -0.137110   -2.796780    0.581650
     64          6           0       -2.266809   -3.218841    0.892930
     65          6           0       -3.629470   -2.625021    0.477330
     66          1           0       -3.956160   -0.458321    0.766360
     67          1           0       -3.652270    0.304659   -1.448370
     68          6           0       -3.129770   -1.562121   -2.465370
     69          1           0       -2.792869   -3.635751   -1.891620
     70          1           0       -1.795899   -3.082020   -3.206460
     71          1           0       -2.312299   -4.314591    0.853010
     72          1           0       -2.070320   -2.968511    1.937550
     73          1           0       -4.315270   -2.705981    1.322330
     74          1           0       -4.073289   -3.215051   -0.324460
     75          1           0       -4.093610   -1.890701   -2.874210
     76          1           0       -2.688380   -0.918061   -3.229280
 ---------------------------------------------------------------------

 SCF Done:  E(RB3LYP) =  -2074.46049670     A.U. after   16 cycles

      1  C    Isotropic =   128.7685   Anisotropy =    77.8491

      2  C    Isotropic =    15.7263   Anisotropy =   138.4426

      3  C    Isotropic =    59.2069   Anisotropy =   138.9734

      4  C    Isotropic =    48.9896   Anisotropy =   184.1582

      5  C    Isotropic =    58.2337   Anisotropy =   175.7441

      6  C    Isotropic =    45.1225   Anisotropy =   192.6212

      7  C    Isotropic =    69.4287   Anisotropy =   160.3249

      8  C    Isotropic =   128.6320   Anisotropy =    79.1433

      9  C    Isotropic =    15.9827   Anisotropy =   135.0959

     10  C    Isotropic =    59.2289   Anisotropy =   136.9192

     11  C    Isotropic =    39.6187   Anisotropy =   177.6523

     12  C    Isotropic =    59.2826   Anisotropy =   173.3507

     13  C    Isotropic =    43.3234   Anisotropy =   195.0594

     14  C    Isotropic =    69.4238   Anisotropy =   159.4570

     15  C    Isotropic =   147.1196   Anisotropy =    46.4703

     16  C    Isotropic =   147.6772   Anisotropy =    23.6146

     17  C    Isotropic =   164.0871   Anisotropy =    27.2817

     18  C    Isotropic =   166.6603   Anisotropy =    30.6309

     19  C    Isotropic =   150.7423   Anisotropy =    19.9177

     20  C    Isotropic =   168.3182   Anisotropy =    30.0238

     21  C    Isotropic =   163.8225   Anisotropy =    31.6578

     22  O    Isotropic =   214.6896   Anisotropy =    94.9573

     23  O    Isotropic =   209.2201   Anisotropy =   105.9476

     24  P    Isotropic =   300.4874   Anisotropy =   117.7076

     25  P    Isotropic =   332.5664   Anisotropy =    73.2206

     26  H    Isotropic =    28.3058   Anisotropy =     8.5078

     27  H    Isotropic =    28.8084   Anisotropy =    10.3006

     28  H    Isotropic =    28.4266   Anisotropy =     9.9410

     29  H    Isotropic =    24.2845   Anisotropy =    10.9963

     30  H    Isotropic =    24.5335   Anisotropy =     5.6575

     31  H    Isotropic =    24.1869   Anisotropy =     3.9139

     32  H    Isotropic =    25.1177   Anisotropy =     8.4910

     33  H    Isotropic =    28.1269   Anisotropy =     9.3756

     34  H    Isotropic =    28.7451   Anisotropy =    10.1533

     35  H    Isotropic =    28.3148   Anisotropy =    10.6148

     36  H    Isotropic =    23.3812   Anisotropy =     8.6209

     37  H    Isotropic =    24.5656   Anisotropy =     6.1939

     38  H    Isotropic =    24.0965   Anisotropy =     3.7933

     39  H    Isotropic =    25.1029   Anisotropy =     7.7423

     40  H    Isotropic =    28.8428   Anisotropy =     9.4553

     41  H    Isotropic =    27.8206   Anisotropy =     5.7429

     42  H    Isotropic =    29.9642   Anisotropy =     6.4878

     43  H    Isotropic =    31.5012   Anisotropy =    10.7470

     44  H    Isotropic =    31.0017   Anisotropy =     5.1667

     45  H    Isotropic =    30.8745   Anisotropy =    11.1763

     46  H    Isotropic =    30.7847   Anisotropy =     8.8105

     47  H    Isotropic =    31.2463   Anisotropy =     6.1468

     48  H    Isotropic =    30.6408   Anisotropy =    12.4663

     49  H    Isotropic =    29.8195   Anisotropy =     5.4158

     50  H    Isotropic =    30.6690   Anisotropy =     9.1667

     51  H    Isotropic =    31.0076   Anisotropy =     7.2766

     52  H    Isotropic =    30.5162   Anisotropy =    12.6242

     53  H    Isotropic =    29.8178   Anisotropy =     8.6391

     54  H    Isotropic =    30.6872   Anisotropy =     6.0799

     55  H    Isotropic =    30.3622   Anisotropy =    11.6691

     56  Rh   Isotropic =  -323.4741   Anisotropy =   378.2203

     57  C    Isotropic =    81.0638   Anisotropy =   119.2511

     58  C    Isotropic =    72.6193   Anisotropy =   124.1438

     59  C    Isotropic =    81.2619   Anisotropy =   119.2022

     60  C    Isotropic =    79.5810   Anisotropy =   112.4846

     61  H    Isotropic =    26.6357   Anisotropy =     5.4964

     62  C    Isotropic =   154.5345   Anisotropy =    23.6424

     63  H    Isotropic =    26.5348   Anisotropy =     5.6776

     64  C    Isotropic =   147.6557   Anisotropy =    29.8738

     65  C    Isotropic =   153.7123   Anisotropy =    25.3543

     66  H    Isotropic =    27.1671   Anisotropy =     6.2035

     67  H    Isotropic =    26.2764   Anisotropy =     5.0036

     68  C    Isotropic =   147.0117   Anisotropy =    30.3493

     69  H    Isotropic =    29.8113   Anisotropy =     9.5429

     70  H    Isotropic =    29.7451   Anisotropy =    11.2132

     71  H    Isotropic =    29.2782   Anisotropy =    12.2691

     72  H    Isotropic =    29.2973   Anisotropy =     6.5497

     73  H    Isotropic =    29.9050   Anisotropy =    11.4587

     74  H    Isotropic =    29.8067   Anisotropy =     9.6554

     75  H    Isotropic =    28.9931   Anisotropy =    12.7895

     76  H    Isotropic =    28.9364   Anisotropy =     7.5554

 The electronic state is 1-A.
 Alpha  occ. eigenvalues --  -77.23460 -77.22217 -19.26072 -19.25986 -10.34166
 Alpha  occ. eigenvalues --  -10.34078 -10.31925 -10.31790 -10.29814 -10.29649
 Alpha  occ. eigenvalues --  -10.29489 -10.28914 -10.28825 -10.28691 -10.28670
 Alpha  occ. eigenvalues --  -10.28495 -10.28092 -10.28049 -10.27874 -10.27515
 Alpha  occ. eigenvalues --  -10.27357 -10.27278 -10.27138 -10.27136 -10.27134
 Alpha  occ. eigenvalues --  -10.27031 -10.26977 -10.26679 -10.26666 -10.26577
 Alpha  occ. eigenvalues --  -10.26508 -10.26475 -10.26202  -6.69343  -6.68291
 Alpha  occ. eigenvalues --   -4.85642  -4.85569  -4.85243  -4.84585  -4.84468
 Alpha  occ. eigenvalues --   -4.84197  -3.31053  -2.07927  -2.07261  -2.04538
 Alpha  occ. eigenvalues --   -1.17138  -1.17072  -0.96065  -0.95633  -0.94105
 Alpha  occ. eigenvalues --   -0.92054  -0.89201  -0.88770  -0.88341  -0.87705
 Alpha  occ. eigenvalues --   -0.85882  -0.85487  -0.85049  -0.84095  -0.80002
 Alpha  occ. eigenvalues --   -0.79737  -0.79647  -0.79302  -0.78915  -0.77475
 Alpha  occ. eigenvalues --   -0.75380  -0.73131  -0.71004  -0.70248  -0.69702
 Alpha  occ. eigenvalues --   -0.69347  -0.69150  -0.66933  -0.65539  -0.64202
 Alpha  occ. eigenvalues --   -0.63682  -0.62618  -0.62127  -0.59858  -0.59046
 Alpha  occ. eigenvalues --   -0.58556  -0.58431  -0.57666  -0.57414  -0.57115
 Alpha  occ. eigenvalues --   -0.56760  -0.56529  -0.56174  -0.55949  -0.55383
 Alpha  occ. eigenvalues --   -0.54939  -0.54515  -0.54263  -0.53338  -0.53205
 Alpha  occ. eigenvalues --   -0.52364  -0.52223  -0.51933  -0.51750  -0.51509
 Alpha  occ. eigenvalues --   -0.50600  -0.50414  -0.50050  -0.49035  -0.48948
 Alpha  occ. eigenvalues --   -0.48727  -0.48313  -0.47786  -0.47477  -0.47372
 Alpha  occ. eigenvalues --   -0.46461  -0.46188  -0.46075  -0.45947  -0.45883
 Alpha  occ. eigenvalues --   -0.45680  -0.45492  -0.45404  -0.44809  -0.43917
 Alpha  occ. eigenvalues --   -0.43225  -0.42887  -0.42682  -0.42517  -0.42183
 Alpha  occ. eigenvalues --   -0.42107  -0.41780  -0.41152  -0.40478  -0.37436
 Alpha  occ. eigenvalues --   -0.36142  -0.35771  -0.35241  -0.34422  -0.34094
 Alpha  occ. eigenvalues --   -0.33205  -0.32794  -0.32587  -0.30277
 Alpha virt. eigenvalues --   -0.15832  -0.13989  -0.12764  -0.11104  -0.10171
 Alpha virt. eigenvalues --   -0.09736  -0.09000  -0.07877  -0.07567  -0.06921
 Alpha virt. eigenvalues --   -0.06250  -0.06041  -0.05452  -0.05126  -0.04527

 Mulliken charges:
               1
     1  C   -0.218335
     2  C    0.065236
     3  C   -0.121278
     4  C   -0.090603
     5  C   -0.085273
     6  C   -0.126389
     7  C   -0.085474
     8  C   -0.218939
     9  C    0.182250
    10  C   -0.326999
    11  C    0.000333
    12  C   -0.127537
    13  C   -0.093218
    14  C   -0.121001
    15  C   -0.613662
    16  C   -0.181400
    17  C   -0.386675
    18  C   -0.390600
    19  C   -0.221547
    20  C   -0.373707
    21  C   -0.395037
    22  O   -0.246787
    23  O   -0.224201
    24  P    0.452164
    25  P    0.449096
    26  H    0.149454
    27  H    0.147470
    28  H    0.140612
    29  H    0.112959
    30  H    0.126137
    31  H    0.132746
    32  H    0.149137
    33  H    0.151753
    34  H    0.143477
    35  H    0.138883
    36  H    0.133785
    37  H    0.123242
    38  H    0.133704
    39  H    0.144941
    40  H    0.226234
    41  H    0.168556
    42  H    0.173849
    43  H    0.151020
    44  H    0.129244
    45  H    0.155635
    46  H    0.145380
    47  H    0.126850
    48  H    0.157525
    49  H    0.173260
    50  H    0.147752
    51  H    0.131133
    52  H    0.152766
    53  H    0.144930
    54  H    0.126874
    55  H    0.158877
    56  Rh  -0.513421
    57  C   -0.035301
    58  C   -0.070129
    59  C   -0.043807
    60  C   -0.089636
    61  H    0.176559
    62  C   -0.356915
    63  H    0.198831
    64  C   -0.226514
    65  C   -0.350350
    66  H    0.181858
    67  H    0.174054
    68  C   -0.209751
    69  H    0.167218
    70  H    0.164911
    71  H    0.168736
    72  H    0.134987
    73  H    0.166368
    74  H    0.166492
    75  H    0.170088
    76  H    0.127122
 Sum of Mulliken charges =   1.00000

 Dipole moment (field-independent basis, Debye):
    X=              0.7179    Y=              1.1005    Z=              0.4392  Tot=              1.3854
 Quadrupole moment (field-independent basis, Debye-Ang):
   XX=           -177.1906   YY=           -188.5058   ZZ=           -202.9374
   XY=             -0.6044   XZ=             -1.0618   YZ=              5.5543

 Summary of Natural Population Analysis:

                                       Natural Population
                Natural  -----------------------------------------------
    Atom  No    Charge         Core      Valence    Rydberg      Total
 -----------------------------------------------------------------------
      C    1   -0.25518      1.99927     4.24287    0.01304     6.25518
      C    2    0.29382      1.99869     3.68519    0.02230     5.70618
      C    3   -0.36434      1.99888     4.34146    0.02400     6.36434
      C    4   -0.16685      1.99911     4.15208    0.01566     6.16685
      C    5   -0.22650      1.99919     4.21207    0.01524     6.22650
      C    6   -0.16001      1.99922     4.14563    0.01516     6.16001
      C    7   -0.28322      1.99908     4.27033    0.01381     6.28322
      C    8   -0.25536      1.99927     4.24322    0.01287     6.25536
      C    9    0.29982      1.99868     3.67833    0.02317     5.70018
      C   10   -0.37955      1.99889     4.35475    0.02591     6.37955
      C   11   -0.15335      1.99912     4.13857    0.01566     6.15335
      C   12   -0.23506      1.99918     4.22069    0.01518     6.23506
      C   13   -0.15440      1.99922     4.14004    0.01515     6.15440
      C   14   -0.28768      1.99908     4.27472    0.01388     6.28768
      C   15   -0.99087      1.99941     4.97358    0.01789     6.99087
      C   16   -0.46701      1.99941     4.45240    0.01520     6.46701
      C   17   -0.59312      1.99942     4.58553    0.00817     6.59312
      C   18   -0.59771      1.99941     4.59070    0.00759     6.59771
      C   19   -0.46322      1.99941     4.44960    0.01420     6.46322
      C   20   -0.60187      1.99942     4.59416    0.00829     6.60187
      C   21   -0.59106      1.99941     4.58418    0.00747     6.59106
      O   22   -0.46691      1.99976     6.45137    0.01578     8.46691
      O   23   -0.46657      1.99976     6.44979    0.01702     8.46657
      P   24    1.10063      9.99680     3.85711    0.04546    13.89937
      P   25    1.11793      9.99660     3.83173    0.05374    13.88207
      H   26    0.20160      0.00000     0.79710    0.00130     0.79840
      H   27    0.18490      0.00000     0.81317    0.00193     0.81510
      H   28    0.17945      0.00000     0.81854    0.00201     0.82055
      H   29    0.20383      0.00000     0.79383    0.00234     0.79617
      H   30    0.22141      0.00000     0.77738    0.00121     0.77859
      H   31    0.22184      0.00000     0.77701    0.00115     0.77816
      H   32    0.22475      0.00000     0.77336    0.00189     0.77525
      H   33    0.20324      0.00000     0.79549    0.00127     0.79676
      H   34    0.18341      0.00000     0.81462    0.00197     0.81659
      H   35    0.17867      0.00000     0.81934    0.00198     0.82133
      H   36    0.21941      0.00000     0.77857    0.00202     0.78059
      H   37    0.22073      0.00000     0.77806    0.00121     0.77927
      H   38    0.22134      0.00000     0.77751    0.00115     0.77866
      H   39    0.22488      0.00000     0.77322    0.00190     0.77512
      H   40    0.26522      0.00000     0.73281    0.00196     0.73478
      H   41    0.25221      0.00000     0.74554    0.00225     0.74779
      H   42    0.21965      0.00000     0.77772    0.00263     0.78035
      H   43    0.21187      0.00000     0.78644    0.00169     0.78813
      H   44    0.21188      0.00000     0.78661    0.00151     0.78812
      H   45    0.22139      0.00000     0.77705    0.00156     0.77861
      H   46    0.20876      0.00000     0.78976    0.00147     0.79124
      H   47    0.20372      0.00000     0.79475    0.00153     0.79628
      H   48    0.22581      0.00000     0.77270    0.00150     0.77419
      H   49    0.22233      0.00000     0.77572    0.00195     0.77767
      H   50    0.21029      0.00000     0.78826    0.00145     0.78971
      H   51    0.20329      0.00000     0.79502    0.00168     0.79671
      H   52    0.22514      0.00000     0.77337    0.00150     0.77486
      H   53    0.21986      0.00000     0.77864    0.00150     0.78014
      H   54    0.19986      0.00000     0.79848    0.00167     0.80014
      H   55    0.22246      0.00000     0.77604    0.00150     0.77754
     Rh   56   -0.37940     35.98582     9.36515    0.02844    45.37940
      C   57   -0.19470      1.99907     4.17590    0.01973     6.19470
      C   58   -0.15351      1.99908     4.13454    0.01988     6.15351
      C   59   -0.17263      1.99908     4.15402    0.01953     6.17263
      C   60   -0.16523      1.99909     4.14618    0.01997     6.16523
      H   61    0.22975      0.00000     0.76790    0.00234     0.77025
      C   62   -0.42285      1.99936     4.41166    0.01183     6.42285
      H   63    0.23294      0.00000     0.76484    0.00222     0.76706
      C   64   -0.41792      1.99935     4.40600    0.01257     6.41792
      C   65   -0.42388      1.99936     4.41253    0.01199     6.42388
      H   66    0.21995      0.00000     0.77799    0.00206     0.78005
      H   67    0.22095      0.00000     0.77684    0.00222     0.77905
      C   68   -0.41671      1.99935     4.40466    0.01270     6.41671
      H   69    0.21402      0.00000     0.78397    0.00201     0.78598
      H   70    0.22579      0.00000     0.77267    0.00154     0.77421
      H   71    0.23174      0.00000     0.76633    0.00193     0.76826
      H   72    0.21618      0.00000     0.78214    0.00168     0.78382
      H   73    0.22724      0.00000     0.77128    0.00149     0.77276
      H   74    0.21504      0.00000     0.78298    0.00198     0.78496
      H   75    0.23272      0.00000     0.76537    0.00191     0.76728
      H   76    0.21495      0.00000     0.78340    0.00165     0.78505
 =======================================================================
   * Total *    1.00000    117.95522   187.36257    0.68221   306.00000

 Normal termination of Gaussian 16 at Tue Jan 21 13:44:29 2025.
