 Gaussian 16, Revision B.01,
 Gaussian 16:  ES64L-G16RevB.01 20-Dec-2017

 ------------------------------------------
 # nmr=giao b3lyp/genecp pop=nbo scfcyc=200
 ------------------------------------------

 ---------
 MB-53_SPE
 ---------
 Symbolic Z-matrix:
 Charge =  1 Multiplicity = 1

                         Standard orientation:
 ---------------------------------------------------------------------
 Center     Atomic      Atomic             Coordinates (Angstroms)
 Number     Number       Type             X           Y           Z
 ---------------------------------------------------------------------
      1         15           0        1.296020   -0.404567    0.081871
      2         15           0       -1.433110    0.105159    0.249361
      3          6           0       -0.198679   -1.115229    0.948171
      4          6           0        2.028415   -3.994736   -3.027089
      5          6           0        1.313226   -4.328807   -0.035189
      6          6           0       -4.615410   -0.020765    3.848311
      7          6           0       -3.014897   -2.439263    2.775541
      8          1           0       -0.118429   -0.896169    2.013181
      9          1           0       -0.387837   -2.178719    0.826001
     10          1           0        2.395806   -5.022376   -3.083779
     11          1           0        0.972435   -4.004998   -3.307049
     12          1           0        2.567414   -3.412405   -3.778159
     13          1           0        1.683037   -5.357157   -0.053399
     14          1           0        1.429135   -3.964707    0.987541
     15          1           0        0.247476   -4.368919   -0.272179
     16          1           0       -5.108072    0.925924    3.614371
     17          1           0       -5.358269   -0.668186    4.320781
     18          1           0       -3.836361    0.180236    4.587521
     19          1           0       -3.708516   -3.104034    3.296491
     20          1           0       -2.638126   -2.984412    1.908201
     21          1           0       -2.179057   -2.250492    3.453251
     22         45           0        0.246737    1.677191   -0.324679
     23          6           0       -0.900725    3.468500   -1.135149
     24          6           0       -0.864205    3.547580    0.242341
     25          6           0        1.995726    3.104934   -0.053349
     26          6           0        1.910956    2.751754   -1.384929
     27          6           0       -0.035656    4.268521   -2.091219
     28          1           0       -1.785484    3.023809   -1.576759
     29          1           0       -1.736445    3.194919    0.782271
     30          6           0        0.082844    4.377001    1.074291
     31          6           0        1.529064    4.421783    0.538931
     32          1           0        2.677976    2.535865    0.567361
     33          6           0        1.269795    3.548943   -2.494149
     34          1           0        2.563507    1.956105   -1.731589
     35          1           0       -0.612136    4.468010   -2.995999
     36          1           0        0.185443    5.243481   -1.657349
     37          1           0       -0.309058    5.397171    1.173231
     38          1           0        0.088694    3.960701    2.083941
     39          1           0        1.637453    5.215503   -0.199769
     40          1           0        2.194863    4.685254    1.362411
     41          1           0        1.058586    2.861443   -3.316159
     42          1           0        1.987294    4.277914   -2.891109
     43          6           0        1.629082   -1.476367   -1.390339
     44          1           0        2.338251   -0.917086   -2.009149
     45          1           0        0.694802   -1.476998   -1.960489
     46          6           0       -2.691311    0.462107    1.557561
     47          1           0       -3.305462    1.276327    1.157731
     48          1           0       -2.122741    0.904578    2.382211
     49          6           0       -5.303659   -1.198486    1.067561
     50          1           0       -5.833750   -0.282767    0.795191
     51          1           0       -4.940308   -1.662616    0.149931
     52          1           0       -6.033458   -1.876487    1.517261
     53          6           0        4.123934   -3.311933   -0.853239
     54          1           0        4.705493   -2.699563   -1.546329
     55          1           0        4.315854   -2.951353    0.157951
     56          1           0        4.507006   -4.333453   -0.920329
     57         14           0        2.286944   -3.294996   -1.288939
     58         14           0       -3.915309   -0.844134    2.296401
     59          6           0       -2.318249   -0.735512   -1.133309
     60          6           0       -3.007850    0.063967   -2.051489
     61          6           0       -2.346687   -2.123082   -1.293219
     62          6           0       -3.721960   -0.511504   -3.095189
     63          1           0       -2.989772    1.142437   -1.955529
     64          6           0       -3.052747   -2.697923   -2.345799
     65          1           0       -1.829727   -2.771711   -0.599029
     66          6           0       -3.743068   -1.894644   -3.246639
     67          1           0       -4.255350    0.120115   -3.794339
     68          1           0       -3.066805   -3.774973   -2.456959
     69          1           0       -4.293887   -2.343585   -4.063339
     70          6           0        2.751280   -0.560325    1.197751
     71          6           0        3.954930    0.031466    0.796041
     72          6           0        2.699361   -1.221925    2.426521
     73          6           0        5.083100   -0.045902    1.602931
     74          1           0        4.023079    0.546947   -0.154889
     75          6           0        3.830161   -1.294304    3.235011
     76          1           0        1.786232   -1.694746    2.763851
     77          6           0        5.022031   -0.707002    2.826381
     78          1           0        6.009069    0.411269    1.277511
     79          1           0        3.777472   -1.813204    4.183891
     80          1           0        5.900141   -0.764651    3.456831
 ---------------------------------------------------------------------

 SCF Done:  E(RB3LYP) =  -2505.50238782     A.U. after   16 cycles

      1  P    Isotropic =   321.8786   Anisotropy =    66.8731

      2  P    Isotropic =   323.1458   Anisotropy =    55.3310

      3  C    Isotropic =   142.1405   Anisotropy =    43.0792

      4  C    Isotropic =   182.7444   Anisotropy =    14.2816

      5  C    Isotropic =   183.8140   Anisotropy =     4.6283

      6  C    Isotropic =   182.5959   Anisotropy =    14.9343

      7  C    Isotropic =   183.7966   Anisotropy =     4.7616

      8  H    Isotropic =    28.2768   Anisotropy =     4.4093

      9  H    Isotropic =    28.1104   Anisotropy =     8.9827

     10  H    Isotropic =    31.8508   Anisotropy =    11.7891

     11  H    Isotropic =    32.0963   Anisotropy =     8.3472

     12  H    Isotropic =    31.9830   Anisotropy =     9.2142

     13  H    Isotropic =    31.6310   Anisotropy =    11.8981

     14  H    Isotropic =    31.8025   Anisotropy =     6.6766

     15  H    Isotropic =    31.7578   Anisotropy =     7.8149

     16  H    Isotropic =    31.8449   Anisotropy =     9.2320

     17  H    Isotropic =    31.7336   Anisotropy =    11.6876

     18  H    Isotropic =    31.8664   Anisotropy =     8.5474

     19  H    Isotropic =    31.5565   Anisotropy =    11.8805

     20  H    Isotropic =    31.8539   Anisotropy =     7.8153

     21  H    Isotropic =    31.7576   Anisotropy =     7.0508

     22  Rh   Isotropic =  -322.2829   Anisotropy =   336.3825

     23  C    Isotropic =    81.5427   Anisotropy =   115.8151

     24  C    Isotropic =    75.5262   Anisotropy =   117.5124

     25  C    Isotropic =    75.9721   Anisotropy =   126.8724

     26  C    Isotropic =    81.7886   Anisotropy =   109.8209

     27  C    Isotropic =   153.8609   Anisotropy =    25.0769

     28  H    Isotropic =    26.8932   Anisotropy =     7.3533

     29  H    Isotropic =    26.4573   Anisotropy =     3.6137

     30  C    Isotropic =   147.5636   Anisotropy =    30.0772

     31  C    Isotropic =   154.0547   Anisotropy =    25.1565

     32  H    Isotropic =    27.2017   Anisotropy =     6.6529

     33  C    Isotropic =   147.8830   Anisotropy =    30.0031

     34  H    Isotropic =    26.5218   Anisotropy =     4.7503

     35  H    Isotropic =    29.8005   Anisotropy =    11.5892

     36  H    Isotropic =    29.7730   Anisotropy =     9.5833

     37  H    Isotropic =    29.1729   Anisotropy =    12.6066

     38  H    Isotropic =    29.2238   Anisotropy =     6.9056

     39  H    Isotropic =    29.8593   Anisotropy =     9.4682

     40  H    Isotropic =    30.0199   Anisotropy =    10.9969

     41  H    Isotropic =    29.2063   Anisotropy =     7.2309

     42  H    Isotropic =    29.1125   Anisotropy =    12.7021

     43  C    Isotropic =   161.9981   Anisotropy =    30.2687

     44  H    Isotropic =    30.8802   Anisotropy =     5.6293

     45  H    Isotropic =    31.1406   Anisotropy =     6.4097

     46  C    Isotropic =   158.9914   Anisotropy =    29.0663

     47  H    Isotropic =    30.8305   Anisotropy =     4.9397

     48  H    Isotropic =    30.9533   Anisotropy =     6.0905

     49  C    Isotropic =   185.5634   Anisotropy =     7.5874

     50  H    Isotropic =    32.5286   Anisotropy =     8.4060

     51  H    Isotropic =    33.3087   Anisotropy =    12.9265

     52  H    Isotropic =    32.2085   Anisotropy =    12.0551

     53  C    Isotropic =   184.6865   Anisotropy =     7.7078

     54  H    Isotropic =    32.5025   Anisotropy =     8.1840

     55  H    Isotropic =    33.4935   Anisotropy =    11.9929

     56  H    Isotropic =    32.2736   Anisotropy =    12.1560

     57  Si   Isotropic =   340.5194   Anisotropy =     6.6570

     58  Si   Isotropic =   340.7065   Anisotropy =     6.4503

     59  C    Isotropic =    46.1587   Anisotropy =   180.8206

     60  C    Isotropic =    45.1585   Anisotropy =   186.4651

     61  C    Isotropic =    50.7284   Anisotropy =   189.6010

     62  C    Isotropic =    48.2128   Anisotropy =   191.1820

     63  H    Isotropic =    24.3657   Anisotropy =     9.7179

     64  C    Isotropic =    48.9439   Anisotropy =   190.8989

     65  H    Isotropic =    24.2168   Anisotropy =     7.9215

     66  C    Isotropic =    45.8743   Anisotropy =   197.5649

     67  H    Isotropic =    24.0634   Anisotropy =     5.8505

     68  H    Isotropic =    24.0472   Anisotropy =     6.3793

     69  H    Isotropic =    24.0007   Anisotropy =     3.5680

     70  C    Isotropic =    44.2637   Anisotropy =   177.9942

     71  C    Isotropic =    48.1961   Anisotropy =   186.1699

     72  C    Isotropic =    51.6671   Anisotropy =   182.9398

     73  C    Isotropic =    48.2997   Anisotropy =   192.4869

     74  H    Isotropic =    24.8239   Anisotropy =     9.7117

     75  C    Isotropic =    48.2212   Anisotropy =   191.4134

     76  H    Isotropic =    24.3957   Anisotropy =    10.5523

     77  C    Isotropic =    46.4955   Anisotropy =   197.0238

     78  H    Isotropic =    24.1697   Anisotropy =     6.2611

     79  H    Isotropic =    24.0657   Anisotropy =     6.2222

     80  H    Isotropic =    24.0619   Anisotropy =     3.3898

 The electronic state is 1-A.
 Alpha  occ. eigenvalues --  -77.23896 -77.23754 -66.22462 -66.22378 -10.30479
 Alpha  occ. eigenvalues --  -10.29988 -10.29820 -10.29043 -10.28920 -10.28877
 Alpha  occ. eigenvalues --  -10.28777 -10.28758 -10.28733 -10.28663 -10.28639
 Alpha  occ. eigenvalues --  -10.28089 -10.28009 -10.27943 -10.27857 -10.27843
 Alpha  occ. eigenvalues --  -10.27726 -10.27707 -10.27482 -10.27384 -10.27363
 Alpha  occ. eigenvalues --  -10.27169 -10.27129 -10.24112 -10.24083 -10.23284
 Alpha  occ. eigenvalues --  -10.23243 -10.23234 -10.23156  -6.69827  -6.69700
 Alpha  occ. eigenvalues --   -5.36309  -5.36221  -4.86139  -4.86034  -4.86018
 Alpha  occ. eigenvalues --   -4.85901  -4.85719  -4.85593  -3.72275  -3.72181
 Alpha  occ. eigenvalues --   -3.72145  -3.72124  -3.72063  -3.72039  -3.31322
 Alpha  occ. eigenvalues --   -2.08213  -2.07551  -2.04773  -0.96940  -0.96732
 Alpha  occ. eigenvalues --   -0.94341  -0.90066  -0.89056  -0.87881  -0.87141
 Alpha  occ. eigenvalues --   -0.85787  -0.85614  -0.84760  -0.83253  -0.81651
 Alpha  occ. eigenvalues --   -0.80236  -0.79689  -0.79060  -0.77692  -0.77006
 Alpha  occ. eigenvalues --   -0.76914  -0.76465  -0.76406  -0.72925  -0.72262
 Alpha  occ. eigenvalues --   -0.71557  -0.71225  -0.70420  -0.67277  -0.66572
 Alpha  occ. eigenvalues --   -0.65807  -0.62750  -0.62196  -0.61727  -0.60040
 Alpha  occ. eigenvalues --   -0.57333  -0.56943  -0.56650  -0.56534  -0.56413
 Alpha  occ. eigenvalues --   -0.56131  -0.55978  -0.55618  -0.55375  -0.54504
 Alpha  occ. eigenvalues --   -0.53490  -0.53419  -0.53102  -0.52820  -0.52495
 Alpha  occ. eigenvalues --   -0.52394  -0.51660  -0.50927  -0.50879  -0.50576
 Alpha  occ. eigenvalues --   -0.50203  -0.49780  -0.49658  -0.49430  -0.48886
 Alpha  occ. eigenvalues --   -0.48396  -0.48159  -0.48013  -0.47927  -0.47647
 Alpha  occ. eigenvalues --   -0.47374  -0.47323  -0.47254  -0.46921  -0.46814
 Alpha  occ. eigenvalues --   -0.46535  -0.45913  -0.45704  -0.45602  -0.44932
 Alpha  occ. eigenvalues --   -0.44371  -0.43970  -0.43843  -0.43206  -0.43073
 Alpha  occ. eigenvalues --   -0.42925  -0.40148  -0.39990  -0.39486  -0.39403
 Alpha  occ. eigenvalues --   -0.39094  -0.39012  -0.37639  -0.37135  -0.36509
 Alpha  occ. eigenvalues --   -0.36312  -0.35851  -0.35004  -0.34577  -0.34217
 Alpha  occ. eigenvalues --   -0.33500  -0.30357
 Alpha virt. eigenvalues --   -0.16152  -0.14375  -0.13067  -0.12144  -0.11898
 Alpha virt. eigenvalues --   -0.11748  -0.09147  -0.08816  -0.08067  -0.07875
 Alpha virt. eigenvalues --   -0.06662  -0.06418  -0.05996  -0.05442  -0.05068

 Mulliken charges:
               1
     1  P    0.300052
     2  P    0.285037
     3  C   -0.594920
     4  C   -0.525938
     5  C   -0.581952
     6  C   -0.521309
     7  C   -0.545524
     8  H    0.195498
     9  H    0.219748
    10  H    0.146814
    11  H    0.133240
    12  H    0.137180
    13  H    0.159533
    14  H    0.133548
    15  H    0.124015
    16  H    0.136399
    17  H    0.147434
    18  H    0.133378
    19  H    0.157789
    20  H    0.119561
    21  H    0.126175
    22  Rh  -0.475073
    23  C   -0.033958
    24  C   -0.102894
    25  C   -0.036633
    26  C   -0.088607
    27  C   -0.344137
    28  H    0.177059
    29  H    0.185657
    30  C   -0.220512
    31  C   -0.349257
    32  H    0.211132
    33  C   -0.215860
    34  H    0.162360
    35  H    0.166228
    36  H    0.167064
    37  H    0.168512
    38  H    0.129813
    39  H    0.167735
    40  H    0.168101
    41  H    0.132652
    42  H    0.168077
    43  C   -0.501415
    44  H    0.158104
    45  H    0.163631
    46  C   -0.492512
    47  H    0.156866
    48  H    0.159179
    49  C   -0.550030
    50  H    0.134601
    51  H    0.149451
    52  H    0.147575
    53  C   -0.547627
    54  H    0.130808
    55  H    0.149511
    56  H    0.148885
    57  Si   0.691822
    58  Si   0.670995
    59  C   -0.155556
    60  C   -0.055932
    61  C   -0.039683
    62  C   -0.097385
    63  H    0.121112
    64  C   -0.102009
    65  H    0.109816
    66  C   -0.098395
    67  H    0.135030
    68  H    0.134293
    69  H    0.140707
    70  C   -0.077312
    71  C   -0.161275
    72  C   -0.065139
    73  C   -0.077878
    74  H    0.151949
    75  C   -0.090433
    76  H    0.133870
    77  C   -0.109235
    78  H    0.135158
    79  H    0.135436
    80  H    0.139802
 Sum of Mulliken charges =   1.00000

 Dipole moment (field-independent basis, Debye):
    X=              0.1449    Y=              0.5532    Z=              0.0811  Tot=              0.5776
 Quadrupole moment (field-independent basis, Debye-Ang):
   XX=           -199.1566   YY=           -208.7674   ZZ=           -220.9586
   XY=              2.4108   XZ=              6.9188   YZ=             -2.8316

 Summary of Natural Population Analysis:

                                       Natural Population
                Natural  -----------------------------------------------
    Atom  No    Charge         Core      Valence    Rydberg      Total
 -----------------------------------------------------------------------
      P    1    1.14627      9.99662     3.80543    0.05169    13.85373
      P    2    1.13979      9.99663     3.81133    0.05225    13.86021
      C    3   -0.99280      1.99944     4.97664    0.01672     6.99280
      C    4   -1.08069      1.99945     5.07333    0.00791     7.08069
      C    5   -1.08939      1.99945     5.08138    0.00857     7.08939
      C    6   -1.08023      1.99945     5.07292    0.00785     7.08023
      C    7   -1.08696      1.99945     5.07908    0.00844     7.08696
      H    8    0.26169      0.00000     0.73660    0.00171     0.73831
      H    9    0.25106      0.00000     0.74653    0.00241     0.74894
      H   10    0.24006      0.00000     0.75904    0.00090     0.75994
      H   11    0.23092      0.00000     0.76807    0.00101     0.76908
      H   12    0.23477      0.00000     0.76431    0.00092     0.76523
      H   13    0.24555      0.00000     0.75355    0.00090     0.75445
      H   14    0.22777      0.00000     0.77108    0.00115     0.77223
      H   15    0.22233      0.00000     0.77662    0.00105     0.77767
      H   16    0.23458      0.00000     0.76450    0.00092     0.76542
      H   17    0.24115      0.00000     0.75796    0.00089     0.75885
      H   18    0.23167      0.00000     0.76739    0.00094     0.76833
      H   19    0.24508      0.00000     0.75404    0.00088     0.75492
      H   20    0.22342      0.00000     0.77544    0.00113     0.77658
      H   21    0.22803      0.00000     0.77090    0.00107     0.77197
     Rh   22   -0.38904     35.98547     9.37744    0.02612    45.38904
      C   23   -0.17870      1.99904     4.16015    0.01950     6.17870
      C   24   -0.15337      1.99907     4.13349    0.02080     6.15337
      C   25   -0.16359      1.99906     4.14452    0.02001     6.16359
      C   26   -0.16812      1.99905     4.14907    0.02000     6.16812
      C   27   -0.42257      1.99937     4.41138    0.01183     6.42257
      H   28    0.21771      0.00000     0.78030    0.00199     0.78229
      H   29    0.22109      0.00000     0.77676    0.00215     0.77891
      C   30   -0.42029      1.99936     4.40785    0.01308     6.42029
      C   31   -0.42254      1.99936     4.41067    0.01250     6.42254
      H   32    0.22924      0.00000     0.76832    0.00245     0.77076
      C   33   -0.42042      1.99936     4.40869    0.01237     6.42042
      H   34    0.21851      0.00000     0.77963    0.00186     0.78149
      H   35    0.22772      0.00000     0.77088    0.00141     0.77228
      H   36    0.21376      0.00000     0.78438    0.00186     0.78624
      H   37    0.23206      0.00000     0.76619    0.00175     0.76794
      H   38    0.21840      0.00000     0.78012    0.00148     0.78160
      H   39    0.21054      0.00000     0.78720    0.00226     0.78946
      H   40    0.22863      0.00000     0.76998    0.00140     0.77137
      H   41    0.21903      0.00000     0.77948    0.00149     0.78097
      H   42    0.23214      0.00000     0.76604    0.00182     0.76786
      C   43   -1.14746      1.99937     5.13359    0.01450     7.14746
      H   44    0.25366      0.00000     0.74503    0.00131     0.74634
      H   45    0.26025      0.00000     0.73826    0.00149     0.73975
      C   46   -1.14823      1.99937     5.13473    0.01412     7.14823
      H   47    0.25459      0.00000     0.74405    0.00136     0.74541
      H   48    0.25374      0.00000     0.74481    0.00145     0.74626
      C   49   -1.08657      1.99944     5.07886    0.00827     7.08657
      H   50    0.23436      0.00000     0.76470    0.00094     0.76564
      H   51    0.23660      0.00000     0.76222    0.00118     0.76340
      H   52    0.24059      0.00000     0.75853    0.00087     0.75941
      C   53   -1.08654      1.99945     5.07880    0.00830     7.08654
      H   54    0.23288      0.00000     0.76617    0.00095     0.76712
      H   55    0.23747      0.00000     0.76135    0.00118     0.76253
      H   56    0.24031      0.00000     0.75880    0.00089     0.75969
     Si   57    1.62226      9.99836     2.35434    0.02504    12.37774
     Si   58    1.62051      9.99836     2.35593    0.02519    12.37949
      C   59   -0.34161      1.99899     4.31850    0.02412     6.34161
      C   60   -0.18720      1.99909     4.17269    0.01541     6.18720
      C   61   -0.20498      1.99908     4.18992    0.01598     6.20498
      C   62   -0.18886      1.99920     4.17510    0.01456     6.18886
      H   63    0.20925      0.00000     0.78881    0.00195     0.79075
      C   64   -0.19328      1.99919     4.17919    0.01489     6.19328
      H   65    0.20575      0.00000     0.79171    0.00254     0.79425
      C   66   -0.17953      1.99920     4.16558    0.01475     6.17953
      H   67    0.22319      0.00000     0.77559    0.00123     0.77681
      H   68    0.22241      0.00000     0.77632    0.00127     0.77759
      H   69    0.22452      0.00000     0.77430    0.00117     0.77548
      C   70   -0.34002      1.99900     4.31841    0.02261     6.34002
      C   71   -0.20053      1.99909     4.18609    0.01535     6.20053
      C   72   -0.19989      1.99909     4.18529    0.01552     6.19989
      C   73   -0.18904      1.99919     4.17514    0.01471     6.18904
      H   74    0.21001      0.00000     0.78793    0.00206     0.78999
      C   75   -0.18907      1.99920     4.17509    0.01478     6.18907
      H   76    0.20789      0.00000     0.78991    0.00220     0.79211
      C   77   -0.18237      1.99920     4.16840    0.01477     6.18237
      H   78    0.22337      0.00000     0.77540    0.00123     0.77663
      H   79    0.22287      0.00000     0.77589    0.00124     0.77713
      H   80    0.22442      0.00000     0.77441    0.00117     0.77558
 =======================================================================
   * Total *    1.00000    133.95352   187.37852    0.66796   322.00000

 Normal termination of Gaussian 16 at Tue Jan 21 13:37:16 2025.
