 Gaussian 16, Revision B.01,
 Gaussian 16:  ES64L-G16RevB.01 20-Dec-2017

 ------------------------------------------
 # nmr=giao b3lyp/genecp pop=nbo scfcyc=200
 ------------------------------------------

 ------------
 Ligand 7 SPE
 ------------
 Symbolic Z-matrix:
 Charge =  1 Multiplicity = 1

                         Standard orientation:
 ---------------------------------------------------------------------
 Center     Atomic      Atomic             Coordinates (Angstroms)
 Number     Number       Type             X           Y           Z
 ---------------------------------------------------------------------
      1         45           0       -0.002280    1.329940    0.006579
      2         15           0       -1.192900   -0.551229    0.835479
      3         15           0        1.147010   -0.612890   -0.725641
      4          6           0       -2.940960   -1.061199    0.322879
      5          6           0       -3.074650   -0.926899   -1.212391
      6          1           0       -2.837550    0.095321   -1.522141
      7          1           0       -2.363020   -1.589479   -1.715361
      8          6           0       -0.000160   -1.818710    0.136429
      9          1           0        0.494340   -2.380620    0.928339
     10          1           0       -0.457950   -2.530769   -0.549311
     11          6           0       -5.508450   -0.347329   -0.973711
     12          1           0       -6.525650   -0.584769   -1.296581
     13          1           0       -5.315210    0.687301   -1.275041
     14          6           0       -3.965340   -0.118199    1.000259
     15          1           0       -3.758090    0.923021    0.737549
     16          1           0       -3.896120   -0.197589    2.088679
     17          6           0       -4.505460   -1.295609   -1.651641
     18          1           0       -4.575970   -1.193759   -2.737731
     19          6           0       -5.394350   -0.488649    0.553149
     20          1           0       -6.098920    0.189131    1.041749
     21          6           0       -4.692400   -2.883949    0.283449
     22          1           0       -4.895791   -3.916189    0.579509
     23          6           0        1.569490    2.964710   -0.161091
     24          1           0        2.497810    2.427720   -0.005241
     25          6           0        1.294651    4.078230    0.832909
     26          1           0        1.017861    4.986660    0.298659
     27          1           0        2.223851    4.310940    1.355699
     28          6           0        0.935470   -0.997790   -2.523921
     29          1           0       -0.108330   -0.838140   -2.791191
     30          1           0        1.210830   -2.028090   -2.749541
     31          1           0        1.544710   -0.323550   -3.124261
     32          6           0       -5.697670   -1.939379    0.963269
     33          1           0       -6.717230   -2.205399    0.671559
     34          1           0       -5.642380   -2.045549    2.051199
     35          6           0       -4.806230   -2.747759   -1.243801
     36          1           0       -5.811020   -3.028689   -1.570591
     37          1           0       -4.110400   -3.432629   -1.739151
     38          6           0       -3.260520   -2.518169    0.731449
     39          1           0       -3.181450   -2.639789    1.814819
     40          1           0       -2.548400   -3.212019    0.275129
     41          6           0       -1.214429    4.086601   -0.919031
     42          1           0       -2.136189    4.330461   -1.449851
     43          1           0       -0.907699    5.004081   -0.417641
     44          6           0       -1.523759    3.018581    0.113649
     45          1           0       -2.467710    2.504491   -0.024371
     46          6           0        0.961880    2.813900   -1.390411
     47          1           0        1.476890    2.204510   -2.125981
     48          6           0        0.220741    3.720980    1.882339
     49          1           0        0.687251    3.158710    2.694279
     50          1           0       -0.169309    4.638321    2.340819
     51          6           0       -0.153819    3.657261   -1.954821
     52          1           0       -0.638939    3.080451   -2.745391
     53          1           0        0.264321    4.544280   -2.446981
     54          6           0       -0.920950    2.892861    1.347909
     55          1           0       -1.454560    2.326941    2.104499
     56          6           0        2.922720   -1.093120   -0.287591
     57          6           0        3.904600   -0.231690   -1.119171
     58          6           0        3.200690   -2.586410   -0.578361
     59          6           0        3.163800   -0.818780    1.215779
     60          1           0        3.759300   -0.411550   -2.187891
     61          1           0        3.724190    0.832690   -0.942581
     62          6           0        5.358170   -0.580200   -0.738481
     63          1           0        3.043570   -2.807920   -1.637181
     64          1           0        2.516750   -3.223070   -0.009531
     65          6           0        4.657300   -2.929950   -0.198891
     66          6           0        4.618630   -1.166980    1.588019
     67          1           0        2.481980   -1.418950    1.826869
     68          1           0        2.958300    0.230980    1.444329
     69          6           0        5.619870   -2.066950   -1.031751
     70          1           0        6.032660    0.039050   -1.335261
     71          6           0        5.579830   -0.300400    0.757209
     72          1           0        4.831249   -3.988000   -0.410651
     73          6           0        4.878800   -2.654700    1.297619
     74          1           0        4.765670   -0.966180    2.652419
     75          1           0        6.655250   -2.319850   -0.788071
     76          1           0        5.487240   -2.272160   -2.098641
     77          1           0        6.615030   -0.522340    1.029969
     78          1           0        5.417200    0.760450    0.973439
     79          1           0        5.901770   -2.918430    1.579219
     80          1           0        4.214000   -3.280940    1.901309
     81          6           0       -1.096420   -0.803249    2.666959
     82          1           0       -1.746010   -0.093539    3.177589
     83          1           0       -1.381500   -1.817029    2.947989
     84          1           0       -0.072110   -0.616390    2.987679
 ---------------------------------------------------------------------

 SCF Done:  E(RB3LYP) =  -2005.06823579     A.U. after   15 cycles

      1  Rh   Isotropic =  -319.4283   Anisotropy =   367.1990

      2  P    Isotropic =   324.4065   Anisotropy =   118.0498

      3  P    Isotropic =   325.4308   Anisotropy =   118.6428

      4  C    Isotropic =   137.4463   Anisotropy =    34.6502

      5  C    Isotropic =   140.3674   Anisotropy =    13.9057

      6  H    Isotropic =    29.8900   Anisotropy =     7.9484

      7  H    Isotropic =    30.1768   Anisotropy =     6.7425

      8  C    Isotropic =   146.0406   Anisotropy =    48.4361

      9  H    Isotropic =    29.2188   Anisotropy =     6.2114

     10  H    Isotropic =    29.2556   Anisotropy =     6.5196

     11  C    Isotropic =   145.0024   Anisotropy =     6.6609

     12  H    Isotropic =    29.9531   Anisotropy =    10.1871

     13  H    Isotropic =    30.1968   Anisotropy =     7.7248

     14  C    Isotropic =   143.4011   Anisotropy =    10.4520

     15  H    Isotropic =    30.6202   Anisotropy =     7.7294

     16  H    Isotropic =    30.3150   Anisotropy =     4.9439

     17  C    Isotropic =   150.3610   Anisotropy =     6.2543

     18  H    Isotropic =    29.8572   Anisotropy =    10.0896

     19  C    Isotropic =   150.8182   Anisotropy =     6.4513

     20  H    Isotropic =    29.9558   Anisotropy =    10.7877

     21  C    Isotropic =   149.8991   Anisotropy =     7.8053

     22  H    Isotropic =    29.9237   Anisotropy =    11.2580

     23  C    Isotropic =    79.9577   Anisotropy =   120.5795

     24  H    Isotropic =    26.7579   Anisotropy =     6.8082

     25  C    Isotropic =   153.8837   Anisotropy =    25.3686

     26  H    Isotropic =    29.7715   Anisotropy =     9.5801

     27  H    Isotropic =    29.8250   Anisotropy =    11.2473

     28  C    Isotropic =   175.0949   Anisotropy =    21.4310

     29  H    Isotropic =    30.4588   Anisotropy =     8.1541

     30  H    Isotropic =    30.4713   Anisotropy =    10.0130

     31  H    Isotropic =    30.6512   Anisotropy =     8.4499

     32  C    Isotropic =   144.9786   Anisotropy =     4.9137

     33  H    Isotropic =    30.0216   Anisotropy =    10.4634

     34  H    Isotropic =    30.2524   Anisotropy =     9.1178

     35  C    Isotropic =   144.4721   Anisotropy =     5.5543

     36  H    Isotropic =    29.9810   Anisotropy =    10.2878

     37  H    Isotropic =    30.2523   Anisotropy =     8.1495

     38  C    Isotropic =   145.6270   Anisotropy =     7.4743

     39  H    Isotropic =    30.2800   Anisotropy =     5.7283

     40  H    Isotropic =    30.4644   Anisotropy =     4.9282

     41  C    Isotropic =   153.8896   Anisotropy =    25.3417

     42  H    Isotropic =    29.8328   Anisotropy =    11.3098

     43  H    Isotropic =    29.7864   Anisotropy =     9.5972

     44  C    Isotropic =    79.8789   Anisotropy =   120.7846

     45  H    Isotropic =    26.7903   Anisotropy =     6.8113

     46  C    Isotropic =    79.3732   Anisotropy =   113.7724

     47  H    Isotropic =    26.7107   Anisotropy =     3.9293

     48  C    Isotropic =   147.9856   Anisotropy =    29.8328

     49  H    Isotropic =    29.1482   Anisotropy =     7.3092

     50  H    Isotropic =    29.1020   Anisotropy =    12.6779

     51  C    Isotropic =   147.9857   Anisotropy =    29.8791

     52  H    Isotropic =    29.1593   Anisotropy =     7.3213

     53  H    Isotropic =    29.1042   Anisotropy =    12.6341

     54  C    Isotropic =    78.9430   Anisotropy =   114.2568

     55  H    Isotropic =    26.7306   Anisotropy =     4.0030

     56  C    Isotropic =   137.6985   Anisotropy =    34.4210

     57  C    Isotropic =   143.3227   Anisotropy =    10.7713

     58  C    Isotropic =   145.4546   Anisotropy =     7.7497

     59  C    Isotropic =   140.8109   Anisotropy =    14.4358

     60  H    Isotropic =    30.2873   Anisotropy =     4.8985

     61  H    Isotropic =    30.6414   Anisotropy =     7.6471

     62  C    Isotropic =   150.6478   Anisotropy =     7.2084

     63  H    Isotropic =    30.2637   Anisotropy =     5.5916

     64  H    Isotropic =    30.4678   Anisotropy =     5.0345

     65  C    Isotropic =   149.7380   Anisotropy =     8.2093

     66  C    Isotropic =   150.3228   Anisotropy =     6.8489

     67  H    Isotropic =    30.1242   Anisotropy =     6.2410

     68  H    Isotropic =    29.9127   Anisotropy =     8.1930

     69  C    Isotropic =   145.2470   Anisotropy =     4.9153

     70  H    Isotropic =    29.9993   Anisotropy =    10.7186

     71  C    Isotropic =   145.1083   Anisotropy =     6.4283

     72  H    Isotropic =    29.9482   Anisotropy =    11.1680

     73  C    Isotropic =   144.6354   Anisotropy =     5.4546

     74  H    Isotropic =    29.8684   Anisotropy =    10.1297

     75  H    Isotropic =    30.1103   Anisotropy =    10.3336

     76  H    Isotropic =    30.2739   Anisotropy =     9.0501

     77  H    Isotropic =    30.0293   Anisotropy =    10.0792

     78  H    Isotropic =    30.2306   Anisotropy =     7.6658

     79  H    Isotropic =    30.0719   Anisotropy =    10.1987

     80  H    Isotropic =    30.2639   Anisotropy =     8.0864

     81  C    Isotropic =   174.6823   Anisotropy =    21.6672

     82  H    Isotropic =    30.6590   Anisotropy =     8.5813

     83  H    Isotropic =    30.4329   Anisotropy =    10.0244

     84  H    Isotropic =    30.5421   Anisotropy =     7.8910

 The electronic state is 1-A.
 Alpha  occ. eigenvalues --  -77.23075 -77.23047 -10.30315 -10.30283 -10.30204
 Alpha  occ. eigenvalues --  -10.29286 -10.29282 -10.29137 -10.29111 -10.28891
 Alpha  occ. eigenvalues --  -10.28860 -10.27717 -10.27715 -10.27499 -10.27490
 Alpha  occ. eigenvalues --  -10.27092 -10.27086 -10.27083 -10.27038 -10.26967
 Alpha  occ. eigenvalues --  -10.26946 -10.26350 -10.26315 -10.26304 -10.26288
 Alpha  occ. eigenvalues --  -10.26275 -10.26253 -10.24995 -10.24974 -10.24958
 Alpha  occ. eigenvalues --  -10.24929 -10.24873 -10.24858  -6.69114  -6.69090
 Alpha  occ. eigenvalues --   -4.85415  -4.85390  -4.85302  -4.85279  -4.85010
 Alpha  occ. eigenvalues --   -4.84987  -3.31552  -2.08435  -2.07787  -2.04995
 Alpha  occ. eigenvalues --   -0.97313  -0.97229  -0.94688  -0.90361  -0.89408
 Alpha  occ. eigenvalues --   -0.88418  -0.88223  -0.86639  -0.86608  -0.86561
 Alpha  occ. eigenvalues --   -0.86539  -0.85768  -0.83933  -0.81330  -0.80569
 Alpha  occ. eigenvalues --   -0.78047  -0.76683  -0.76656  -0.76615  -0.76580
 Alpha  occ. eigenvalues --   -0.71707  -0.70779  -0.70412  -0.68047  -0.68014
 Alpha  occ. eigenvalues --   -0.67978  -0.67933  -0.66140  -0.65114  -0.65027
 Alpha  occ. eigenvalues --   -0.62815  -0.61952  -0.61606  -0.60386  -0.57445
 Alpha  occ. eigenvalues --   -0.56928  -0.56507  -0.55833  -0.55578  -0.55512
 Alpha  occ. eigenvalues --   -0.55423  -0.55310  -0.54918  -0.54811  -0.54032
 Alpha  occ. eigenvalues --   -0.53843  -0.53543  -0.53312  -0.53006  -0.52878
 Alpha  occ. eigenvalues --   -0.52841  -0.52681  -0.51619  -0.50987  -0.50908
 Alpha  occ. eigenvalues --   -0.50765  -0.50680  -0.50358  -0.50223  -0.49014
 Alpha  occ. eigenvalues --   -0.48899  -0.48831  -0.48797  -0.48385  -0.47883
 Alpha  occ. eigenvalues --   -0.47130  -0.46618  -0.46461  -0.46216  -0.44593
 Alpha  occ. eigenvalues --   -0.43722  -0.43621  -0.43471  -0.43411  -0.43164
 Alpha  occ. eigenvalues --   -0.42926  -0.42656  -0.42652  -0.42585  -0.42539
 Alpha  occ. eigenvalues --   -0.42389  -0.42118  -0.41914  -0.41317  -0.38499
 Alpha  occ. eigenvalues --   -0.38407  -0.37946  -0.37922  -0.37905  -0.37867
 Alpha  occ. eigenvalues --   -0.36364  -0.36139  -0.35034  -0.34571  -0.33767
 Alpha  occ. eigenvalues --   -0.30765
 Alpha virt. eigenvalues --   -0.16294  -0.13924  -0.09632  -0.08862  -0.08274
 Alpha virt. eigenvalues --   -0.08056  -0.07459  -0.06939  -0.06635  -0.05373
 Alpha virt. eigenvalues --   -0.05235  -0.04621  -0.04450  -0.04304  -0.04022

 Mulliken charges:
               1
     1  Rh  -0.468927
     2  P    0.412214
     3  P    0.420217
     4  C   -0.001847
     5  C   -0.409202
     6  H    0.164384
     7  H    0.135930
     8  C   -0.591930
     9  H    0.206271
    10  H    0.206806
    11  C   -0.377341
    12  H    0.157987
    13  H    0.134263
    14  C   -0.438615
    15  H    0.156114
    16  H    0.157985
    17  C    0.029693
    18  H    0.186673
    19  C    0.021495
    20  H    0.189534
    21  C    0.027802
    22  H    0.189612
    23  C   -0.024020
    24  H    0.175017
    25  C   -0.344875
    26  H    0.169197
    27  H    0.168533
    28  C   -0.465176
    29  H    0.168912
    30  H    0.168482
    31  H    0.164084
    32  C   -0.380029
    33  H    0.156608
    34  H    0.140726
    35  C   -0.381117
    36  H    0.157493
    37  H    0.135567
    38  C   -0.384179
    39  H    0.153842
    40  H    0.144989
    41  C   -0.342798
    42  H    0.168801
    43  H    0.168547
    44  C   -0.025661
    45  H    0.177342
    46  C   -0.089447
    47  H    0.171100
    48  C   -0.226115
    49  H    0.129717
    50  H    0.171991
    51  C   -0.225212
    52  H    0.130482
    53  H    0.172242
    54  C   -0.087571
    55  H    0.169648
    56  C   -0.008177
    57  C   -0.439650
    58  C   -0.382965
    59  C   -0.404084
    60  H    0.159274
    61  H    0.159399
    62  C    0.019753
    63  H    0.153355
    64  H    0.146053
    65  C    0.027707
    66  C    0.031426
    67  H    0.136568
    68  H    0.159673
    69  C   -0.380324
    70  H    0.189537
    71  C   -0.376342
    72  H    0.189688
    73  C   -0.380956
    74  H    0.186637
    75  H    0.156765
    76  H    0.140578
    77  H    0.157947
    78  H    0.134141
    79  H    0.157398
    80  H    0.135940
    81  C   -0.464453
    82  H    0.163025
    83  H    0.169846
    84  H    0.165999
 Sum of Mulliken charges =   1.00000

 Dipole moment (field-independent basis, Debye):
    X=             -0.0510    Y=             -0.0114    Z=              0.1012  Tot=              0.1139
 Quadrupole moment (field-independent basis, Debye-Ang):
   XX=           -186.1014   YY=           -204.4936   ZZ=           -220.8935
   XY=              0.0435   XZ=             -2.3027   YZ=             -0.0891

 Summary of Natural Population Analysis:

                                       Natural Population
                Natural  -----------------------------------------------
    Atom  No    Charge         Core      Valence    Rydberg      Total
 -----------------------------------------------------------------------
     Rh    1   -0.38936     35.98579     9.37857    0.02500    45.38936
      P    2    1.12948      9.99677     3.82598    0.04778    13.87052
      P    3    1.13182      9.99676     3.82361    0.04782    13.86818
      C    4   -0.25399      1.99937     4.23328    0.02134     6.25399
      C    5   -0.40632      1.99930     4.39542    0.01160     6.40632
      H    6    0.21159      0.00000     0.78630    0.00211     0.78841
      H    7    0.19444      0.00000     0.80287    0.00269     0.80556
      C    8   -1.00623      1.99943     4.98825    0.01856     7.00623
      H    9    0.25723      0.00000     0.74053    0.00224     0.74277
      H   10    0.25584      0.00000     0.74182    0.00235     0.74416
      C   11   -0.39168      1.99936     4.38215    0.01017     6.39168
      H   12    0.21317      0.00000     0.78508    0.00174     0.78683
      H   13    0.20039      0.00000     0.79798    0.00163     0.79961
      C   14   -0.40670      1.99929     4.39578    0.01164     6.40670
      H   15    0.20141      0.00000     0.79625    0.00233     0.79859
      H   16    0.20255      0.00000     0.79508    0.00236     0.79745
      C   17   -0.20759      1.99938     4.19514    0.01307     6.20759
      H   18    0.21680      0.00000     0.78147    0.00173     0.78320
      C   19   -0.20636      1.99938     4.19386    0.01312     6.20636
      H   20    0.21863      0.00000     0.77964    0.00173     0.78137
      C   21   -0.20527      1.99939     4.19283    0.01305     6.20527
      H   22    0.21899      0.00000     0.77928    0.00173     0.78101
      C   23   -0.17220      1.99907     4.15329    0.01984     6.17220
      H   24    0.22091      0.00000     0.77665    0.00244     0.77909
      C   25   -0.42356      1.99936     4.41220    0.01200     6.42356
      H   26    0.21515      0.00000     0.78296    0.00190     0.78485
      H   27    0.22824      0.00000     0.77034    0.00142     0.77176
      C   28   -0.90375      1.99941     4.89378    0.01056     6.90375
      H   29    0.24338      0.00000     0.75529    0.00133     0.75662
      H   30    0.23521      0.00000     0.76275    0.00204     0.76479
      H   31    0.24038      0.00000     0.75836    0.00126     0.75962
      C   32   -0.39254      1.99936     4.38298    0.01020     6.39254
      H   33    0.21307      0.00000     0.78518    0.00174     0.78693
      H   34    0.20330      0.00000     0.79507    0.00163     0.79670
      C   35   -0.39225      1.99936     4.38268    0.01021     6.39225
      H   36    0.21324      0.00000     0.78502    0.00175     0.78676
      H   37    0.20083      0.00000     0.79752    0.00166     0.79917
      C   38   -0.40939      1.99929     4.39757    0.01253     6.40939
      H   39    0.20210      0.00000     0.79533    0.00257     0.79790
      H   40    0.19999      0.00000     0.79745    0.00256     0.80001
      C   41   -0.42340      1.99936     4.41206    0.01198     6.42340
      H   42    0.22834      0.00000     0.77025    0.00142     0.77166
      H   43    0.21507      0.00000     0.78303    0.00190     0.78493
      C   44   -0.17307      1.99907     4.15416    0.01984     6.17307
      H   45    0.22098      0.00000     0.77668    0.00234     0.77902
      C   46   -0.16466      1.99908     4.14593    0.01965     6.16466
      H   47    0.22106      0.00000     0.77707    0.00188     0.77894
      C   48   -0.41776      1.99935     4.40569    0.01271     6.41776
      H   49    0.21614      0.00000     0.78233    0.00153     0.78386
      H   50    0.23336      0.00000     0.76482    0.00182     0.76664
      C   51   -0.41772      1.99935     4.40565    0.01271     6.41772
      H   52    0.21616      0.00000     0.78231    0.00154     0.78384
      H   53    0.23340      0.00000     0.76479    0.00182     0.76660
      C   54   -0.16351      1.99908     4.14477    0.01966     6.16351
      H   55    0.22078      0.00000     0.77735    0.00186     0.77922
      C   56   -0.25479      1.99937     4.23421    0.02120     6.25479
      C   57   -0.40710      1.99929     4.39618    0.01162     6.40710
      C   58   -0.40943      1.99929     4.39759    0.01255     6.40943
      C   59   -0.40519      1.99930     4.39440    0.01149     6.40519
      H   60    0.20270      0.00000     0.79492    0.00237     0.79730
      H   61    0.20167      0.00000     0.79599    0.00234     0.79833
      C   62   -0.20641      1.99938     4.19389    0.01313     6.20641
      H   63    0.20176      0.00000     0.79564    0.00260     0.79824
      H   64    0.20039      0.00000     0.79711    0.00250     0.79961
      C   65   -0.20532      1.99939     4.19289    0.01304     6.20532
      C   66   -0.20756      1.99938     4.19511    0.01307     6.20756
      H   67    0.19476      0.00000     0.80254    0.00270     0.80524
      H   68    0.21067      0.00000     0.78721    0.00212     0.78933
      C   69   -0.39253      1.99936     4.38298    0.01020     6.39253
      H   70    0.21862      0.00000     0.77965    0.00173     0.78138
      C   71   -0.39168      1.99936     4.38215    0.01018     6.39168
      H   72    0.21890      0.00000     0.77937    0.00173     0.78110
      C   73   -0.39225      1.99936     4.38268    0.01021     6.39225
      H   74    0.21693      0.00000     0.78134    0.00173     0.78307
      H   75    0.21308      0.00000     0.78517    0.00174     0.78692
      H   76    0.20319      0.00000     0.79517    0.00163     0.79681
      H   77    0.21316      0.00000     0.78509    0.00174     0.78684
      H   78    0.20026      0.00000     0.79811    0.00163     0.79974
      H   79    0.21316      0.00000     0.78510    0.00175     0.78684
      H   80    0.20095      0.00000     0.79739    0.00166     0.79905
      C   81   -0.90353      1.99941     4.89367    0.01045     6.90353
      H   82    0.24014      0.00000     0.75858    0.00127     0.75986
      H   83    0.23587      0.00000     0.76212    0.00201     0.76413
      H   84    0.24348      0.00000     0.75525    0.00127     0.75652
 =======================================================================
   * Total *    1.00000    117.95825   191.40395    0.63780   310.00000

 Normal termination of Gaussian 16 at Mon Jan  1 03:55:52 2001.
