 Gaussian 16, Revision B.01,
 Gaussian 16:  ES64L-G16RevB.01 20-Dec-2017

 ------------------------------------------
 # nmr=giao b3lyp/genecp pop=nbo scfcyc=200
 ------------------------------------------

 ---------
 MB-50_SPE
 ---------
 Symbolic Z-matrix:
 Charge =  1 Multiplicity = 1

                         Standard orientation:
 ---------------------------------------------------------------------
 Center     Atomic      Atomic             Coordinates (Angstroms)
 Number     Number       Type             X           Y           Z
 ---------------------------------------------------------------------
      1         15           0       -1.247639   -0.502070    0.362020
      2         15           0        1.357211   -1.139900   -0.376180
      3          6           0       -0.001759   -1.861670    0.689050
      4          6           0       -2.175939   -0.178739    1.919360
      5          6           0       -3.556919    0.035281    1.899980
      6          6           0       -4.230989    0.357091    3.074140
      7          6           0       -3.536059    0.471281    4.272650
      8          6           0       -2.158649    0.270471    4.296110
      9          6           0       -1.479539   -0.044479    3.125770
     10          6           0       -2.456309   -1.228279   -0.818410
     11          6           0       -2.688719   -0.606419   -2.047020
     12          6           0       -3.590119   -1.158119   -2.953690
     13          6           0       -4.260909   -2.334039   -2.638950
     14          6           0       -4.031529   -2.961349   -1.415980
     15          6           0       -3.133859   -2.413679   -0.508790
     16          6           0        2.970071   -1.484730    0.430050
     17          6           0        3.747741   -2.604140    0.113540
     18          6           0        4.954621   -2.817000    0.771460
     19          6           0        5.389531   -1.929970    1.750720
     20          6           0        4.615661   -0.820100    2.075200
     21          6           0        3.414681   -0.593580    1.413590
     22          6           0        1.293851   -2.161310   -1.935080
     23          1           0        0.317441   -1.842020    1.730580
     24          1           0       -0.305289   -2.873710    0.424990
     25          1           0        0.397961   -1.842040   -2.476040
     26          1           0        2.171351   -1.896500   -2.536050
     27          1           0       -4.113229   -0.059249    0.976760
     28          1           0       -5.302029    0.513821    3.049530
     29          1           0       -4.063809    0.717121    5.185310
     30          1           0       -1.612059    0.359691    5.226480
     31          1           0       -0.405549   -0.182500    3.162870
     32          1           0       -2.161289    0.305701   -2.296140
     33          1           0       -3.767019   -0.668569   -3.903120
     34          1           0       -4.962789   -2.762929   -3.343020
     35          1           0       -4.553699   -3.877149   -1.169100
     36          1           0       -2.971099   -2.907179    0.441940
     37          1           0        3.406701   -3.317130   -0.624170
     38          1           0        5.552731   -3.684150    0.521160
     39          1           0        6.328721   -2.103461    2.260620
     40          1           0        4.950711   -0.126860    2.836490
     41          1           0        2.822101    0.279340    1.661050
     42         45           0        0.364021    0.998230   -0.499630
     43          6           0        2.203331    2.348420   -0.699800
     44          6           0        1.735721    2.035400   -1.957850
     45          6           0       -0.875479    2.862730   -0.934330
     46          6           0       -0.458479    2.895220    0.380630
     47          6           0        1.970662    3.659690    0.027250
     48          1           0        3.009971    1.735780   -0.314040
     49          1           0        2.230601    1.220850   -2.478240
     50          6           0        0.847431    2.884580   -2.832840
     51          6           0       -0.261268    3.649680   -2.077160
     52          1           0       -1.872099    2.475251   -1.117130
     53          6           0        0.722772    3.651690    0.936210
     54          1           0       -1.162719    2.552260    1.131610
     55          1           0        2.845362    3.873050    0.643850
     56          1           0        1.909622    4.473040   -0.695400
     57          1           0        1.461902    3.591510   -3.404210
     58          1           0        0.386871    2.227780   -3.574290
     59          1           0        0.119362    4.600490   -1.705020
     60          1           0       -1.050008    3.902130   -2.787700
     61          1           0        0.981521    3.201060    1.896820
     62          1           0        0.422752    4.682460    1.163250
     63          8           0        1.256381   -3.543750   -1.613880
     64          1           0        1.094131   -4.052290   -2.417750
 ---------------------------------------------------------------------

 SCF Done:  E(RB3LYP) =  -1955.05645014     A.U. after   16 cycles

      1  P    Isotropic =   316.7401   Anisotropy =   109.9439

      2  P    Isotropic =   321.6958   Anisotropy =    99.7122

      3  C    Isotropic =   132.3639   Anisotropy =    57.8357

      4  C    Isotropic =    44.5212   Anisotropy =   167.9675

      5  C    Isotropic =    47.2497   Anisotropy =   190.9137

      6  C    Isotropic =    48.5023   Anisotropy =   190.3395

      7  C    Isotropic =    46.1388   Anisotropy =   196.1086

      8  C    Isotropic =    48.7403   Anisotropy =   189.9223

      9  C    Isotropic =    49.7950   Anisotropy =   186.2435

     10  C    Isotropic =    45.8556   Anisotropy =   173.1624

     11  C    Isotropic =    41.7074   Anisotropy =   179.2865

     12  C    Isotropic =    49.4338   Anisotropy =   187.7404

     13  C    Isotropic =    44.3833   Anisotropy =   199.5110

     14  C    Isotropic =    47.2402   Anisotropy =   192.3654

     15  C    Isotropic =    45.6130   Anisotropy =   190.2897

     16  C    Isotropic =    47.0644   Anisotropy =   167.7736

     17  C    Isotropic =    46.0621   Anisotropy =   187.1678

     18  C    Isotropic =    47.9330   Anisotropy =   190.9213

     19  C    Isotropic =    44.7781   Anisotropy =   198.0964

     20  C    Isotropic =    49.1343   Anisotropy =   188.4166

     21  C    Isotropic =    46.3952   Anisotropy =   179.0069

     22  C    Isotropic =   117.4410   Anisotropy =    61.1632

     23  H    Isotropic =    28.1935   Anisotropy =     3.1421

     24  H    Isotropic =    27.5025   Anisotropy =     7.7966

     25  H    Isotropic =    27.7629   Anisotropy =     6.3713

     26  H    Isotropic =    27.3508   Anisotropy =     3.7822

     27  H    Isotropic =    25.0707   Anisotropy =    12.5551

     28  H    Isotropic =    24.3419   Anisotropy =     6.4581

     29  H    Isotropic =    24.0931   Anisotropy =     3.8636

     30  H    Isotropic =    24.0009   Anisotropy =     6.5585

     31  H    Isotropic =    23.9293   Anisotropy =    10.5392

     32  H    Isotropic =    23.4170   Anisotropy =    10.1053

     33  H    Isotropic =    23.9854   Anisotropy =     6.6719

     34  H    Isotropic =    23.8426   Anisotropy =     3.8277

     35  H    Isotropic =    23.9881   Anisotropy =     5.6868

     36  H    Isotropic =    24.2586   Anisotropy =    11.4413

     37  H    Isotropic =    23.4520   Anisotropy =    12.2612

     38  H    Isotropic =    24.1332   Anisotropy =     5.7932

     39  H    Isotropic =    23.9824   Anisotropy =     4.2422

     40  H    Isotropic =    24.0032   Anisotropy =     7.1009

     41  H    Isotropic =    23.6952   Anisotropy =    10.3109

     42  Rh   Isotropic =  -310.3429   Anisotropy =   360.4342

     43  C    Isotropic =    75.6581   Anisotropy =   126.6219

     44  C    Isotropic =    76.7506   Anisotropy =   116.4235

     45  C    Isotropic =    80.5226   Anisotropy =   118.5606

     46  C    Isotropic =    71.2359   Anisotropy =   124.6715

     47  C    Isotropic =   153.8945   Anisotropy =    24.9926

     48  H    Isotropic =    26.9505   Anisotropy =     5.9609

     49  H    Isotropic =    26.6116   Anisotropy =     5.4429

     50  C    Isotropic =   147.4648   Anisotropy =    29.7974

     51  C    Isotropic =   154.2229   Anisotropy =    24.4316

     52  H    Isotropic =    26.9572   Anisotropy =     6.5790

     53  C    Isotropic =   147.7685   Anisotropy =    29.5269

     54  H    Isotropic =    26.8702   Anisotropy =     3.8079

     55  H    Isotropic =    29.8005   Anisotropy =    11.3896

     56  H    Isotropic =    29.7955   Anisotropy =     9.3465

     57  H    Isotropic =    29.0789   Anisotropy =    12.6284

     58  H    Isotropic =    29.1018   Anisotropy =     8.3705

     59  H    Isotropic =    29.8140   Anisotropy =     9.2833

     60  H    Isotropic =    29.8087   Anisotropy =    11.6308

     61  H    Isotropic =    29.0336   Anisotropy =     7.4536

     62  H    Isotropic =    29.2099   Anisotropy =    12.1069

     63  O    Isotropic =   306.0437   Anisotropy =   104.8421

     64  H    Isotropic =    31.2234   Anisotropy =    21.4379

 The electronic state is 1-A.
 Alpha  occ. eigenvalues --  -77.24217 -77.23939 -19.24910 -10.34845 -10.30278
 Alpha  occ. eigenvalues --  -10.30111 -10.29963 -10.29752 -10.29606 -10.29536
 Alpha  occ. eigenvalues --  -10.29356 -10.29236 -10.29005 -10.28932 -10.28687
 Alpha  occ. eigenvalues --  -10.28500 -10.28398 -10.28273 -10.28185 -10.28158
 Alpha  occ. eigenvalues --  -10.28056 -10.27998 -10.27912 -10.27805 -10.27717
 Alpha  occ. eigenvalues --  -10.27703 -10.27676 -10.27635 -10.27618 -10.27552
 Alpha  occ. eigenvalues --  -10.27401  -6.70204  -6.70005  -4.86483  -4.86430
 Alpha  occ. eigenvalues --   -4.86278  -4.86226  -4.86106  -4.85898  -3.32123
 Alpha  occ. eigenvalues --   -2.09029  -2.08338  -2.05584  -1.14646  -0.97288
 Alpha  occ. eigenvalues --   -0.96492  -0.96444  -0.94885  -0.89961  -0.89631
 Alpha  occ. eigenvalues --   -0.88438  -0.87343  -0.85912  -0.85631  -0.85282
 Alpha  occ. eigenvalues --   -0.85254  -0.84373  -0.81520  -0.80774  -0.78261
 Alpha  occ. eigenvalues --   -0.75109  -0.72276  -0.71764  -0.71296  -0.71096
 Alpha  occ. eigenvalues --   -0.70979  -0.70672  -0.67409  -0.66835  -0.66276
 Alpha  occ. eigenvalues --   -0.64291  -0.63011  -0.62922  -0.62020  -0.61100
 Alpha  occ. eigenvalues --   -0.60467  -0.58111  -0.57534  -0.57210  -0.56682
 Alpha  occ. eigenvalues --   -0.56617  -0.56343  -0.56077  -0.55806  -0.55333
 Alpha  occ. eigenvalues --   -0.54849  -0.54072  -0.53584  -0.53344  -0.53042
 Alpha  occ. eigenvalues --   -0.52999  -0.52929  -0.52620  -0.51592  -0.50478
 Alpha  occ. eigenvalues --   -0.49294  -0.49083  -0.48566  -0.48307  -0.47860
 Alpha  occ. eigenvalues --   -0.47712  -0.46749  -0.46524  -0.46427  -0.45751
 Alpha  occ. eigenvalues --   -0.45394  -0.45213  -0.44481  -0.43953  -0.43817
 Alpha  occ. eigenvalues --   -0.43598  -0.43399  -0.43158  -0.41846  -0.40315
 Alpha  occ. eigenvalues --   -0.38399  -0.37762  -0.36862  -0.36775  -0.36285
 Alpha  occ. eigenvalues --   -0.36082  -0.35959  -0.35590  -0.35179  -0.34930
 Alpha  occ. eigenvalues --   -0.34373  -0.31383
 Alpha virt. eigenvalues --   -0.16939  -0.15230  -0.14171  -0.13589  -0.12571
 Alpha virt. eigenvalues --   -0.11624  -0.11399  -0.11196  -0.09795  -0.08427
 Alpha virt. eigenvalues --   -0.08121  -0.07432  -0.06884  -0.06262  -0.05514

 Mulliken charges:
               1
     1  P    0.334788
     2  P    0.360989
     3  C   -0.553067
     4  C   -0.151265
     5  C   -0.063815
     6  C   -0.098134
     7  C   -0.097603
     8  C   -0.101650
     9  C   -0.080441
    10  C   -0.248404
    11  C   -0.049191
    12  C   -0.109168
    13  C   -0.096672
    14  C   -0.085474
    15  C   -0.080159
    16  C   -0.212936
    17  C   -0.018510
    18  C   -0.093513
    19  C   -0.086922
    20  C   -0.110315
    21  C   -0.069904
    22  C   -0.239312
    23  H    0.220184
    24  H    0.224021
    25  H    0.167175
    26  H    0.160240
    27  H    0.159348
    28  H    0.136910
    29  H    0.141561
    30  H    0.133780
    31  H    0.130720
    32  H    0.148386
    33  H    0.132966
    34  H    0.143293
    35  H    0.139843
    36  H    0.151780
    37  H    0.161294
    38  H    0.136451
    39  H    0.139512
    40  H    0.131943
    41  H    0.181208
    42  Rh  -0.569763
    43  C   -0.050408
    44  C   -0.094116
    45  C   -0.017508
    46  C   -0.099065
    47  C   -0.344295
    48  H    0.210716
    49  H    0.173049
    50  C   -0.208900
    51  C   -0.356727
    52  H    0.181112
    53  C   -0.228881
    54  H    0.212213
    55  H    0.169653
    56  H    0.167053
    57  H    0.173931
    58  H    0.129890
    59  H    0.168087
    60  H    0.169638
    61  H    0.129970
    62  H    0.173948
    63  O   -0.372009
    64  H    0.292474
 Sum of Mulliken charges =   1.00000

 Dipole moment (field-independent basis, Debye):
    X=             -0.1157    Y=             -0.5344    Z=             -1.4472  Tot=              1.5470
 Quadrupole moment (field-independent basis, Debye-Ang):
   XX=           -164.9117   YY=           -180.4361   ZZ=           -175.7997
   XY=              1.7112   XZ=              3.4067   YZ=              8.3286

 Summary of Natural Population Analysis:

                                       Natural Population
                Natural  -----------------------------------------------
    Atom  No    Charge         Core      Valence    Rydberg      Total
 -----------------------------------------------------------------------
      P    1    1.12489      9.99644     3.82733    0.05134    13.87511
      P    2    1.08274      9.99660     3.86814    0.05251    13.91726
      C    3   -0.96604      1.99942     4.94893    0.01769     6.96604
      C    4   -0.34243      1.99900     4.31977    0.02366     6.34243
      C    5   -0.19442      1.99909     4.18005    0.01527     6.19442
      C    6   -0.18808      1.99920     4.17418    0.01469     6.18808
      C    7   -0.17936      1.99920     4.16547    0.01469     6.17936
      C    8   -0.19009      1.99920     4.17616    0.01473     6.19009
      C    9   -0.19779      1.99909     4.18335    0.01535     6.19779
      C   10   -0.35027      1.99900     4.32670    0.02457     6.35027
      C   11   -0.18804      1.99909     4.17314    0.01581     6.18804
      C   12   -0.19844      1.99920     4.18457    0.01467     6.19844
      C   13   -0.17417      1.99921     4.16041    0.01456     6.17417
      C   14   -0.19116      1.99920     4.17737    0.01459     6.19116
      C   15   -0.18872      1.99909     4.17350    0.01612     6.18872
      C   16   -0.35008      1.99901     4.32916    0.02191     6.35008
      C   17   -0.18647      1.99911     4.17162    0.01575     6.18647
      C   18   -0.18887      1.99920     4.17523    0.01444     6.18887
      C   19   -0.17435      1.99921     4.16051    0.01463     6.17435
      C   20   -0.19599      1.99920     4.18207    0.01473     6.19599
      C   21   -0.19531      1.99910     4.18110    0.01511     6.19531
      C   22   -0.33579      1.99927     4.31708    0.01944     6.33579
      H   23    0.26342      0.00000     0.73511    0.00147     0.73658
      H   24    0.27150      0.00000     0.72649    0.00201     0.72850
      H   25    0.20375      0.00000     0.79452    0.00173     0.79625
      H   26    0.19727      0.00000     0.80089    0.00184     0.80273
      H   27    0.22288      0.00000     0.77537    0.00175     0.77712
      H   28    0.22371      0.00000     0.77508    0.00121     0.77629
      H   29    0.22397      0.00000     0.77486    0.00117     0.77603
      H   30    0.22242      0.00000     0.77635    0.00123     0.77758
      H   31    0.20827      0.00000     0.78967    0.00205     0.79173
      H   32    0.21995      0.00000     0.77813    0.00192     0.78005
      H   33    0.22244      0.00000     0.77634    0.00122     0.77756
      H   34    0.22433      0.00000     0.77451    0.00116     0.77567
      H   35    0.22501      0.00000     0.77376    0.00122     0.77499
      H   36    0.21876      0.00000     0.77920    0.00204     0.78124
      H   37    0.23346      0.00000     0.76465    0.00189     0.76654
      H   38    0.22336      0.00000     0.77542    0.00121     0.77664
      H   39    0.22332      0.00000     0.77551    0.00117     0.77668
      H   40    0.22103      0.00000     0.77773    0.00124     0.77897
      H   41    0.21543      0.00000     0.78271    0.00186     0.78457
     Rh   42   -0.42995     35.98591     9.41739    0.02666    45.42995
      C   43   -0.16601      1.99906     4.14709    0.01987     6.16601
      C   44   -0.15930      1.99907     4.14015    0.02008     6.15930
      C   45   -0.18358      1.99906     4.16482    0.01969     6.18358
      C   46   -0.14689      1.99907     4.12775    0.02007     6.14689
      C   47   -0.42550      1.99936     4.41421    0.01193     6.42550
      H   48    0.22926      0.00000     0.76836    0.00238     0.77074
      H   49    0.22450      0.00000     0.77368    0.00182     0.77550
      C   50   -0.42111      1.99936     4.40929    0.01246     6.42111
      C   51   -0.42398      1.99936     4.41277    0.01185     6.42398
      H   52    0.22747      0.00000     0.77084    0.00169     0.77253
      C   53   -0.42081      1.99936     4.40908    0.01237     6.42081
      H   54    0.23298      0.00000     0.76514    0.00189     0.76702
      H   55    0.22885      0.00000     0.76975    0.00140     0.77115
      H   56    0.21540      0.00000     0.78268    0.00192     0.78460
      H   57    0.23559      0.00000     0.76263    0.00178     0.76441
      H   58    0.21723      0.00000     0.78122    0.00155     0.78277
      H   59    0.21549      0.00000     0.78259    0.00192     0.78451
      H   60    0.22858      0.00000     0.77002    0.00140     0.77142
      H   61    0.21857      0.00000     0.77988    0.00155     0.78143
      H   62    0.23522      0.00000     0.76296    0.00182     0.76478
      O   63   -0.70470      1.99982     6.69198    0.01291     8.70470
      H   64    0.47663      0.00000     0.51933    0.00403     0.52337
 =======================================================================
   * Total *    1.00000    113.95556   167.38575    0.65869   282.00000

 Normal termination of Gaussian 16 at Tue Jan 21 12:53:11 2025.
