 Gaussian 16, Revision B.01,
 Gaussian 16:  ES64L-G16RevB.01 20-Dec-2017

 ------------------------------------------
 # nmr=giao b3lyp/genecp pop=nbo scfcyc=200
 ------------------------------------------

 ---------
 MB-52_SPE
 ---------
 Symbolic Z-matrix:
 Charge =  1 Multiplicity = 1

                         Standard orientation:
 ---------------------------------------------------------------------
 Center     Atomic      Atomic             Coordinates (Angstroms)
 Number     Number       Type             X           Y           Z
 ---------------------------------------------------------------------
      1         15           0        1.463329    0.556808    0.688021
      2         15           0       -1.286921    0.347980    0.485511
      3          7           0        2.676419    0.234888    1.871581
      4          7           0        2.044750    1.963548   -0.131379
      5          6           0       -2.553551   -0.406660    1.583591
      6          6           0       -2.390642   -1.735890    1.985201
      7          1           0       -1.561572   -2.318640    1.602501
      8          6           0       -3.285662   -2.310649    2.881141
      9          1           0       -3.154203   -3.340659    3.187651
     10          6           0       -4.348692   -1.563959    3.378101
     11          1           0       -5.048122   -2.012659    4.072051
     12          6           0       -4.513681   -0.239239    2.983381
     13          1           0       -5.339011    0.344232    3.371391
     14          6           0       -3.620421    0.342361    2.091351
     15          1           0       -3.760191    1.372691    1.791271
     16          6           0       -2.120830    1.696740   -0.438379
     17          6           0       -3.316370    1.405581   -1.108359
     18          1           0       -3.776101    0.429121   -1.013159
     19          6           0       -3.940430    2.377051   -1.880229
     20          1           0       -4.870050    2.145581   -2.384649
     21          6           0       -3.375099    3.643671   -2.001039
     22          1           0       -3.863519    4.400441   -2.601589
     23          6           0       -2.182779    3.934070   -1.348549
     24          1           0       -1.736449    4.915930   -1.440679
     25          6           0       -1.552450    2.965800   -0.572949
     26          1           0       -0.618310    3.216609   -0.088289
     27          6           0       -0.020301    1.118039    1.646481
     28          1           0       -0.101840    2.187189    1.837981
     29          1           0       -0.088721    0.572649    2.587991
     30          6           0        2.015600    2.149038   -1.514929
     31          1           0        1.651469    1.368658   -2.160139
     32          6           0        2.477240    3.403218   -1.787499
     33          1           0        2.580441    3.836248   -2.769069
     34          6           0        2.808261    4.022058   -0.544369
     35          1           0        3.221811    5.008178   -0.406739
     36          6           0        2.535110    3.130838    0.453341
     37          1           0        2.685740    3.199208    1.517391
     38          6           0        3.880009   -0.411553    1.587001
     39          1           0        4.086958   -0.790533    0.600661
     40          6           0        4.649629   -0.404183    2.712711
     41          1           0        5.634008   -0.833334    2.804251
     42          6           0        3.914569    0.266787    3.734671
     43          1           0        4.233949    0.438367    4.749781
     44          6           0        2.720009    0.655748    3.203361
     45          1           0        1.897699    1.184878    3.651571
     46         45           0        0.325358   -0.978191   -0.645349
     47          6           0        1.970258   -1.834412   -1.999369
     48          6           0        1.848158   -2.627042   -0.878159
     49          6           0       -1.019842   -2.644280   -1.480899
     50          6           0       -0.925622   -1.630321   -2.408779
     51          6           0        1.404138   -2.150322   -3.370749
     52          1           0        2.738468   -1.068772   -1.978119
     53          1           0        2.541708   -2.449292   -0.062969
     54          6           0        1.082147   -3.920991   -0.759769
     55          6           0       -0.258213   -3.955321   -1.524979
     56          1           0       -1.881942   -2.625180   -0.823809
     57          6           0       -0.010292   -1.576541   -3.606149
     58          1           0       -1.727392   -0.898850   -2.428149
     59          1           0        2.072938   -1.733862   -4.125399
     60          1           0        1.409057   -3.228302   -3.529339
     61          1           0        1.718617   -4.751612   -1.089329
     62          1           0        0.894187   -4.097001    0.301491
     63          1           0       -0.097943   -4.250041   -2.561639
     64          1           0       -0.884753   -4.733301   -1.086069
     65          1           0        0.071219   -0.531921   -3.913689
     66          1           0       -0.485072   -2.096111   -4.447849
 ---------------------------------------------------------------------

 SCF Done:  E(RB3LYP) =  -2027.43666074     A.U. after   16 cycles

      1  P    Isotropic =   258.5152   Anisotropy =   140.7487

      2  P    Isotropic =   316.8267   Anisotropy =   116.3155

      3  N    Isotropic =    70.2232   Anisotropy =   137.3282

      4  N    Isotropic =    63.4512   Anisotropy =   133.8311

      5  C    Isotropic =    45.2328   Anisotropy =   169.6818

      6  C    Isotropic =    44.5977   Anisotropy =   179.0144

      7  H    Isotropic =    23.4921   Anisotropy =     9.9151

      8  C    Isotropic =    48.3958   Anisotropy =   189.3032

      9  H    Isotropic =    23.9966   Anisotropy =     7.1042

     10  C    Isotropic =    43.9905   Anisotropy =   199.9980

     11  H    Isotropic =    23.9304   Anisotropy =     4.0456

     12  C    Isotropic =    47.7799   Anisotropy =   191.2331

     13  H    Isotropic =    24.2200   Anisotropy =     6.3063

     14  C    Isotropic =    46.8250   Anisotropy =   190.7196

     15  H    Isotropic =    24.6461   Anisotropy =    12.7779

     16  C    Isotropic =    48.8680   Anisotropy =   166.2196

     17  C    Isotropic =    48.2295   Anisotropy =   188.3928

     18  H    Isotropic =    24.6842   Anisotropy =    10.8845

     19  C    Isotropic =    48.6151   Anisotropy =   191.5297

     20  H    Isotropic =    24.1905   Anisotropy =     5.9758

     21  C    Isotropic =    45.7669   Anisotropy =   197.7287

     22  H    Isotropic =    24.0531   Anisotropy =     3.8025

     23  C    Isotropic =    47.9548   Anisotropy =   192.6529

     24  H    Isotropic =    24.3099   Anisotropy =     7.4352

     25  C    Isotropic =    49.3332   Anisotropy =   190.5876

     26  H    Isotropic =    25.3800   Anisotropy =     8.4533

     27  C    Isotropic =   124.2953   Anisotropy =    51.0833

     28  H    Isotropic =    27.6065   Anisotropy =     7.2794

     29  H    Isotropic =    27.8502   Anisotropy =     6.2256

     30  C    Isotropic =    54.4823   Anisotropy =   107.7320

     31  H    Isotropic =    24.3344   Anisotropy =     6.9118

     32  C    Isotropic =    65.6299   Anisotropy =   143.6820

     33  H    Isotropic =    25.2962   Anisotropy =     4.6994

     34  C    Isotropic =    59.7714   Anisotropy =   149.8978

     35  H    Isotropic =    24.9745   Anisotropy =     4.1938

     36  C    Isotropic =    60.6885   Anisotropy =   114.8875

     37  H    Isotropic =    25.2300   Anisotropy =     8.4157

     38  C    Isotropic =    57.5043   Anisotropy =   112.0430

     39  H    Isotropic =    25.4214   Anisotropy =     7.7419

     40  C    Isotropic =    60.7110   Anisotropy =   146.8308

     41  H    Isotropic =    25.0813   Anisotropy =     4.5791

     42  C    Isotropic =    63.2894   Anisotropy =   148.1587

     43  H    Isotropic =    25.1280   Anisotropy =     4.3518

     44  C    Isotropic =    59.4177   Anisotropy =   108.7297

     45  H    Isotropic =    25.0526   Anisotropy =     8.4654

     46  Rh   Isotropic =  -321.7836   Anisotropy =   367.5974

     47  C    Isotropic =    78.7275   Anisotropy =   123.6224

     48  C    Isotropic =    71.8961   Anisotropy =   124.4098

     49  C    Isotropic =    74.5441   Anisotropy =   127.5745

     50  C    Isotropic =    69.1541   Anisotropy =   127.7451

     51  C    Isotropic =   154.1026   Anisotropy =    24.6251

     52  H    Isotropic =    26.6377   Anisotropy =     6.0443

     53  H    Isotropic =    25.7220   Anisotropy =     4.9480

     54  C    Isotropic =   147.4612   Anisotropy =    29.5983

     55  C    Isotropic =   154.3347   Anisotropy =    24.4977

     56  H    Isotropic =    26.7025   Anisotropy =     5.3598

     57  C    Isotropic =   147.9360   Anisotropy =    28.6054

     58  H    Isotropic =    26.3140   Anisotropy =     4.0379

     59  H    Isotropic =    29.7385   Anisotropy =    11.4102

     60  H    Isotropic =    29.6509   Anisotropy =     9.5536

     61  H    Isotropic =    28.9500   Anisotropy =    12.5265

     62  H    Isotropic =    28.8476   Anisotropy =     7.5237

     63  H    Isotropic =    29.6550   Anisotropy =     9.2844

     64  H    Isotropic =    29.7101   Anisotropy =    11.3567

     65  H    Isotropic =    29.2385   Anisotropy =     7.0875

     66  H    Isotropic =    29.1356   Anisotropy =    12.3170

 The electronic state is 1-A.
 Alpha  occ. eigenvalues --  -77.30112 -77.25501 -14.47703 -14.47437 -10.31953
 Alpha  occ. eigenvalues --  -10.30786 -10.30718 -10.30681 -10.30577 -10.30448
 Alpha  occ. eigenvalues --  -10.30313 -10.30029 -10.29950 -10.29855 -10.29635
 Alpha  occ. eigenvalues --  -10.29368 -10.29189 -10.29167 -10.29136 -10.28828
 Alpha  occ. eigenvalues --  -10.28760 -10.28588 -10.28530 -10.28490 -10.28436
 Alpha  occ. eigenvalues --  -10.28356 -10.28300 -10.28201 -10.28142 -10.26106
 Alpha  occ. eigenvalues --  -10.26101 -10.26047 -10.25942  -6.75515  -6.71464
 Alpha  occ. eigenvalues --   -4.91893  -4.91795  -4.91350  -4.87766  -4.87671
 Alpha  occ. eigenvalues --   -4.87367  -3.33496  -2.10487  -2.09729  -2.06861
 Alpha  occ. eigenvalues --   -1.09616  -1.07688  -0.97748  -0.96982  -0.95875
 Alpha  occ. eigenvalues --   -0.92501  -0.90687  -0.89348  -0.89259  -0.87380
 Alpha  occ. eigenvalues --   -0.86281  -0.86177  -0.85785  -0.85326  -0.83178
 Alpha  occ. eigenvalues --   -0.82906  -0.81723  -0.79211  -0.76591  -0.74268
 Alpha  occ. eigenvalues --   -0.72153  -0.71935  -0.71814  -0.71160  -0.68407
 Alpha  occ. eigenvalues --   -0.67696  -0.67443  -0.67291  -0.67132  -0.65709
 Alpha  occ. eigenvalues --   -0.65017  -0.63875  -0.63324  -0.62871  -0.61348
 Alpha  occ. eigenvalues --   -0.60639  -0.58471  -0.57633  -0.57569  -0.57138
 Alpha  occ. eigenvalues --   -0.56607  -0.56370  -0.55937  -0.54927  -0.54845
 Alpha  occ. eigenvalues --   -0.54076  -0.53978  -0.53610  -0.53581  -0.53339
 Alpha  occ. eigenvalues --   -0.53251  -0.52846  -0.52467  -0.51540  -0.51273
 Alpha  occ. eigenvalues --   -0.50030  -0.49747  -0.49713  -0.49503  -0.49100
 Alpha  occ. eigenvalues --   -0.48678  -0.48321  -0.48227  -0.48167  -0.47544
 Alpha  occ. eigenvalues --   -0.47259  -0.46188  -0.45987  -0.45425  -0.45209
 Alpha  occ. eigenvalues --   -0.44698  -0.44502  -0.44316  -0.43232  -0.39613
 Alpha  occ. eigenvalues --   -0.38855  -0.37641  -0.37442  -0.37076  -0.37004
 Alpha  occ. eigenvalues --   -0.36581  -0.36492  -0.36059  -0.35255  -0.34955
 Alpha  occ. eigenvalues --   -0.32693  -0.32637  -0.32375
 Alpha virt. eigenvalues --   -0.18201  -0.16579  -0.14412  -0.13062  -0.12641
 Alpha virt. eigenvalues --   -0.11796  -0.10959  -0.10746  -0.09957  -0.08646
 Alpha virt. eigenvalues --   -0.07892  -0.07402  -0.07237  -0.06524  -0.06194

 Mulliken charges:
               1
     1  P    0.588993
     2  P    0.402268
     3  N   -0.175419
     4  N   -0.189664
     5  C   -0.278741
     6  C   -0.063731
     7  H    0.181126
     8  C   -0.098762
     9  H    0.135446
    10  C   -0.091824
    11  H    0.143734
    12  C   -0.088884
    13  H    0.141789
    14  C   -0.050342
    15  H    0.163022
    16  C   -0.097373
    17  C   -0.142302
    18  H    0.161966
    19  C   -0.086354
    20  H    0.139047
    21  C   -0.096838
    22  H    0.141539
    23  C   -0.118490
    24  H    0.138287
    25  C   -0.063563
    26  H    0.159735
    27  C   -0.625155
    28  H    0.229689
    29  H    0.242607
    30  C   -0.118979
    31  H    0.148921
    32  C   -0.121891
    33  H    0.148002
    34  C   -0.112903
    35  H    0.148496
    36  C   -0.126577
    37  H    0.155502
    38  C   -0.134189
    39  H    0.151469
    40  C   -0.110793
    41  H    0.148178
    42  C   -0.104890
    43  H    0.151405
    44  C   -0.141341
    45  H    0.145319
    46  Rh  -0.630274
    47  C   -0.041141
    48  C   -0.078324
    49  C   -0.044765
    50  C   -0.089459
    51  C   -0.365675
    52  H    0.194590
    53  H    0.187550
    54  C   -0.230604
    55  C   -0.353286
    56  H    0.211103
    57  C   -0.226073
    58  H    0.203604
    59  H    0.177174
    60  H    0.171587
    61  H    0.180493
    62  H    0.138777
    63  H    0.171388
    64  H    0.173950
    65  H    0.141624
    66  H    0.180228
 Sum of Mulliken charges =   1.00000

 Dipole moment (field-independent basis, Debye):
    X=             -2.5307    Y=             -1.3428    Z=             -0.3999  Tot=              2.8927
 Quadrupole moment (field-independent basis, Debye-Ang):
   XX=           -186.6806   YY=           -186.0190   ZZ=           -191.5987
   XY=             -4.1183   XZ=             -3.4045   YZ=              1.9481

 Summary of Natural Population Analysis:

                                       Natural Population
                Natural  -----------------------------------------------
    Atom  No    Charge         Core      Valence    Rydberg      Total
 -----------------------------------------------------------------------
      P    1    1.50993      9.99598     3.42934    0.06475    13.49007
      P    2    1.13321      9.99648     3.81938    0.05094    13.86679
      N    3   -0.64350      1.99946     5.62098    0.02307     7.64350
      N    4   -0.64755      1.99946     5.62180    0.02628     7.64755
      C    5   -0.35215      1.99899     4.32951    0.02365     6.35215
      C    6   -0.19129      1.99909     4.17681    0.01539     6.19129
      H    7    0.21936      0.00000     0.77873    0.00191     0.78064
      C    8   -0.19321      1.99920     4.17942    0.01459     6.19321
      H    9    0.22350      0.00000     0.77529    0.00121     0.77650
      C   10   -0.17050      1.99921     4.15679    0.01450     6.17050
      H   11    0.22541      0.00000     0.77343    0.00116     0.77459
      C   12   -0.18819      1.99920     4.17449    0.01450     6.18819
      H   13    0.22578      0.00000     0.77301    0.00121     0.77422
      C   14   -0.18679      1.99910     4.17178    0.01591     6.18679
      H   15    0.22468      0.00000     0.77351    0.00181     0.77532
      C   16   -0.34906      1.99900     4.32623    0.02384     6.34906
      C   17   -0.20156      1.99909     4.18719    0.01528     6.20156
      H   18    0.21771      0.00000     0.78042    0.00187     0.78229
      C   19   -0.18932      1.99920     4.17547    0.01466     6.18932
      H   20    0.22443      0.00000     0.77436    0.00122     0.77557
      C   21   -0.17733      1.99920     4.16358    0.01454     6.17733
      H   22    0.22491      0.00000     0.77393    0.00116     0.77509
      C   23   -0.18534      1.99920     4.17150    0.01464     6.18534
      H   24    0.22523      0.00000     0.77354    0.00123     0.77477
      C   25   -0.19168      1.99909     4.17659    0.01599     6.19168
      H   26    0.21619      0.00000     0.78099    0.00282     0.78381
      C   27   -1.01279      1.99943     4.99468    0.01868     7.01279
      H   28    0.26754      0.00000     0.73019    0.00226     0.73246
      H   29    0.27749      0.00000     0.72092    0.00159     0.72251
      C   30   -0.05695      1.99912     4.03900    0.01883     6.05695
      H   31    0.22141      0.00000     0.77654    0.00205     0.77859
      C   32   -0.27002      1.99915     4.25646    0.01441     6.27002
      H   33    0.23257      0.00000     0.76620    0.00123     0.76743
      C   34   -0.25201      1.99917     4.23864    0.01420     6.25201
      H   35    0.23368      0.00000     0.76508    0.00124     0.76632
      C   36   -0.07836      1.99913     4.05854    0.02070     6.07836
      H   37    0.22181      0.00000     0.77578    0.00240     0.77819
      C   38   -0.06493      1.99912     4.04663    0.01918     6.06493
      H   39    0.21349      0.00000     0.78451    0.00200     0.78651
      C   40   -0.25446      1.99916     4.24109    0.01420     6.25446
      H   41    0.23439      0.00000     0.76439    0.00122     0.76561
      C   42   -0.25516      1.99916     4.24179    0.01422     6.25516
      H   43    0.23480      0.00000     0.76398    0.00122     0.76520
      C   44   -0.07473      1.99912     4.05604    0.01957     6.07473
      H   45    0.21294      0.00000     0.78499    0.00207     0.78706
     Rh   46   -0.43586     35.98536     9.41943    0.03106    45.43586
      C   47   -0.17577      1.99907     4.15664    0.02006     6.17577
      C   48   -0.15028      1.99907     4.13091    0.02030     6.15028
      C   49   -0.17047      1.99906     4.15171    0.01969     6.17047
      C   50   -0.14479      1.99907     4.12563    0.02009     6.14479
      C   51   -0.42565      1.99936     4.41443    0.01186     6.42565
      H   52    0.23098      0.00000     0.76730    0.00171     0.76902
      H   53    0.22964      0.00000     0.76720    0.00317     0.77036
      C   54   -0.42079      1.99935     4.40863    0.01281     6.42079
      C   55   -0.42596      1.99936     4.41472    0.01188     6.42596
      H   56    0.22938      0.00000     0.76835    0.00227     0.77062
      C   57   -0.42375      1.99935     4.41189    0.01251     6.42375
      H   58    0.23168      0.00000     0.76605    0.00227     0.76832
      H   59    0.23258      0.00000     0.76597    0.00145     0.76742
      H   60    0.21719      0.00000     0.78086    0.00195     0.78281
      H   61    0.23889      0.00000     0.75924    0.00187     0.76111
      H   62    0.21898      0.00000     0.77945    0.00157     0.78102
      H   63    0.21740      0.00000     0.78060    0.00201     0.78260
      H   64    0.23136      0.00000     0.76717    0.00146     0.76864
      H   65    0.22230      0.00000     0.77622    0.00149     0.77770
      H   66    0.23937      0.00000     0.75878    0.00185     0.76063
 =======================================================================
   * Total *    1.00000    117.95257   175.31469    0.73274   294.00000

 Normal termination of Gaussian 16 at Tue Jan 21 13:24:50 2025.
