 Gaussian 16, Revision B.01,
 Gaussian 16:  ES64L-G16RevB.01 20-Dec-2017

 ------------------------------------------
 # nmr=giao b3lyp/genecp pop=nbo scfcyc=200
 ------------------------------------------

 ---------
 MB-58_SPE
 ---------
 Symbolic Z-matrix:
 Charge =  1 Multiplicity = 1

                         Standard orientation:
 ---------------------------------------------------------------------
 Center     Atomic      Atomic             Coordinates (Angstroms)
 Number     Number       Type             X           Y           Z
 ---------------------------------------------------------------------
      1         45           0        0.231231   -0.982550   -0.635600
      2         15           0       -0.201140    1.272480   -0.022900
      3         15           0       -0.182419   -0.935340    1.702700
      4          6           0        1.335371   -0.757529   -2.580210
      5          1           0        1.778220    0.228371   -2.495020
      6          6           0       -0.002039   -0.824930   -2.906900
      7          1           0       -0.521010    0.116710   -3.045420
      8          6           0       -0.714119   -2.046250   -3.455820
      9          1           0       -0.022668   -2.632350   -4.060710
     10          1           0       -1.500269   -1.716060   -4.136990
     11          6           0       -1.351828   -2.925440   -2.360290
     12          1           0       -2.327558   -2.513501   -2.094250
     13          1           0       -1.547568   -3.930370   -2.755350
     14          6           0       -0.541068   -3.031000   -1.092180
     15          1           0       -1.125368   -3.302740   -0.219840
     16          6           0        0.832472   -3.146219   -0.992110
     17          1           0        1.227752   -3.468159   -0.035330
     18          6           0        1.796182   -3.248539   -2.159190
     19          1           0        1.318242   -3.774029   -2.985890
     20          1           0        2.641212   -3.870008   -1.858670
     21          6           0        2.339221   -1.881899   -2.629740
     22          1           0        3.183701   -1.595848   -1.999170
     23          1           0        2.742181   -1.972518   -3.646300
     24          6           0        2.474409    2.447881    0.127370
     25          6           0        3.106569    2.281462   -1.108630
     26          1           0        2.538739    2.369221   -2.027000
     27          6           0        4.471440    2.028802   -1.184850
     28          1           0        4.942920    1.914353   -2.153190
     29          6           0        5.234750    1.938503   -0.024600
     30          1           0        6.299080    1.750253   -0.085440
     31          6           0        4.622770    2.112452    1.211310
     32          1           0        5.210190    2.066423    2.119980
     33          6           0        3.256599    2.366382    1.283190
     34          1           0        2.797029    2.529122    2.252200
     35          6           0        0.999259    2.740261    0.243460
     36          1           0        0.797699    3.042641    1.274440
     37          6           0        0.447659    3.844530   -0.681490
     38          1           0        0.834228    4.815811   -0.367160
     39          1           0        0.787029    3.687881   -1.708190
     40          6           0       -1.078431    3.792410   -0.627240
     41          1           0       -1.534122    4.467740   -1.354160
     42          1           0       -1.420851    4.110340    0.360030
     43          6           0       -1.509871    2.341850   -0.911610
     44          1           0       -1.308890    2.138620   -1.967160
     45          6           0       -2.946580    1.974679   -0.637840
     46          6           0       -3.646661    2.469239    0.468180
     47          1           0       -3.168101    3.152829    1.158180
     48          6           0       -4.973500    2.113448    0.691140
     49          1           0       -5.500101    2.519598    1.545880
     50          6           0       -5.626420    1.253158   -0.184800
     51          1           0       -6.661220    0.984037   -0.015300
     52          6           0       -4.943500    0.754348   -1.289440
     53          1           0       -5.446810    0.096268   -1.986930
     54          6           0       -3.618850    1.112699   -1.510910
     55          1           0       -3.103890    0.731859   -2.385430
     56          6           0       -0.851410    0.810570    1.669110
     57          1           0       -1.941210    0.784419    1.623050
     58          1           0       -0.552060    1.456300    2.495670
     59          6           0       -2.203569   -1.395121    3.730390
     60          1           0       -1.544099   -1.354550    4.596200
     61          1           0       -3.060909   -2.016211    4.000930
     62          1           0       -2.581499   -0.389921    3.541570
     63          6           0       -1.013028   -3.428400    2.791790
     64          1           0       -0.508118   -3.880430    1.936780
     65          1           0       -1.860938   -4.067111    3.047860
     66          1           0       -0.325818   -3.448510    3.638570
     67          6           0        1.132401   -0.498909    4.240000
     68          1           0        0.446790    0.335600    4.395330
     69          1           0        2.081691   -0.233409    4.711350
     70          1           0        0.739181   -1.364829    4.773440
     71          6           0        2.315451   -2.003079    2.571310
     72          1           0        1.896262   -2.925669    2.974750
     73          1           0        3.251091   -1.812448    3.101480
     74          1           0        2.557412   -2.163029    1.520730
     75          6           0       -1.512289   -2.005820    2.505380
     76          1           0       -2.250889   -2.061141    1.698650
     77          6           0        1.373411   -0.807459    2.758310
     78          1           0        1.862490    0.059601    2.302350
 ---------------------------------------------------------------------

 SCF Done:  E(RB3LYP) =  -2001.42265539     A.U. after   15 cycles

      1  Rh   Isotropic =  -326.3516   Anisotropy =   388.6807

      2  P    Isotropic =   291.2212   Anisotropy =   158.2601

      3  P    Isotropic =   305.3125   Anisotropy =    86.1655

      4  C    Isotropic =    76.8033   Anisotropy =   117.1354

      5  H    Isotropic =    26.2523   Anisotropy =     5.7503

      6  C    Isotropic =    79.2268   Anisotropy =   119.4677

      7  H    Isotropic =    26.9222   Anisotropy =     4.8643

      8  C    Isotropic =   154.4156   Anisotropy =    24.0521

      9  H    Isotropic =    29.8330   Anisotropy =     9.4513

     10  H    Isotropic =    29.8152   Anisotropy =    10.8254

     11  C    Isotropic =   146.9135   Anisotropy =    30.5492

     12  H    Isotropic =    29.1928   Anisotropy =     7.5861

     13  H    Isotropic =    29.1858   Anisotropy =    12.7406

     14  C    Isotropic =    76.5028   Anisotropy =   117.3679

     15  H    Isotropic =    26.6168   Anisotropy =     4.0603

     16  C    Isotropic =    83.8731   Anisotropy =   116.4443

     17  H    Isotropic =    27.3619   Anisotropy =     5.9966

     18  C    Isotropic =   154.6421   Anisotropy =    24.2820

     19  H    Isotropic =    29.9804   Anisotropy =     9.7782

     20  H    Isotropic =    30.0708   Anisotropy =    11.3969

     21  C    Isotropic =   148.4414   Anisotropy =    29.1555

     22  H    Isotropic =    29.5338   Anisotropy =     7.7602

     23  H    Isotropic =    29.2574   Anisotropy =    12.2268

     24  C    Isotropic =    39.9038   Anisotropy =   192.8253

     25  C    Isotropic =    52.8286   Anisotropy =   182.2751

     26  H    Isotropic =    24.4890   Anisotropy =     9.1326

     27  C    Isotropic =    48.7068   Anisotropy =   191.0781

     28  H    Isotropic =    24.0990   Anisotropy =     5.8350

     29  C    Isotropic =    49.1353   Anisotropy =   191.5245

     30  H    Isotropic =    24.1493   Anisotropy =     3.5144

     31  C    Isotropic =    48.8547   Anisotropy =   188.5512

     32  H    Isotropic =    24.2363   Anisotropy =     5.4140

     33  C    Isotropic =    50.0690   Anisotropy =   157.7581

     34  H    Isotropic =    24.6524   Anisotropy =     7.9651

     35  C    Isotropic =   118.0348   Anisotropy =    22.9343

     36  H    Isotropic =    28.5738   Anisotropy =     6.2436

     37  C    Isotropic =   145.0148   Anisotropy =    27.8317

     38  H    Isotropic =    29.4523   Anisotropy =    10.1072

     39  H    Isotropic =    29.7278   Anisotropy =     7.2706

     40  C    Isotropic =   147.7406   Anisotropy =    25.5763

     41  H    Isotropic =    29.4741   Anisotropy =    10.5515

     42  H    Isotropic =    29.6494   Anisotropy =     8.2192

     43  C    Isotropic =   125.5684   Anisotropy =    34.3047

     44  H    Isotropic =    28.2174   Anisotropy =     5.0937

     45  C    Isotropic =    43.7155   Anisotropy =   186.6222

     46  C    Isotropic =    51.9676   Anisotropy =   184.8560

     47  H    Isotropic =    24.4989   Anisotropy =    10.4894

     48  C    Isotropic =    48.8833   Anisotropy =   190.1741

     49  H    Isotropic =    24.0535   Anisotropy =     5.5810

     50  C    Isotropic =    49.0179   Anisotropy =   191.6108

     51  H    Isotropic =    24.1469   Anisotropy =     3.6380

     52  C    Isotropic =    48.7423   Anisotropy =   188.5107

     53  H    Isotropic =    24.1186   Anisotropy =     6.0229

     54  C    Isotropic =    48.7766   Anisotropy =   161.7967

     55  H    Isotropic =    24.3610   Anisotropy =     7.9969

     56  C    Isotropic =   139.9406   Anisotropy =    44.7911

     57  H    Isotropic =    28.9283   Anisotropy =     8.3062

     58  H    Isotropic =    29.4174   Anisotropy =     7.9339

     59  C    Isotropic =   165.2970   Anisotropy =    28.3284

     60  H    Isotropic =    30.9755   Anisotropy =     7.1531

     61  H    Isotropic =    30.9095   Anisotropy =    11.6737

     62  H    Isotropic =    30.9751   Anisotropy =     5.9923

     63  C    Isotropic =   165.1850   Anisotropy =    26.6571

     64  H    Isotropic =    31.2327   Anisotropy =     5.1614

     65  H    Isotropic =    30.6897   Anisotropy =    11.7491

     66  H    Isotropic =    31.0116   Anisotropy =     7.3556

     67  C    Isotropic =   165.5796   Anisotropy =    24.1986

     68  H    Isotropic =    30.5097   Anisotropy =     6.1585

     69  H    Isotropic =    30.5445   Anisotropy =    11.2976

     70  H    Isotropic =    30.8698   Anisotropy =     7.9773

     71  C    Isotropic =   162.1886   Anisotropy =    29.9089

     72  H    Isotropic =    30.8921   Anisotropy =     6.9716

     73  H    Isotropic =    30.7229   Anisotropy =    10.3310

     74  H    Isotropic =    30.5891   Anisotropy =     6.1649

     75  C    Isotropic =   143.5510   Anisotropy =    28.8380

     76  H    Isotropic =    30.4118   Anisotropy =     4.8536

     77  C    Isotropic =   142.6931   Anisotropy =    28.4149

     78  H    Isotropic =    29.8264   Anisotropy =     9.7051

 The electronic state is 1-A.
 Alpha  occ. eigenvalues --  -77.23104 -77.22937 -10.30545 -10.30491 -10.30386
 Alpha  occ. eigenvalues --  -10.30207 -10.30164 -10.29473 -10.29212 -10.29138
 Alpha  occ. eigenvalues --  -10.28928 -10.28775 -10.28648 -10.28165 -10.28116
 Alpha  occ. eigenvalues --  -10.27738 -10.27567 -10.27556 -10.27406 -10.27242
 Alpha  occ. eigenvalues --  -10.27238 -10.27179 -10.27155 -10.27152 -10.27067
 Alpha  occ. eigenvalues --  -10.26904 -10.26877 -10.26876 -10.26842 -10.26823
 Alpha  occ. eigenvalues --  -10.26667 -10.26622 -10.26551  -6.69122  -6.68986
 Alpha  occ. eigenvalues --   -4.85399  -4.85320  -4.85279  -4.85172  -4.85019
 Alpha  occ. eigenvalues --   -4.84888  -3.31733  -2.08616  -2.07939  -2.05201
 Alpha  occ. eigenvalues --   -0.96874  -0.95997  -0.94677  -0.93558  -0.92265
 Alpha  occ. eigenvalues --   -0.89602  -0.89368  -0.88277  -0.88221  -0.86261
 Alpha  occ. eigenvalues --   -0.85052  -0.84471  -0.84414  -0.80590  -0.80200
 Alpha  occ. eigenvalues --   -0.79882  -0.79247  -0.78087  -0.77982  -0.74218
 Alpha  occ. eigenvalues --   -0.71708  -0.70765  -0.70542  -0.70318  -0.70020
 Alpha  occ. eigenvalues --   -0.69692  -0.67067  -0.66127  -0.65309  -0.64413
 Alpha  occ. eigenvalues --   -0.62711  -0.61755  -0.61360  -0.60378  -0.58474
 Alpha  occ. eigenvalues --   -0.57919  -0.57677  -0.56975  -0.56812  -0.56466
 Alpha  occ. eigenvalues --   -0.56435  -0.55252  -0.55087  -0.54718  -0.54612
 Alpha  occ. eigenvalues --   -0.53960  -0.53779  -0.53493  -0.52899  -0.52844
 Alpha  occ. eigenvalues --   -0.52512  -0.52272  -0.51803  -0.51347  -0.51171
 Alpha  occ. eigenvalues --   -0.50285  -0.50211  -0.49478  -0.48664  -0.48416
 Alpha  occ. eigenvalues --   -0.48304  -0.47954  -0.47886  -0.47251  -0.46726
 Alpha  occ. eigenvalues --   -0.46490  -0.46358  -0.46097  -0.46012  -0.45659
 Alpha  occ. eigenvalues --   -0.45456  -0.45280  -0.44446  -0.44024  -0.43874
 Alpha  occ. eigenvalues --   -0.43686  -0.43473  -0.43325  -0.43019  -0.42443
 Alpha  occ. eigenvalues --   -0.42088  -0.40950  -0.40872  -0.37331  -0.36553
 Alpha  occ. eigenvalues --   -0.35362  -0.35310  -0.35229  -0.34843  -0.34498
 Alpha  occ. eigenvalues --   -0.34099  -0.33418  -0.30978
 Alpha virt. eigenvalues --   -0.16505  -0.14379  -0.12052  -0.11213  -0.10949
 Alpha virt. eigenvalues --   -0.10643  -0.09478  -0.08776  -0.08483  -0.08117
 Alpha virt. eigenvalues --   -0.07767  -0.06866  -0.06200  -0.05953  -0.05345

 Mulliken charges:
               1
     1  Rh  -0.487958
     2  P    0.458599
     3  P    0.369199
     4  C   -0.015025
     5  H    0.143872
     6  C   -0.040997
     7  H    0.169212
     8  C   -0.368108
     9  H    0.171923
    10  H    0.166506
    11  C   -0.216873
    12  H    0.129031
    13  H    0.171702
    14  C   -0.104893
    15  H    0.183156
    16  C   -0.040374
    17  H    0.182382
    18  C   -0.355013
    19  H    0.166482
    20  H    0.169263
    21  C   -0.238640
    22  H    0.138388
    23  H    0.170459
    24  C    0.194149
    25  C   -0.204160
    26  H    0.139118
    27  C   -0.100205
    28  H    0.127685
    29  C   -0.115265
    30  H    0.132712
    31  C   -0.073875
    32  H    0.127782
    33  C   -0.196894
    34  H    0.122814
    35  C   -0.348107
    36  H    0.205236
    37  C   -0.283184
    38  H    0.162013
    39  H    0.162852
    40  C   -0.263897
    41  H    0.163444
    42  H    0.152749
    43  C   -0.326439
    44  H    0.217628
    45  C    0.044953
    46  C   -0.165012
    47  H    0.125833
    48  C   -0.093357
    49  H    0.128636
    50  C   -0.104395
    51  H    0.134348
    52  C   -0.109159
    53  H    0.126323
    54  C   -0.113696
    55  H    0.110404
    56  C   -0.582278
    57  H    0.242981
    58  H    0.193167
    59  C   -0.354958
    60  H    0.144790
    61  H    0.151337
    62  H    0.133999
    63  C   -0.424189
    64  H    0.145092
    65  H    0.159123
    66  H    0.144856
    67  C   -0.382407
    68  H    0.134325
    69  H    0.152476
    70  H    0.138868
    71  C   -0.408572
    72  H    0.145622
    73  H    0.151749
    74  H    0.140002
    75  C   -0.188065
    76  H    0.162109
    77  C   -0.118105
    78  H    0.114754
 Sum of Mulliken charges =   1.00000

 Dipole moment (field-independent basis, Debye):
    X=             -0.3841    Y=             -0.9991    Z=              1.4456  Tot=              1.7988
 Quadrupole moment (field-independent basis, Debye-Ang):
   XX=           -195.5158   YY=           -204.8471   ZZ=           -197.5890
   XY=              0.3273   XZ=             -2.4387   YZ=              2.7172

 Summary of Natural Population Analysis:

                                       Natural Population
                Natural  -----------------------------------------------
    Atom  No    Charge         Core      Valence    Rydberg      Total
 -----------------------------------------------------------------------
     Rh    1   -0.35457     35.98567     9.33993    0.02897    45.35457
      P    2    1.05182      9.99689     3.90549    0.04580    13.94818
      P    3    1.09955      9.99680     3.85683    0.04682    13.90045
      C    4   -0.16527      1.99908     4.14619    0.01999     6.16527
      H    5    0.22739      0.00000     0.77033    0.00228     0.77261
      C    6   -0.17342      1.99907     4.15494    0.01940     6.17342
      H    7    0.21593      0.00000     0.78196    0.00212     0.78407
      C    8   -0.42370      1.99936     4.41237    0.01197     6.42370
      H    9    0.21599      0.00000     0.78205    0.00197     0.78401
      H   10    0.22659      0.00000     0.77193    0.00148     0.77341
      C   11   -0.41825      1.99935     4.40617    0.01273     6.41825
      H   12    0.21693      0.00000     0.78137    0.00170     0.78307
      H   13    0.23303      0.00000     0.76508    0.00189     0.76697
      C   14   -0.15089      1.99908     4.13178    0.02002     6.15089
      H   15    0.22031      0.00000     0.77756    0.00212     0.77969
      C   16   -0.19185      1.99908     4.17312    0.01966     6.19185
      H   17    0.22372      0.00000     0.77415    0.00212     0.77628
      C   18   -0.42229      1.99936     4.41107    0.01187     6.42229
      H   19    0.21462      0.00000     0.78340    0.00198     0.78538
      H   20    0.22857      0.00000     0.76992    0.00150     0.77143
      C   21   -0.41933      1.99935     4.40727    0.01271     6.41933
      H   22    0.22015      0.00000     0.77811    0.00175     0.77985
      H   23    0.23310      0.00000     0.76501    0.00189     0.76690
      C   24   -0.04200      1.99907     4.02276    0.02017     6.04200
      C   25   -0.20926      1.99908     4.19613    0.01405     6.20926
      H   26    0.20226      0.00000     0.79547    0.00226     0.79774
      C   27   -0.19001      1.99921     4.17608    0.01472     6.19001
      H   28    0.21754      0.00000     0.78120    0.00126     0.78246
      C   29   -0.19827      1.99920     4.18431    0.01476     6.19827
      H   30    0.22044      0.00000     0.77836    0.00120     0.77956
      C   31   -0.19107      1.99920     4.17714    0.01473     6.19107
      H   32    0.21816      0.00000     0.78061    0.00123     0.78184
      C   33   -0.20835      1.99911     4.19461    0.01463     6.20835
      H   34    0.20353      0.00000     0.79471    0.00176     0.79647
      C   35   -0.45256      1.99930     4.43483    0.01844     6.45256
      H   36    0.22440      0.00000     0.77218    0.00342     0.77560
      C   37   -0.38799      1.99939     4.37727    0.01133     6.38799
      H   38    0.23340      0.00000     0.76507    0.00153     0.76660
      H   39    0.20238      0.00000     0.79603    0.00159     0.79762
      C   40   -0.38948      1.99938     4.37858    0.01152     6.38948
      H   41    0.23282      0.00000     0.76560    0.00158     0.76718
      H   42    0.19865      0.00000     0.79964    0.00171     0.80135
      C   43   -0.45128      1.99931     4.43439    0.01758     6.45128
      H   44    0.22800      0.00000     0.76948    0.00252     0.77200
      C   45   -0.04645      1.99906     4.02717    0.02022     6.04645
      C   46   -0.21747      1.99909     4.20417    0.01421     6.21747
      H   47    0.20680      0.00000     0.79140    0.00180     0.79320
      C   48   -0.19175      1.99921     4.17764    0.01490     6.19175
      H   49    0.21876      0.00000     0.78000    0.00124     0.78124
      C   50   -0.19758      1.99920     4.18361    0.01477     6.19758
      H   51    0.22064      0.00000     0.77816    0.00120     0.77936
      C   52   -0.19120      1.99920     4.17746    0.01454     6.19120
      H   53    0.21780      0.00000     0.78097    0.00123     0.78220
      C   54   -0.19658      1.99911     4.18290    0.01456     6.19658
      H   55    0.20439      0.00000     0.79377    0.00184     0.79561
      C   56   -1.00830      1.99943     4.99168    0.01719     7.00830
      H   57    0.27239      0.00000     0.72512    0.00248     0.72761
      H   58    0.24622      0.00000     0.75133    0.00245     0.75378
      C   59   -0.59775      1.99941     4.59065    0.00769     6.59775
      H   60    0.20885      0.00000     0.78951    0.00164     0.79115
      H   61    0.22363      0.00000     0.77489    0.00148     0.77637
      H   62    0.20830      0.00000     0.79032    0.00138     0.79170
      C   63   -0.59799      1.99941     4.59108    0.00750     6.59799
      H   64    0.20838      0.00000     0.79010    0.00151     0.79162
      H   65    0.22511      0.00000     0.77339    0.00150     0.77489
      H   66    0.20701      0.00000     0.79119    0.00180     0.79299
      C   67   -0.59968      1.99941     4.59252    0.00775     6.59968
      H   68    0.20540      0.00000     0.79289    0.00172     0.79460
      H   69    0.22289      0.00000     0.77560    0.00151     0.77711
      H   70    0.20678      0.00000     0.79145    0.00177     0.79322
      C   71   -0.59258      1.99941     4.58600    0.00717     6.59258
      H   72    0.20530      0.00000     0.79309    0.00162     0.79470
      H   73    0.22132      0.00000     0.77714    0.00154     0.77868
      H   74    0.21619      0.00000     0.78239    0.00142     0.78381
      C   75   -0.46477      1.99940     4.45095    0.01442     6.46477
      H   76    0.22496      0.00000     0.77317    0.00187     0.77504
      C   77   -0.46791      1.99940     4.45258    0.01593     6.46791
      H   78    0.22945      0.00000     0.76812    0.00243     0.77055
 =======================================================================
   * Total *    1.00000    117.95609   185.39289    0.65101   304.00000

 Normal termination of Gaussian 16 at Tue Jan 21 14:10:26 2025.
