 Gaussian 16, Revision B.01,
 Gaussian 16:  ES64L-G16RevB.01 20-Dec-2017

 ------------------------------------------
 # nmr=giao b3lyp/genecp pop=nbo scfcyc=200
 ------------------------------------------

 ---------
 MB-68_SPE
 ---------
 Symbolic Z-matrix:
 Charge =  1 Multiplicity = 1

                         Standard orientation:
 ---------------------------------------------------------------------
 Center     Atomic      Atomic             Coordinates (Angstroms)
 Number     Number       Type             X           Y           Z
 ---------------------------------------------------------------------
      1         15           0        1.423899    0.495320    0.568520
      2          6           0        2.831539    0.013111    1.656050
      3          6           0        2.631680   -0.920539    2.679350
      4          6           0        3.699100   -1.347458    3.459520
      5          6           0        4.980770   -0.861317    3.216630
      6          6           0        5.190019    0.051333    2.189200
      7          6           0        4.123059    0.487302    1.409280
      8          1           0        4.301148    1.204472    0.618990
      9          1           0        6.184999    0.430654    1.993150
     10          1           0        5.811880   -1.195256    3.824630
     11          1           0        3.530390   -2.061228    4.256060
     12          1           0        1.645660   -1.325510    2.873140
     13          6           0        1.873177    2.121651   -0.157360
     14          6           0        1.880037    2.279191   -1.544240
     15          6           0        2.207056    3.509031   -2.108330
     16          6           0        2.525716    4.586441   -1.290550
     17          6           0        2.517616    4.436801    0.094840
     18          6           0        2.193367    3.211181    0.661240
     19          1           0        2.201697    3.104781    1.739570
     20          1           0        2.766365    5.275401    0.733040
     21          1           0        2.780675    5.543041   -1.729030
     22          1           0        2.210446    3.623791   -3.184910
     23          1           0        1.620148    1.443210   -2.181320
     24          6           0       -0.062642    0.824449    1.656540
     25         15           0       -1.338221    0.187238    0.439650
     26          6           0       -2.053802    1.680778   -0.368600
     27          6           0       -2.328813    2.851817    0.346010
     28          6           0       -2.899924    3.947017   -0.291490
     29          6           0       -3.204774    3.886627   -1.648020
     30          6           0       -2.930103    2.729387   -2.368050
     31          6           0       -2.353972    1.634397   -1.733130
     32          1           0       -2.127512    0.744688   -2.305810
     33          1           0       -3.158903    2.679407   -3.425210
     34          1           0       -3.649965    4.740996   -2.142040
     35          1           0       -3.106735    4.848147    0.272110
     36          1           0       -2.099203    2.922258    1.401370
     37          1           0       -0.035541    0.153349    2.515390
     38          1           0       -0.172152    1.848489    2.009320
     39         45           0        0.288230   -1.082531   -0.764710
     40          6           0        1.910260   -1.858389   -2.141140
     41          6           0        2.004121   -2.517209   -0.930140
     42          6           0       -0.844559   -3.006421   -1.254840
     43          6           0       -0.988069   -2.128252   -2.307280
     44          6           0        1.310411   -2.430110   -3.412930
     45          1           0        2.559360   -0.999799   -2.278130
     46          1           0        2.739021   -2.148779   -0.222820
     47          6           0        1.467092   -3.888410   -0.603210
     48          6           0        0.090942   -4.200221   -1.225470
     49          1           0       -1.634479   -3.018522   -0.512620
     50          6           0       -0.191699   -2.116001   -3.588650
     51          1           0       -1.902410   -1.544582   -2.339370
     52          1           0        1.850370   -2.017749   -4.266780
     53          1           0        1.479232   -3.506350   -3.445610
     54          1           0        2.194802   -4.651229   -0.907470
     55          1           0        1.394672   -3.964190    0.483880
     56          1           0        0.209152   -4.595511   -2.234040
     57          1           0       -0.380907   -4.995211   -0.645510
     58          1           0       -0.298500   -1.125101   -4.036000
     59          1           0       -0.634869   -2.815721   -4.308120
     60          6           0       -2.709661   -0.607803    1.450490
     61          6           0       -3.239421    0.258097    2.604570
     62          6           0       -3.862350   -1.080564    0.546330
     63          1           0       -2.216260   -1.491512    1.874030
     64          6           0       -4.301441   -0.501004    3.415310
     65          1           0       -3.687222    1.169366    2.197820
     66          1           0       -2.424731    0.567927    3.264380
     67          6           0       -4.928360   -1.831325    1.357980
     68          1           0       -4.321081   -0.210874    0.065570
     69          1           0       -3.488660   -1.721823   -0.256110
     70          6           0       -5.448320   -0.988985    2.525970
     71          1           0       -4.682671    0.146926    4.208120
     72          1           0       -3.832930   -1.357974    3.912140
     73          1           0       -5.751059   -2.117295    0.698450
     74          1           0       -4.499219   -2.763344    1.742820
     75          1           0       -6.162560   -1.566695    3.116870
     76          1           0       -5.996241   -0.124765    2.134220
 ---------------------------------------------------------------------

 SCF Done:  E(RB3LYP) =  -2075.24303538     A.U. after   16 cycles

      1  P    Isotropic =   311.7713   Anisotropy =   103.4428

      2  C    Isotropic =    43.6868   Anisotropy =   169.5645

      3  C    Isotropic =    49.8206   Anisotropy =   186.6126

      4  C    Isotropic =    48.8744   Anisotropy =   189.6533

      5  C    Isotropic =    46.3305   Anisotropy =   196.1515

      6  C    Isotropic =    48.6287   Anisotropy =   190.3845

      7  C    Isotropic =    46.9554   Anisotropy =   192.0138

      8  H    Isotropic =    25.1139   Anisotropy =    12.9225

      9  H    Isotropic =    24.3666   Anisotropy =     6.4777

     10  H    Isotropic =    24.0840   Anisotropy =     3.7089

     11  H    Isotropic =    23.9759   Anisotropy =     6.5840

     12  H    Isotropic =    23.9342   Anisotropy =    10.7130

     13  C    Isotropic =    47.0245   Anisotropy =   173.6282

     14  C    Isotropic =    40.9370   Anisotropy =   182.3972

     15  C    Isotropic =    49.7505   Anisotropy =   189.2879

     16  C    Isotropic =    44.8861   Anisotropy =   199.8753

     17  C    Isotropic =    48.3051   Anisotropy =   191.7051

     18  C    Isotropic =    46.6583   Anisotropy =   189.7158

     19  H    Isotropic =    24.5110   Anisotropy =    11.1600

     20  H    Isotropic =    24.2898   Anisotropy =     5.5804

     21  H    Isotropic =    24.2047   Anisotropy =     3.5372

     22  H    Isotropic =    24.4592   Anisotropy =     6.6117

     23  H    Isotropic =    23.9342   Anisotropy =     9.6114

     24  C    Isotropic =   135.6421   Anisotropy =    41.3964

     25  P    Isotropic =   317.7192   Anisotropy =    69.6947

     26  C    Isotropic =    49.6236   Anisotropy =   175.3563

     27  C    Isotropic =    47.7027   Anisotropy =   191.0075

     28  C    Isotropic =    49.5334   Anisotropy =   190.7800

     29  C    Isotropic =    45.6249   Anisotropy =   198.5488

     30  C    Isotropic =    49.6932   Anisotropy =   188.9618

     31  C    Isotropic =    42.8592   Anisotropy =   182.6496

     32  H    Isotropic =    24.0682   Anisotropy =     9.4689

     33  H    Isotropic =    24.2405   Anisotropy =     6.3656

     34  H    Isotropic =    24.2430   Anisotropy =     3.2846

     35  H    Isotropic =    24.4455   Anisotropy =     5.7240

     36  H    Isotropic =    24.7149   Anisotropy =     9.9706

     37  H    Isotropic =    28.0549   Anisotropy =     3.3362

     38  H    Isotropic =    28.3702   Anisotropy =     9.0484

     39  Rh   Isotropic =  -314.0582   Anisotropy =   345.3441

     40  C    Isotropic =    83.2501   Anisotropy =   115.1728

     41  C    Isotropic =    73.9007   Anisotropy =   121.3994

     42  C    Isotropic =    75.3259   Anisotropy =   127.0095

     43  C    Isotropic =    79.9313   Anisotropy =   112.1247

     44  C    Isotropic =   154.2132   Anisotropy =    25.0493

     45  H    Isotropic =    27.1889   Anisotropy =     7.1085

     46  H    Isotropic =    27.4266   Anisotropy =     5.3366

     47  C    Isotropic =   147.7704   Anisotropy =    29.7239

     48  C    Isotropic =   153.3113   Anisotropy =    25.9026

     49  H    Isotropic =    26.4420   Anisotropy =     6.2674

     50  C    Isotropic =   148.0191   Anisotropy =    29.6062

     51  H    Isotropic =    25.9833   Anisotropy =     4.1589

     52  H    Isotropic =    29.7816   Anisotropy =    11.8691

     53  H    Isotropic =    29.7606   Anisotropy =     9.5512

     54  H    Isotropic =    29.3032   Anisotropy =    12.2701

     55  H    Isotropic =    29.1964   Anisotropy =     7.4318

     56  H    Isotropic =    29.6765   Anisotropy =     9.3854

     57  H    Isotropic =    29.7487   Anisotropy =    11.1723

     58  H    Isotropic =    28.9182   Anisotropy =     8.3915

     59  H    Isotropic =    28.9456   Anisotropy =    12.6598

     60  C    Isotropic =   132.5962   Anisotropy =    32.8804

     61  C    Isotropic =   155.0907   Anisotropy =    10.3222

     62  C    Isotropic =   153.4673   Anisotropy =    12.1730

     63  H    Isotropic =    29.9135   Anisotropy =     4.1872

     64  C    Isotropic =   154.3352   Anisotropy =     8.3496

     65  H    Isotropic =    30.6688   Anisotropy =     6.8150

     66  H    Isotropic =    30.2092   Anisotropy =     5.1536

     67  C    Isotropic =   154.5549   Anisotropy =     8.3744

     68  H    Isotropic =    31.2309   Anisotropy =     6.1763

     69  H    Isotropic =    30.6518   Anisotropy =     8.3748

     70  C    Isotropic =   156.3305   Anisotropy =     1.9725

     71  H    Isotropic =    30.0282   Anisotropy =    10.9244

     72  H    Isotropic =    30.5189   Anisotropy =     8.5094

     73  H    Isotropic =    30.1898   Anisotropy =    10.4328

     74  H    Isotropic =    30.5708   Anisotropy =     7.9109

     75  H    Isotropic =    30.2159   Anisotropy =    11.9680

     76  H    Isotropic =    30.8562   Anisotropy =     8.5435

 The electronic state is 1-A.
 Alpha  occ. eigenvalues --  -77.23923 -77.23179 -10.30359 -10.29766 -10.29593
 Alpha  occ. eigenvalues --  -10.29518 -10.29455 -10.29298 -10.29183 -10.29038
 Alpha  occ. eigenvalues --  -10.28827 -10.28566 -10.28483 -10.28437 -10.28405
 Alpha  occ. eigenvalues --  -10.28331 -10.28223 -10.27772 -10.27701 -10.27697
 Alpha  occ. eigenvalues --  -10.27688 -10.27637 -10.27623 -10.27586 -10.27552
 Alpha  occ. eigenvalues --  -10.27543 -10.27530 -10.27496 -10.27419 -10.27358
 Alpha  occ. eigenvalues --  -10.26896 -10.26820 -10.25406 -10.25394 -10.24758
 Alpha  occ. eigenvalues --   -6.69903  -6.69191  -4.86185  -4.86126  -4.85804
 Alpha  occ. eigenvalues --   -4.85493  -4.85379  -4.85093  -3.31669  -2.08560
 Alpha  occ. eigenvalues --   -2.07889  -2.05126  -0.96926  -0.96480  -0.96214
 Alpha  occ. eigenvalues --   -0.94578  -0.93459  -0.89494  -0.89268  -0.88128
 Alpha  occ. eigenvalues --   -0.86968  -0.85451  -0.85413  -0.85326  -0.85007
 Alpha  occ. eigenvalues --   -0.84447  -0.83948  -0.83407  -0.80454  -0.77920
 Alpha  occ. eigenvalues --   -0.75448  -0.73328  -0.71398  -0.71241  -0.71014
 Alpha  occ. eigenvalues --   -0.70702  -0.70561  -0.70474  -0.70353  -0.67021
 Alpha  occ. eigenvalues --   -0.66369  -0.65997  -0.65163  -0.62668  -0.62571
 Alpha  occ. eigenvalues --   -0.61854  -0.60924  -0.60192  -0.57838  -0.57134
 Alpha  occ. eigenvalues --   -0.57054  -0.56344  -0.56278  -0.56047  -0.55777
 Alpha  occ. eigenvalues --   -0.55563  -0.55224  -0.54980  -0.54421  -0.53742
 Alpha  occ. eigenvalues --   -0.53648  -0.53308  -0.52887  -0.52759  -0.52757
 Alpha  occ. eigenvalues --   -0.52672  -0.52602  -0.52022  -0.50629  -0.49415
 Alpha  occ. eigenvalues --   -0.48867  -0.48595  -0.48181  -0.47903  -0.47776
 Alpha  occ. eigenvalues --   -0.47573  -0.47343  -0.46715  -0.46286  -0.46073
 Alpha  occ. eigenvalues --   -0.45681  -0.45315  -0.45249  -0.45187  -0.44084
 Alpha  occ. eigenvalues --   -0.43924  -0.43760  -0.43577  -0.43280  -0.43201
 Alpha  occ. eigenvalues --   -0.42612  -0.41687  -0.41136  -0.39904  -0.39740
 Alpha  occ. eigenvalues --   -0.38080  -0.37003  -0.36645  -0.36384  -0.36031
 Alpha  occ. eigenvalues --   -0.35863  -0.35680  -0.35280  -0.34725  -0.34651
 Alpha  occ. eigenvalues --   -0.33927  -0.30850
 Alpha virt. eigenvalues --   -0.16394  -0.14767  -0.13740  -0.12873  -0.12383
 Alpha virt. eigenvalues --   -0.11934  -0.11294  -0.10839  -0.09430  -0.08045
 Alpha virt. eigenvalues --   -0.07447  -0.06723  -0.06406  -0.05804  -0.05449

 Mulliken charges:
               1
     1  P    0.356052
     2  C   -0.158142
     3  C   -0.077597
     4  C   -0.098810
     5  C   -0.096622
     6  C   -0.099407
     7  C   -0.067947
     8  H    0.160318
     9  H    0.136383
    10  H    0.140887
    11  H    0.132489
    12  H    0.123454
    13  C   -0.227909
    14  C   -0.010514
    15  C   -0.109587
    16  C   -0.094231
    17  C   -0.083214
    18  C   -0.099910
    19  H    0.147193
    20  H    0.136334
    21  H    0.140224
    22  H    0.130534
    23  H    0.141446
    24  C   -0.598451
    25  P    0.324756
    26  C   -0.135164
    27  C   -0.090420
    28  C   -0.094181
    29  C   -0.092619
    30  C   -0.109092
    31  C   -0.045427
    32  H    0.114745
    33  H    0.128803
    34  H    0.140475
    35  H    0.132199
    36  H    0.139489
    37  H    0.202516
    38  H    0.213921
    39  Rh  -0.508593
    40  C   -0.010671
    41  C   -0.112628
    42  C   -0.019765
    43  C   -0.094459
    44  C   -0.345057
    45  H    0.180041
    46  H    0.224795
    47  C   -0.233196
    48  C   -0.347693
    49  H    0.180107
    50  C   -0.239167
    51  H    0.181504
    52  H    0.169294
    53  H    0.167544
    54  H    0.170651
    55  H    0.132191
    56  H    0.168469
    57  H    0.168555
    58  H    0.131441
    59  H    0.173184
    60  C   -0.137401
    61  C   -0.257107
    62  C   -0.300320
    63  H    0.157641
    64  C   -0.245542
    65  H    0.140110
    66  H    0.135053
    67  C   -0.239394
    68  H    0.155701
    69  H    0.135023
    70  C   -0.232347
    71  H    0.147121
    72  H    0.119104
    73  H    0.146999
    74  H    0.117180
    75  H    0.148671
    76  H    0.119978
 Sum of Mulliken charges =   1.00000

 Dipole moment (field-independent basis, Debye):
    X=              0.5214    Y=              0.4520    Z=              0.2112  Tot=              0.7217
 Quadrupole moment (field-independent basis, Debye-Ang):
   XX=           -196.6858   YY=           -195.1124   ZZ=           -206.5252
   XY=             -0.9895   XZ=              3.5032   YZ=             -2.2967

 Summary of Natural Population Analysis:

                                       Natural Population
                Natural  -----------------------------------------------
    Atom  No    Charge         Core      Valence    Rydberg      Total
 -----------------------------------------------------------------------
      P    1    1.13269      9.99645     3.82002    0.05084    13.86731
      C    2   -0.34266      1.99899     4.31991    0.02376     6.34266
      C    3   -0.19843      1.99909     4.18395    0.01538     6.19843
      C    4   -0.19118      1.99920     4.17722    0.01476     6.19118
      C    5   -0.18011      1.99920     4.16620    0.01471     6.18011
      C    6   -0.18829      1.99920     4.17439    0.01470     6.18829
      C    7   -0.19464      1.99910     4.18030    0.01525     6.19464
      H    8    0.22398      0.00000     0.77429    0.00174     0.77602
      H    9    0.22357      0.00000     0.77522    0.00121     0.77643
      H   10    0.22369      0.00000     0.77514    0.00117     0.77631
      H   11    0.22184      0.00000     0.77693    0.00123     0.77816
      H   12    0.20693      0.00000     0.79090    0.00217     0.79307
      C   13   -0.35102      1.99900     4.32751    0.02451     6.35102
      C   14   -0.17683      1.99909     4.16231    0.01542     6.17683
      C   15   -0.19534      1.99920     4.18161    0.01454     6.19534
      C   16   -0.17321      1.99921     4.15951    0.01449     6.17321
      C   17   -0.19265      1.99920     4.17886    0.01459     6.19265
      C   18   -0.19011      1.99909     4.17504    0.01598     6.19011
      H   19    0.21604      0.00000     0.78190    0.00206     0.78396
      H   20    0.22318      0.00000     0.77559    0.00124     0.77682
      H   21    0.22292      0.00000     0.77590    0.00117     0.77708
      H   22    0.22149      0.00000     0.77729    0.00122     0.77851
      H   23    0.22039      0.00000     0.77763    0.00198     0.77961
      C   24   -0.97592      1.99943     4.95899    0.01750     6.97592
      P   25    1.10445      9.99670     3.85020    0.04865    13.89555
      C   26   -0.34588      1.99899     4.32279    0.02411     6.34588
      C   27   -0.19353      1.99909     4.17855    0.01589     6.19353
      C   28   -0.19124      1.99920     4.17743    0.01461     6.19124
      C   29   -0.17611      1.99920     4.16235    0.01455     6.17611
      C   30   -0.19472      1.99920     4.18094    0.01459     6.19472
      C   31   -0.18271      1.99910     4.16834    0.01527     6.18271
      H   32    0.21255      0.00000     0.78547    0.00198     0.78745
      H   33    0.22102      0.00000     0.77775    0.00123     0.77898
      H   34    0.22272      0.00000     0.77611    0.00118     0.77728
      H   35    0.22206      0.00000     0.77670    0.00124     0.77794
      H   36    0.20917      0.00000     0.78850    0.00233     0.79083
      H   37    0.25631      0.00000     0.74200    0.00169     0.74369
      H   38    0.25321      0.00000     0.74474    0.00205     0.74679
     Rh   39   -0.39459     35.98586     9.37846    0.03027    45.39459
      C   40   -0.18282      1.99906     4.16429    0.01947     6.18282
      C   41   -0.15025      1.99907     4.13159    0.01959     6.15025
      C   42   -0.15834      1.99906     4.13967    0.01961     6.15834
      C   43   -0.17410      1.99907     4.15491    0.02012     6.17410
      C   44   -0.42235      1.99936     4.41128    0.01171     6.42235
      H   45    0.22528      0.00000     0.77272    0.00200     0.77472
      H   46    0.23159      0.00000     0.76644    0.00197     0.76841
      C   47   -0.41767      1.99935     4.40573    0.01259     6.41767
      C   48   -0.42499      1.99936     4.41366    0.01197     6.42499
      H   49    0.22241      0.00000     0.77550    0.00209     0.77759
      C   50   -0.41980      1.99936     4.40810    0.01235     6.41980
      H   51    0.22220      0.00000     0.77572    0.00208     0.77780
      H   52    0.22835      0.00000     0.77016    0.00149     0.77165
      H   53    0.21492      0.00000     0.78312    0.00195     0.78508
      H   54    0.23349      0.00000     0.76461    0.00190     0.76651
      H   55    0.21606      0.00000     0.78233    0.00161     0.78394
      H   56    0.21516      0.00000     0.78285    0.00199     0.78484
      H   57    0.22840      0.00000     0.77013    0.00147     0.77160
      H   58    0.21750      0.00000     0.78101    0.00148     0.78250
      H   59    0.23373      0.00000     0.76434    0.00193     0.76627
      C   60   -0.45777      1.99936     4.44197    0.01644     6.45777
      C   61   -0.39717      1.99938     4.38707    0.01072     6.39717
      C   62   -0.39429      1.99937     4.38476    0.01015     6.39429
      H   63    0.21857      0.00000     0.77873    0.00271     0.78143
      C   64   -0.38118      1.99942     4.37208    0.00969     6.38118
      H   65    0.20226      0.00000     0.79523    0.00251     0.79774
      H   66    0.20096      0.00000     0.79715    0.00189     0.79904
      C   67   -0.38187      1.99942     4.37274    0.00971     6.38187
      H   68    0.20465      0.00000     0.79302    0.00233     0.79535
      H   69    0.20155      0.00000     0.79637    0.00208     0.79845
      C   70   -0.38999      1.99942     4.38102    0.00955     6.38999
      H   71    0.21575      0.00000     0.78287    0.00138     0.78425
      H   72    0.19229      0.00000     0.80583    0.00188     0.80771
      H   73    0.21571      0.00000     0.78290    0.00138     0.78429
      H   74    0.19161      0.00000     0.80650    0.00189     0.80839
      H   75    0.21603      0.00000     0.78263    0.00134     0.78397
      H   76    0.19505      0.00000     0.80316    0.00179     0.80495
 =======================================================================
   * Total *    1.00000    121.95283   189.33911    0.70806   312.00000

 Normal termination of Gaussian 16 at Tue Jan 21 15:18:45 2025.
