 Gaussian 16, Revision B.01,
 Gaussian 16:  ES64L-G16RevB.01 20-Dec-2017

 ------------------------------------------
 # nmr=giao b3lyp/genecp pop=nbo scfcyc=200
 ------------------------------------------

 ---------
 MB-62_SPE
 ---------
 Symbolic Z-matrix:
 Charge =  1 Multiplicity = 1

                         Standard orientation:
 ---------------------------------------------------------------------
 Center     Atomic      Atomic             Coordinates (Angstroms)
 Number     Number       Type             X           Y           Z
 ---------------------------------------------------------------------
      1         15           0        1.685511   -1.394639    0.395619
      2         15           0       -0.908200   -0.235410    0.179389
      3          6           0       -0.098999   -1.786419    0.837429
      4          1           0       -0.503949   -2.697579    0.404479
      5          1           0       -0.201739   -1.861059    1.916019
      6          6           0        2.179791   -2.701859   -0.925831
      7          6           0        1.183031   -2.543839   -2.087731
      8          1           0        1.489131   -3.205009   -2.902471
      9          1           0        1.166221   -1.523769   -2.474361
     10          1           0        0.165001   -2.818669   -1.812881
     11          6           0        3.589821   -2.411009   -1.466441
     12          1           0        4.365691   -2.507318   -0.710151
     13          1           0        3.660241   -1.416909   -1.907311
     14          1           0        3.815651   -3.130809   -2.257501
     15          6           0        2.118671   -4.143639   -0.400421
     16          1           0        2.225301   -4.830599   -1.244451
     17          1           0        1.170531   -4.376129    0.087379
     18          1           0        2.927161   -4.363699    0.295149
     19          6           0        2.623611   -1.610829    2.067519
     20          6           0        4.143441   -1.539688    1.847019
     21          1           0        4.443801   -0.679678    1.246789
     22          1           0        4.532331   -2.439808    1.372749
     23          1           0        4.638151   -1.448468    2.817429
     24          6           0        2.281861   -2.920039    2.797769
     25          1           0        2.780601   -2.914759    3.770939
     26          1           0        2.624321   -3.803009    2.263789
     27          1           0        1.214011   -3.031989    2.989769
     28          6           0        2.191421   -0.427459    2.954909
     29          1           0        1.122731   -0.437129    3.175309
     30          1           0        2.429070    0.533531    2.499769
     31          1           0        2.718441   -0.493059    3.910449
     32          6           0       -1.921229   -0.773270   -1.260191
     33          6           0       -2.926789   -1.752160   -1.129891
     34          6           0       -3.688769   -2.117150   -2.240731
     35          1           0       -4.464259   -2.864320   -2.153551
     36          6           0       -3.449969   -1.520570   -3.474461
     37          1           0       -4.049239   -1.815180   -4.326931
     38          6           0       -2.454389   -0.563170   -3.618621
     39          1           0       -2.267310   -0.105360   -4.581011
     40          6           0       -1.700170   -0.197640   -2.510041
     41          1           0       -0.919620    0.544950   -2.610561
     42          8           0       -3.079969   -2.302580    0.103959
     43          6           0       -4.146089   -3.226900    0.328739
     44          1           0       -5.114509   -2.770250    0.112549
     45          1           0       -4.095349   -3.483280    1.383619
     46          1           0       -4.020829   -4.131090   -0.272011
     47          6           0       -2.104750    0.364740    1.454589
     48          6           0       -2.906450    1.482150    1.148389
     49          6           0       -3.810660    1.978970    2.086139
     50          1           0       -4.431050    2.831960    1.852649
     51          6           0       -3.914950    1.377490    3.335769
     52          1           0       -4.617670    1.774140    4.057599
     53          6           0       -3.128860    0.279640    3.655309
     54          1           0       -3.211950   -0.192870    4.625119
     55          6           0       -2.234620   -0.218030    2.713579
     56          1           0       -1.649179   -1.088550    2.973369
     57          8           0       -2.732860    2.020020   -0.091301
     58          6           0       -3.587570    3.083010   -0.515291
     59          1           0       -4.636020    2.778240   -0.487851
     60          1           0       -3.302990    3.300510   -1.541371
     61          1           0       -3.444380    3.975810    0.098349
     62         45           0        1.144630    0.880051   -0.262041
     63          6           0        0.390680    2.820801   -1.152171
     64          6           0        0.484070    2.950661    0.221789
     65          6           0        3.179170    1.927281   -0.087261
     66          6           0        2.979660    1.532031   -1.392231
     67          1           0       -0.587990    2.566150   -1.539981
     68          6           0        1.376820    3.382031   -2.159701
     69          1           0       -0.428840    2.807701    0.788059
     70          6           0        1.596060    3.615821    0.993959
     71          6           0        3.009540    3.337851    0.442709
     72          1           0        3.758860    1.262391    0.541039
     73          1           0        3.440060    0.599911   -1.698261
     74          6           0        2.499330    2.391721   -2.534931
     75          1           0        1.801740    4.312191   -1.781961
     76          1           0        0.834750    3.649931   -3.068291
     77          1           0        1.418799    4.698101    1.035499
     78          1           0        1.537940    3.266031    2.026899
     79          1           0        3.734050    3.498931    1.242809
     80          1           0        3.262250    4.055141   -0.338021
     81          1           0        3.348280    2.934961   -2.968851
     82          1           0        2.140080    1.725521   -3.322481
 ---------------------------------------------------------------------

 SCF Done:  E(RB3LYP) =  -2153.09934265     A.U. after   16 cycles

      1  P    Isotropic =   284.9735   Anisotropy =   140.5802

      2  P    Isotropic =   330.0052   Anisotropy =    72.6384

      3  C    Isotropic =   145.4607   Anisotropy =    46.4696

      4  H    Isotropic =    28.6267   Anisotropy =     7.8140

      5  H    Isotropic =    27.8933   Anisotropy =     4.6928

      6  C    Isotropic =   136.0098   Anisotropy =    32.2136

      7  C    Isotropic =   150.9064   Anisotropy =    40.8030

      8  H    Isotropic =    31.2732   Anisotropy =     8.8851

      9  H    Isotropic =    30.5269   Anisotropy =     7.0198

     10  H    Isotropic =    31.4983   Anisotropy =     9.3968

     11  C    Isotropic =   155.5492   Anisotropy =    39.9633

     12  H    Isotropic =    30.4197   Anisotropy =     7.3248

     13  H    Isotropic =    30.7296   Anisotropy =     6.3967

     14  H    Isotropic =    30.8330   Anisotropy =    10.7022

     15  C    Isotropic =   157.6137   Anisotropy =    35.3134

     16  H    Isotropic =    30.9840   Anisotropy =    10.8302

     17  H    Isotropic =    30.8462   Anisotropy =     6.2957

     18  H    Isotropic =    30.6173   Anisotropy =     8.7119

     19  C    Isotropic =   135.1828   Anisotropy =    32.8838

     20  C    Isotropic =   155.3062   Anisotropy =    35.7745

     21  H    Isotropic =    30.7975   Anisotropy =     5.3879

     22  H    Isotropic =    30.4759   Anisotropy =     8.0525

     23  H    Isotropic =    30.6651   Anisotropy =    10.6177

     24  C    Isotropic =   157.4339   Anisotropy =    39.1085

     25  H    Isotropic =    30.7216   Anisotropy =    11.0674

     26  H    Isotropic =    30.3991   Anisotropy =     7.8417

     27  H    Isotropic =    30.4763   Anisotropy =     6.4689

     28  C    Isotropic =   151.4925   Anisotropy =    41.7496

     29  H    Isotropic =    30.3671   Anisotropy =     6.2491

     30  H    Isotropic =    29.6636   Anisotropy =     8.3059

     31  H    Isotropic =    30.8443   Anisotropy =     9.9365

     32  C    Isotropic =    58.6565   Anisotropy =   137.7714

     33  C    Isotropic =    16.2685   Anisotropy =   134.9805

     34  C    Isotropic =    69.3532   Anisotropy =   159.6173

     35  H    Isotropic =    25.0993   Anisotropy =     7.8013

     36  C    Isotropic =    43.5595   Anisotropy =   194.8577

     37  H    Isotropic =    24.1106   Anisotropy =     3.7494

     38  C    Isotropic =    59.2860   Anisotropy =   173.3760

     39  H    Isotropic =    24.5711   Anisotropy =     6.3012

     40  C    Isotropic =    39.7731   Anisotropy =   178.9366

     41  H    Isotropic =    23.3867   Anisotropy =     8.5597

     42  O    Isotropic =   209.4453   Anisotropy =   105.4107

     43  C    Isotropic =   128.6602   Anisotropy =    79.0997

     44  H    Isotropic =    28.7503   Anisotropy =    10.2763

     45  H    Isotropic =    28.1328   Anisotropy =     9.3851

     46  H    Isotropic =    28.3100   Anisotropy =    10.6385

     47  C    Isotropic =    59.1763   Anisotropy =   139.8642

     48  C    Isotropic =    15.8365   Anisotropy =   138.4377

     49  C    Isotropic =    69.2797   Anisotropy =   160.2953

     50  H    Isotropic =    25.1134   Anisotropy =     8.5086

     51  C    Isotropic =    45.2292   Anisotropy =   192.1080

     52  H    Isotropic =    24.1935   Anisotropy =     3.8068

     53  C    Isotropic =    58.3276   Anisotropy =   175.3039

     54  H    Isotropic =    24.5244   Anisotropy =     5.8488

     55  C    Isotropic =    49.3238   Anisotropy =   183.7101

     56  H    Isotropic =    24.2161   Anisotropy =    10.9377

     57  O    Isotropic =   214.0702   Anisotropy =    94.4022

     58  C    Isotropic =   128.9730   Anisotropy =    77.6884

     59  H    Isotropic =    28.8395   Anisotropy =    10.4431

     60  H    Isotropic =    28.3538   Anisotropy =     8.6146

     61  H    Isotropic =    28.4674   Anisotropy =    10.0599

     62  Rh   Isotropic =  -345.9078   Anisotropy =   396.1276

     63  C    Isotropic =    85.4970   Anisotropy =   113.9239

     64  C    Isotropic =    75.8186   Anisotropy =   119.9863

     65  C    Isotropic =    79.6198   Anisotropy =   121.4427

     66  C    Isotropic =    76.7291   Anisotropy =   116.9969

     67  H    Isotropic =    26.8022   Anisotropy =     5.6240

     68  C    Isotropic =   154.5457   Anisotropy =    23.7162

     69  H    Isotropic =    26.8264   Anisotropy =     6.2794

     70  C    Isotropic =   147.3168   Anisotropy =    30.0792

     71  C    Isotropic =   153.9351   Anisotropy =    25.1945

     72  H    Isotropic =    26.8691   Anisotropy =     5.6315

     73  H    Isotropic =    26.0515   Anisotropy =     4.1597

     74  C    Isotropic =   147.4198   Anisotropy =    29.2498

     75  H    Isotropic =    29.8178   Anisotropy =     9.6832

     76  H    Isotropic =    29.7269   Anisotropy =    11.1764

     77  H    Isotropic =    29.2918   Anisotropy =    12.3116

     78  H    Isotropic =    29.3065   Anisotropy =     6.2148

     79  H    Isotropic =    29.9060   Anisotropy =    11.3627

     80  H    Isotropic =    29.8378   Anisotropy =     9.7136

     81  H    Isotropic =    29.0367   Anisotropy =    12.8234

     82  H    Isotropic =    28.9009   Anisotropy =     7.2631

 The electronic state is 1-A.
 Alpha  occ. eigenvalues --  -77.23341 -77.22015 -19.25994 -19.25903 -10.34063
 Alpha  occ. eigenvalues --  -10.34026 -10.31863 -10.31735 -10.30740 -10.30587
 Alpha  occ. eigenvalues --  -10.29277 -10.28890 -10.28666 -10.28570 -10.28486
 Alpha  occ. eigenvalues --  -10.28320 -10.28017 -10.27910 -10.27758 -10.27421
 Alpha  occ. eigenvalues --  -10.27309 -10.27135 -10.27089 -10.27056 -10.26982
 Alpha  occ. eigenvalues --  -10.26892 -10.26828 -10.26478 -10.26431 -10.26396
 Alpha  occ. eigenvalues --  -10.26258 -10.26222 -10.26205 -10.26133 -10.26001
 Alpha  occ. eigenvalues --   -6.69225  -6.68000  -4.85519  -4.85455  -4.85128
 Alpha  occ. eigenvalues --   -4.84296  -4.84184  -4.83902  -3.30849  -2.07701
 Alpha  occ. eigenvalues --   -2.07058  -2.04335  -1.17083  -1.16989  -0.95999
 Alpha  occ. eigenvalues --   -0.95565  -0.93990  -0.93075  -0.91187  -0.88613
 Alpha  occ. eigenvalues --   -0.88365  -0.87586  -0.85820  -0.85445  -0.84977
 Alpha  occ. eigenvalues --   -0.84116  -0.79922  -0.79701  -0.79593  -0.79446
 Alpha  occ. eigenvalues --   -0.79216  -0.78675  -0.78667  -0.77325  -0.74983
 Alpha  occ. eigenvalues --   -0.72057  -0.70871  -0.70110  -0.69568  -0.69229
 Alpha  occ. eigenvalues --   -0.66850  -0.65658  -0.65384  -0.63794  -0.62670
 Alpha  occ. eigenvalues --   -0.62267  -0.61865  -0.59788  -0.58994  -0.58492
 Alpha  occ. eigenvalues --   -0.58346  -0.57669  -0.57360  -0.57189  -0.56732
 Alpha  occ. eigenvalues --   -0.56172  -0.55926  -0.55824  -0.55061  -0.54656
 Alpha  occ. eigenvalues --   -0.54494  -0.54380  -0.54108  -0.53359  -0.53214
 Alpha  occ. eigenvalues --   -0.52765  -0.52244  -0.52095  -0.51776  -0.51638
 Alpha  occ. eigenvalues --   -0.50613  -0.50271  -0.49908  -0.49220  -0.48695
 Alpha  occ. eigenvalues --   -0.48600  -0.48279  -0.48128  -0.47702  -0.47523
 Alpha  occ. eigenvalues --   -0.47274  -0.47187  -0.46399  -0.46280  -0.46005
 Alpha  occ. eigenvalues --   -0.45801  -0.45693  -0.45547  -0.45027  -0.44789
 Alpha  occ. eigenvalues --   -0.44030  -0.43785  -0.43588  -0.43172  -0.42636
 Alpha  occ. eigenvalues --   -0.42485  -0.42343  -0.42102  -0.41924  -0.41464
 Alpha  occ. eigenvalues --   -0.40018  -0.39872  -0.37334  -0.35869  -0.35588
 Alpha  occ. eigenvalues --   -0.35100  -0.34224  -0.33835  -0.33039  -0.32692
 Alpha  occ. eigenvalues --   -0.32513  -0.30069
 Alpha virt. eigenvalues --   -0.15558  -0.14043  -0.12663  -0.11025  -0.10100
 Alpha virt. eigenvalues --   -0.09689  -0.08817  -0.07689  -0.07447  -0.06863
 Alpha virt. eigenvalues --   -0.06350  -0.05773  -0.05685  -0.05217  -0.04310

 Mulliken charges:
               1
     1  P    0.407988
     2  P    0.459052
     3  C   -0.620945
     4  H    0.222803
     5  H    0.155434
     6  C   -0.014244
     7  C   -0.417494
     8  H    0.155190
     9  H    0.152598
    10  H    0.151664
    11  C   -0.393229
    12  H    0.149990
    13  H    0.124788
    14  H    0.154966
    15  C   -0.388772
    16  H    0.149748
    17  H    0.137762
    18  H    0.138754
    19  C   -0.074945
    20  C   -0.423119
    21  H    0.146271
    22  H    0.147619
    23  H    0.153564
    24  C   -0.360928
    25  H    0.149561
    26  H    0.148088
    27  H    0.134012
    28  C   -0.375495
    29  H    0.132123
    30  H    0.141340
    31  H    0.155741
    32  C   -0.294687
    33  C    0.164040
    34  C   -0.116706
    35  H    0.144354
    36  C   -0.093208
    37  H    0.133052
    38  C   -0.131077
    39  H    0.122283
    40  C   -0.018827
    41  H    0.143584
    42  O   -0.224208
    43  C   -0.218683
    44  H    0.143057
    45  H    0.151557
    46  H    0.138681
    47  C   -0.105147
    48  C    0.058850
    49  C   -0.082420
    50  H    0.148894
    51  C   -0.126039
    52  H    0.132016
    53  C   -0.088692
    54  H    0.125307
    55  C   -0.105974
    56  H    0.122319
    57  O   -0.245788
    58  C   -0.217743
    59  H    0.147027
    60  H    0.149795
    61  H    0.140403
    62  Rh  -0.499931
    63  C   -0.052732
    64  C   -0.060877
    65  C   -0.051275
    66  C   -0.094047
    67  H    0.184364
    68  C   -0.355913
    69  H    0.203387
    70  C   -0.225649
    71  C   -0.356118
    72  H    0.173231
    73  H    0.191187
    74  C   -0.213863
    75  H    0.167822
    76  H    0.162803
    77  H    0.166384
    78  H    0.136824
    79  H    0.165891
    80  H    0.166620
    81  H    0.169758
    82  H    0.126229
 Sum of Mulliken charges =   1.00000

 Dipole moment (field-independent basis, Debye):
    X=             -1.0293    Y=             -0.8976    Z=              0.2942  Tot=              1.3971
 Quadrupole moment (field-independent basis, Debye-Ang):
   XX=           -189.8618   YY=           -200.7387   ZZ=           -216.4786
   XY=             -0.4285   XZ=              1.0398   YZ=             -3.8817

 Summary of Natural Population Analysis:

                                       Natural Population
                Natural  -----------------------------------------------
    Atom  No    Charge         Core      Valence    Rydberg      Total
 -----------------------------------------------------------------------
      P    1    1.06831      9.99685     3.89011    0.04473    13.93169
      P    2    1.12125      9.99659     3.82839    0.05377    13.87875
      C    3   -1.00031      1.99939     4.98275    0.01817     7.00031
      H    4    0.26430      0.00000     0.73336    0.00234     0.73570
      H    5    0.25047      0.00000     0.74723    0.00230     0.74953
      C    6   -0.26233      1.99941     4.24580    0.01712     6.26233
      C    7   -0.60107      1.99936     4.59230    0.00941     6.60107
      H    8    0.22153      0.00000     0.77661    0.00185     0.77847
      H    9    0.21926      0.00000     0.77918    0.00156     0.78074
      H   10    0.20912      0.00000     0.78902    0.00187     0.79088
      C   11   -0.59899      1.99935     4.59150    0.00814     6.59899
      H   12    0.21035      0.00000     0.78800    0.00165     0.78965
      H   13    0.20513      0.00000     0.79339    0.00148     0.79487
      H   14    0.22032      0.00000     0.77789    0.00179     0.77968
      C   15   -0.60461      1.99935     4.59644    0.00882     6.60461
      H   16    0.22118      0.00000     0.77704    0.00177     0.77882
      H   17    0.20612      0.00000     0.79202    0.00186     0.79388
      H   18    0.20723      0.00000     0.79108    0.00168     0.79277
      C   19   -0.25615      1.99942     4.23987    0.01686     6.25615
      C   20   -0.60185      1.99935     4.59422    0.00828     6.60185
      H   21    0.20667      0.00000     0.79179    0.00154     0.79333
      H   22    0.20859      0.00000     0.78971    0.00170     0.79141
      H   23    0.22114      0.00000     0.77702    0.00184     0.77886
      C   24   -0.60490      1.99935     4.59678    0.00877     6.60490
      H   25    0.22103      0.00000     0.77719    0.00179     0.77897
      H   26    0.21216      0.00000     0.78616    0.00168     0.78784
      H   27    0.20241      0.00000     0.79595    0.00164     0.79759
      C   28   -0.59733      1.99936     4.58947    0.00850     6.59733
      H   29    0.20548      0.00000     0.79285    0.00167     0.79452
      H   30    0.21935      0.00000     0.77890    0.00175     0.78065
      H   31    0.21992      0.00000     0.77818    0.00189     0.78008
      C   32   -0.37624      1.99888     4.35134    0.02602     6.37624
      C   33    0.29864      1.99868     3.67951    0.02317     5.70136
      C   34   -0.28746      1.99908     4.27450    0.01387     6.28746
      H   35    0.22464      0.00000     0.77346    0.00190     0.77536
      C   36   -0.15533      1.99922     4.14097    0.01515     6.15533
      H   37    0.22114      0.00000     0.77771    0.00115     0.77886
      C   38   -0.23482      1.99918     4.22046    0.01518     6.23482
      H   39    0.22049      0.00000     0.77830    0.00122     0.77951
      C   40   -0.15439      1.99912     4.13950    0.01578     6.15439
      H   41    0.21913      0.00000     0.77880    0.00208     0.78087
      O   42   -0.46700      1.99976     6.45006    0.01717     8.46700
      C   43   -0.25510      1.99927     4.24297    0.01286     6.25510
      H   44    0.18320      0.00000     0.81482    0.00197     0.81680
      H   45    0.20310      0.00000     0.79564    0.00127     0.79690
      H   46    0.17842      0.00000     0.81959    0.00199     0.82158
      C   47   -0.36204      1.99888     4.33894    0.02422     6.36204
      C   48    0.29318      1.99869     3.68569    0.02245     5.70682
      C   49   -0.28289      1.99908     4.26999    0.01382     6.28289
      H   50    0.22470      0.00000     0.77341    0.00189     0.77530
      C   51   -0.16062      1.99921     4.14625    0.01515     6.16062
      H   52    0.22179      0.00000     0.77707    0.00115     0.77821
      C   53   -0.22639      1.99919     4.21196    0.01524     6.22639
      H   54    0.22125      0.00000     0.77754    0.00121     0.77875
      C   55   -0.16876      1.99911     4.15389    0.01576     6.16876
      H   56    0.20249      0.00000     0.79512    0.00239     0.79751
      O   57   -0.46647      1.99976     6.45079    0.01591     8.46647
      C   58   -0.25512      1.99927     4.24282    0.01303     6.25512
      H   59    0.18471      0.00000     0.81336    0.00193     0.81529
      H   60    0.20194      0.00000     0.79675    0.00131     0.79806
      H   61    0.17943      0.00000     0.81855    0.00202     0.82057
     Rh   62   -0.34158     35.98581     9.32746    0.02832    45.34158
      C   63   -0.19662      1.99907     4.17810    0.01945     6.19662
      C   64   -0.15526      1.99909     4.13666    0.01951     6.15526
      C   65   -0.17677      1.99908     4.15804    0.01965     6.17677
      C   66   -0.16531      1.99909     4.14627    0.01995     6.16531
      H   67    0.22911      0.00000     0.76848    0.00241     0.77089
      C   68   -0.42215      1.99936     4.41094    0.01185     6.42215
      H   69    0.23133      0.00000     0.76638    0.00229     0.76867
      C   70   -0.41646      1.99935     4.40464    0.01248     6.41646
      C   71   -0.42432      1.99936     4.41294    0.01202     6.42432
      H   72    0.21866      0.00000     0.77898    0.00237     0.78134
      H   73    0.22022      0.00000     0.77748    0.00230     0.77978
      C   74   -0.41623      1.99935     4.40425    0.01263     6.41623
      H   75    0.21411      0.00000     0.78387    0.00202     0.78589
      H   76    0.22479      0.00000     0.77366    0.00155     0.77521
      H   77    0.23099      0.00000     0.76708    0.00193     0.76901
      H   78    0.21642      0.00000     0.78186    0.00172     0.78358
      H   79    0.22702      0.00000     0.77147    0.00152     0.77298
      H   80    0.21526      0.00000     0.78275    0.00199     0.78474
      H   81    0.23237      0.00000     0.76572    0.00191     0.76763
      H   82    0.21501      0.00000     0.78329    0.00170     0.78499
 =======================================================================
   * Total *    1.00000    121.95370   199.33027    0.71603   322.00000

 Normal termination of Gaussian 16 at Tue Jan 21 14:41:31 2025.
