 Gaussian 16, Revision B.01,
 Gaussian 16:  ES64L-G16RevB.01 20-Dec-2017

 ------------------------------------------
 # nmr=giao b3lyp/genecp pop=nbo scfcyc=200
 ------------------------------------------

 ---------
 MB-73_SPE
 ---------
 Symbolic Z-matrix:
 Charge =  1 Multiplicity = 1

                         Standard orientation:
 ---------------------------------------------------------------------
 Center     Atomic      Atomic             Coordinates (Angstroms)
 Number     Number       Type             X           Y           Z
 ---------------------------------------------------------------------
      1         15           0       -1.457850    0.251820   -0.560740
      2          6           0       -2.651699   -0.946450   -1.331480
      3          6           0       -2.897038   -2.761090   -2.707350
      4          6           0       -4.252378   -2.867701   -2.412630
      5          6           0       -4.810059   -1.956651   -1.525090
      6          6           0       -3.997709   -0.975221   -0.968080
      7          1           0       -4.404619   -0.243641   -0.282400
      8          1           0       -5.861409   -2.005211   -1.270490
      9          1           0       -4.850038   -3.644831   -2.870170
     10          1           0       -2.423868   -3.451690   -3.396340
     11          6           0       -2.364500    1.843070   -0.416130
     12          6           0       -2.280340    2.573750    0.771090
     13          6           0       -2.928401    3.800380    0.886380
     14          6           0       -3.661731    4.302789   -0.182050
     15          6           0       -3.746781    3.580499   -1.370710
     16          6           0       -3.101370    2.356630   -1.490510
     17          1           0       -3.178630    1.802820   -2.418600
     18          1           0       -4.317131    3.971559   -2.203900
     19          1           0       -4.167701    5.255759   -0.091790
     20          1           0       -2.859461    4.361040    1.810060
     21          1           0       -1.701530    2.185680    1.599960
     22          6           0       -0.123800    0.487441   -1.851250
     23         15           0        1.328610    0.239821   -0.696860
     24          6           0        2.490441   -0.922118   -1.530770
     25          6           0        3.858031   -0.655968   -1.625290
     26          6           0        4.708851   -1.582908   -2.220680
     27          6           0        4.203832   -2.776438   -2.722670
     28          6           0        2.841852   -3.048878   -2.623000
     29          6           0        1.987351   -2.132279   -2.023780
     30          1           0        0.931031   -2.362059   -1.944870
     31          1           0        2.444292   -3.978588   -3.010480
     32          1           0        4.867972   -3.493958   -3.187630
     33          1           0        5.767311   -1.366807   -2.293620
     34          1           0        4.267980    0.267672   -1.239710
     35          6           0        2.245640    1.849191   -0.589970
     36          6           0        2.262940    2.788252   -1.618970
     37          6           0        2.996219    3.956242   -1.437810
     38          6           0        3.685829    4.137522   -0.247070
     39          6           0        3.618009    3.137022    0.717840
     40          1           0        4.149629    3.236712    1.657550
     41          1           0        4.267949    5.031342   -0.065500
     42          1           0        3.030279    4.707162   -2.217160
     43          1           0        1.732980    2.615941   -2.545920
     44          1           0       -0.186129   -0.326399   -2.573930
     45          1           0       -0.165480    1.444591   -2.367610
     46         45           0        0.019091   -0.472659    1.123470
     47          6           0       -1.319139   -0.756480    2.950100
     48          6           0       -1.340069   -1.909400    2.192090
     49          6           0        1.577961   -1.716699    2.241770
     50          6           0        1.586571   -0.432169    2.740550
     51          6           0       -0.516639   -0.549490    4.221330
     52          1           0       -2.129829   -0.053550    2.790150
     53          1           0       -2.177829   -2.041660    1.515120
     54          6           0       -0.528248   -3.160960    2.421600
     55          6           0        0.919632   -2.915289    2.898150
     56          1           0        2.297171   -1.946988    1.463360
     57          6           0        0.885201    0.056341    3.983650
     58          1           0        2.315310    0.259792    2.328820
     59          1           0       -1.074349    0.121550    4.876850
     60          1           0       -0.436059   -1.493389    4.760160
     61          1           0       -1.049568   -3.809010    3.137680
     62          1           0       -0.504638   -3.714999    1.480850
     63          1           0        0.949932   -2.803639    3.981780
     64          1           0        1.511542   -3.803499    2.671100
     65          1           0        0.796430    1.142091    3.904740
     66          1           0        1.519071   -0.126829    4.860370
     67          7           0       -2.106829   -1.825340   -2.176820
     68          7           0        2.910850    2.016832    0.558790
 ---------------------------------------------------------------------

 SCF Done:  E(RB3LYP) =  -2103.69659224     A.U. after   16 cycles

      1  P    Isotropic =   318.4542   Anisotropy =   104.1175

      2  C    Isotropic =    17.2182   Anisotropy =   167.5910

      3  C    Isotropic =    27.4915   Anisotropy =   176.3895

      4  C    Isotropic =    54.0465   Anisotropy =   182.5825

      5  C    Isotropic =    41.1655   Anisotropy =   208.6562

      6  C    Isotropic =    51.1454   Anisotropy =   185.4098

      7  H    Isotropic =    24.7430   Anisotropy =    12.0848

      8  H    Isotropic =    23.9860   Anisotropy =     6.0736

      9  H    Isotropic =    24.2280   Anisotropy =     3.9830

     10  H    Isotropic =    22.6431   Anisotropy =     6.8268

     11  C    Isotropic =    44.2015   Anisotropy =   175.8760

     12  C    Isotropic =    41.4487   Anisotropy =   181.7242

     13  C    Isotropic =    49.5421   Anisotropy =   188.3109

     14  C    Isotropic =    44.7316   Anisotropy =   199.0226

     15  C    Isotropic =    47.8673   Anisotropy =   190.9842

     16  C    Isotropic =    47.1050   Anisotropy =   185.8473

     17  H    Isotropic =    24.5398   Anisotropy =    11.5858

     18  H    Isotropic =    24.2221   Anisotropy =     5.8387

     19  H    Isotropic =    24.0466   Anisotropy =     3.8707

     20  H    Isotropic =    24.2404   Anisotropy =     6.7436

     21  H    Isotropic =    23.5809   Anisotropy =     9.6206

     22  C    Isotropic =   129.3042   Anisotropy =    50.7049

     23  P    Isotropic =   327.6725   Anisotropy =   111.3190

     24  C    Isotropic =    42.4635   Anisotropy =   163.7202

     25  C    Isotropic =    47.9425   Anisotropy =   187.4216

     26  C    Isotropic =    49.4619   Anisotropy =   187.9671

     27  C    Isotropic =    46.6147   Anisotropy =   194.8962

     28  C    Isotropic =    48.7255   Anisotropy =   189.0427

     29  C    Isotropic =    47.1653   Anisotropy =   187.8636

     30  H    Isotropic =    23.1683   Anisotropy =    10.4122

     31  H    Isotropic =    23.9476   Anisotropy =     6.6977

     32  H    Isotropic =    24.1346   Anisotropy =     3.9797

     33  H    Isotropic =    24.4821   Anisotropy =     6.5560

     34  H    Isotropic =    25.4141   Anisotropy =    12.7911

     35  C    Isotropic =    19.9750   Anisotropy =   163.4363

     36  C    Isotropic =    52.7418   Anisotropy =   186.8812

     37  C    Isotropic =    41.1429   Anisotropy =   209.8102

     38  C    Isotropic =    53.3525   Anisotropy =   185.8519

     39  C    Isotropic =    27.3872   Anisotropy =   177.9785

     40  H    Isotropic =    22.8027   Anisotropy =     6.7630

     41  H    Isotropic =    24.2850   Anisotropy =     3.6849

     42  H    Isotropic =    24.0083   Anisotropy =     5.7486

     43  H    Isotropic =    24.4484   Anisotropy =    11.4541

     44  H    Isotropic =    25.9967   Anisotropy =     3.9774

     45  H    Isotropic =    28.0988   Anisotropy =     8.2540

     46  Rh   Isotropic =  -321.2036   Anisotropy =   366.9930

     47  C    Isotropic =    81.1214   Anisotropy =   117.4433

     48  C    Isotropic =    72.8076   Anisotropy =   121.8894

     49  C    Isotropic =    74.2811   Anisotropy =   129.0857

     50  C    Isotropic =    72.6428   Anisotropy =   127.0058

     51  C    Isotropic =   154.1585   Anisotropy =    24.2126

     52  H    Isotropic =    27.0229   Anisotropy =     6.5424

     53  H    Isotropic =    26.9176   Anisotropy =     3.9215

     54  C    Isotropic =   147.6446   Anisotropy =    29.5144

     55  C    Isotropic =   153.9886   Anisotropy =    24.4183

     56  H    Isotropic =    27.1577   Anisotropy =     4.4751

     57  C    Isotropic =   147.9509   Anisotropy =    29.5124

     58  H    Isotropic =    24.7403   Anisotropy =     6.0533

     59  H    Isotropic =    29.8290   Anisotropy =    11.6356

     60  H    Isotropic =    29.8007   Anisotropy =     9.3526

     61  H    Isotropic =    29.3691   Anisotropy =    12.2388

     62  H    Isotropic =    29.3758   Anisotropy =     7.1434

     63  H    Isotropic =    29.8790   Anisotropy =     9.4250

     64  H    Isotropic =    30.1060   Anisotropy =    10.7026

     65  H    Isotropic =    28.9136   Anisotropy =     7.8345

     66  H    Isotropic =    29.0236   Anisotropy =    12.5930

     67  N    Isotropic =   -95.0363   Anisotropy =   568.9589

     68  N    Isotropic =  -107.0105   Anisotropy =   578.6081

 The electronic state is 1-A.
 Alpha  occ. eigenvalues --  -77.23575 -77.23563 -14.42626 -14.42592 -10.33039
 Alpha  occ. eigenvalues --  -10.33031 -10.31464 -10.31412 -10.29829 -10.29763
 Alpha  occ. eigenvalues --  -10.29734 -10.29687 -10.29608 -10.29404 -10.29213
 Alpha  occ. eigenvalues --  -10.28887 -10.28831 -10.28745 -10.28577 -10.28494
 Alpha  occ. eigenvalues --  -10.28469 -10.28243 -10.27995 -10.27857 -10.27779
 Alpha  occ. eigenvalues --  -10.27714 -10.27680 -10.27678 -10.27109 -10.27015
 Alpha  occ. eigenvalues --  -10.26944 -10.26913 -10.26889 -10.26886 -10.26751
 Alpha  occ. eigenvalues --   -6.69604  -6.69567  -4.85881  -4.85863  -4.85833
 Alpha  occ. eigenvalues --   -4.85781  -4.85489  -4.85451  -3.31201  -2.08135
 Alpha  occ. eigenvalues --   -2.07443  -2.04628  -1.05974  -1.05921  -0.96657
 Alpha  occ. eigenvalues --   -0.95881  -0.93912  -0.91544  -0.91480  -0.90027
 Alpha  occ. eigenvalues --   -0.88609  -0.88412  -0.87503  -0.86331  -0.85671
 Alpha  occ. eigenvalues --   -0.85455  -0.84664  -0.83850  -0.79796  -0.77287
 Alpha  occ. eigenvalues --   -0.76933  -0.74978  -0.74272  -0.73923  -0.71984
 Alpha  occ. eigenvalues --   -0.71447  -0.71076  -0.70432  -0.70052  -0.67699
 Alpha  occ. eigenvalues --   -0.67034  -0.65269  -0.63124  -0.62831  -0.62007
 Alpha  occ. eigenvalues --   -0.61601  -0.60739  -0.59787  -0.59534  -0.59379
 Alpha  occ. eigenvalues --   -0.57108  -0.56876  -0.56554  -0.56171  -0.56064
 Alpha  occ. eigenvalues --   -0.55762  -0.55468  -0.55086  -0.54682  -0.53860
 Alpha  occ. eigenvalues --   -0.53127  -0.52921  -0.52574  -0.52255  -0.52073
 Alpha  occ. eigenvalues --   -0.51979  -0.51835  -0.51555  -0.51277  -0.50582
 Alpha  occ. eigenvalues --   -0.49980  -0.49049  -0.48143  -0.47942  -0.47576
 Alpha  occ. eigenvalues --   -0.47287  -0.47085  -0.45933  -0.45482  -0.45326
 Alpha  occ. eigenvalues --   -0.45260  -0.44412  -0.44276  -0.43840  -0.42964
 Alpha  occ. eigenvalues --   -0.42771  -0.42469  -0.41488  -0.39988  -0.39933
 Alpha  occ. eigenvalues --   -0.38491  -0.38029  -0.37633  -0.37152  -0.36936
 Alpha  occ. eigenvalues --   -0.36233  -0.36113  -0.35580  -0.35374  -0.34944
 Alpha  occ. eigenvalues --   -0.34313  -0.34198  -0.33399  -0.30339
 Alpha virt. eigenvalues --   -0.16404  -0.15328  -0.14617  -0.14004  -0.13414
 Alpha virt. eigenvalues --   -0.13371  -0.12994  -0.11533  -0.10711  -0.10592
 Alpha virt. eigenvalues --   -0.08740  -0.07232  -0.06187  -0.05916  -0.05625

 Mulliken charges:
               1
     1  P    0.455261
     2  C   -0.220746
     3  C   -0.138486
     4  C   -0.027001
     5  C   -0.151821
     6  C   -0.007924
     7  H    0.181038
     8  H    0.144030
     9  H    0.158806
    10  H    0.129111
    11  C   -0.274768
    12  C   -0.035254
    13  C   -0.112316
    14  C   -0.093133
    15  C   -0.086836
    16  C   -0.078663
    17  H    0.151977
    18  H    0.137244
    19  H    0.141443
    20  H    0.132278
    21  H    0.164792
    22  C   -0.623181
    23  P    0.346950
    24  C   -0.237809
    25  C   -0.028765
    26  C   -0.105351
    27  C   -0.084021
    28  C   -0.121491
    29  C   -0.036520
    30  H    0.187726
    31  H    0.129263
    32  H    0.137968
    33  H    0.131811
    34  H    0.158480
    35  C   -0.261365
    36  C    0.027675
    37  C   -0.141310
    38  C   -0.032419
    39  C   -0.126986
    40  H    0.127604
    41  H    0.159441
    42  H    0.143392
    43  H    0.161699
    44  H    0.244675
    45  H    0.204093
    46  Rh  -0.503522
    47  C   -0.020848
    48  C   -0.104014
    49  C   -0.045724
    50  C   -0.057306
    51  C   -0.346426
    52  H    0.178757
    53  H    0.195954
    54  C   -0.223823
    55  C   -0.353696
    56  H    0.199503
    57  C   -0.232644
    58  H    0.224970
    59  H    0.165885
    60  H    0.165231
    61  H    0.168891
    62  H    0.131878
    63  H    0.164347
    64  H    0.168611
    65  H    0.130751
    66  H    0.169546
    67  N   -0.069370
    68  N   -0.037544
 Sum of Mulliken charges =   1.00000

 Dipole moment (field-independent basis, Debye):
    X=             -1.5543    Y=              1.5368    Z=             -1.2780  Tot=              2.5320
 Quadrupole moment (field-independent basis, Debye-Ang):
   XX=           -174.9251   YY=           -181.3551   ZZ=           -203.4724
   XY=              9.7052   XZ=              2.5466   YZ=              2.0687

 Summary of Natural Population Analysis:

                                       Natural Population
                Natural  -----------------------------------------------
    Atom  No    Charge         Core      Valence    Rydberg      Total
 -----------------------------------------------------------------------
      P    1    1.09790      9.99642     3.85429    0.05139    13.90210
      C    2   -0.08090      1.99906     4.05036    0.03148     6.08090
      C    3    0.04410      1.99924     3.93417    0.02248     5.95590
      C    4   -0.22746      1.99917     4.21422    0.01407     6.22746
      C    5   -0.14981      1.99920     4.13576    0.01485     6.14981
      C    6   -0.23768      1.99906     4.22401    0.01461     6.23768
      H    7    0.22990      0.00000     0.76849    0.00161     0.77010
      H    8    0.22821      0.00000     0.77061    0.00118     0.77179
      H    9    0.23093      0.00000     0.76790    0.00118     0.76907
      H   10    0.20300      0.00000     0.79548    0.00152     0.79700
      C   11   -0.35119      1.99900     4.32906    0.02313     6.35119
      C   12   -0.18083      1.99910     4.16641    0.01532     6.18083
      C   13   -0.19592      1.99920     4.18209    0.01463     6.19592
      C   14   -0.17399      1.99921     4.16024    0.01455     6.17399
      C   15   -0.19266      1.99920     4.17882    0.01464     6.19266
      C   16   -0.19079      1.99910     4.17591    0.01579     6.19079
      H   17    0.21677      0.00000     0.78140    0.00183     0.78323
      H   18    0.22347      0.00000     0.77531    0.00122     0.77653
      H   19    0.22335      0.00000     0.77549    0.00117     0.77665
      H   20    0.22212      0.00000     0.77667    0.00121     0.77788
      H   21    0.22246      0.00000     0.77565    0.00189     0.77754
      C   22   -0.97897      1.99942     4.96213    0.01742     6.97897
      P   23    1.11599      9.99640     3.83636    0.05125    13.88401
      C   24   -0.33332      1.99899     4.31116    0.02316     6.33332
      C   25   -0.19275      1.99909     4.17810    0.01556     6.19275
      C   26   -0.19030      1.99920     4.17639    0.01471     6.19030
      C   27   -0.18116      1.99920     4.16724    0.01471     6.18116
      C   28   -0.19182      1.99920     4.17795    0.01467     6.19182
      C   29   -0.19893      1.99909     4.18467    0.01517     6.19893
      H   30    0.22353      0.00000     0.77441    0.00205     0.77647
      H   31    0.21993      0.00000     0.77884    0.00123     0.78007
      H   32    0.22194      0.00000     0.77688    0.00118     0.77806
      H   33    0.22185      0.00000     0.77693    0.00122     0.77815
      H   34    0.21916      0.00000     0.77877    0.00207     0.78084
      C   35   -0.08781      1.99906     4.05686    0.03189     6.08781
      C   36   -0.22722      1.99905     4.21328    0.01489     6.22722
      C   37   -0.15094      1.99920     4.13698    0.01477     6.15094
      C   38   -0.22136      1.99917     4.20827    0.01393     6.22136
      C   39    0.04185      1.99924     3.93689    0.02202     5.95815
      H   40    0.20395      0.00000     0.79449    0.00157     0.79605
      H   41    0.23096      0.00000     0.76786    0.00118     0.76904
      H   42    0.22805      0.00000     0.77076    0.00120     0.77195
      H   43    0.22056      0.00000     0.77739    0.00206     0.77944
      H   44    0.28920      0.00000     0.70880    0.00200     0.71080
      H   45    0.25635      0.00000     0.74203    0.00161     0.74365
     Rh   46   -0.40651     35.98564     9.39174    0.02913    45.40651
      C   47   -0.18348      1.99906     4.16491    0.01951     6.18348
      C   48   -0.14898      1.99907     4.12991    0.02000     6.14898
      C   49   -0.16438      1.99906     4.14594    0.01938     6.16438
      C   50   -0.16641      1.99907     4.14749    0.01985     6.16641
      C   51   -0.42286      1.99936     4.41178    0.01172     6.42286
      H   52    0.22323      0.00000     0.77482    0.00195     0.77677
      H   53    0.22511      0.00000     0.77292    0.00197     0.77489
      C   54   -0.42004      1.99935     4.40837    0.01232     6.42004
      C   55   -0.42434      1.99936     4.41326    0.01172     6.42434
      H   56    0.23106      0.00000     0.76699    0.00195     0.76894
      C   57   -0.42012      1.99935     4.40821    0.01255     6.42012
      H   58    0.25485      0.00000     0.74298    0.00217     0.74515
      H   59    0.22671      0.00000     0.77181    0.00148     0.77329
      H   60    0.21426      0.00000     0.78374    0.00200     0.78574
      H   61    0.23218      0.00000     0.76593    0.00189     0.76782
      H   62    0.22062      0.00000     0.77793    0.00145     0.77938
      H   63    0.21339      0.00000     0.78467    0.00194     0.78661
      H   64    0.22876      0.00000     0.76980    0.00144     0.77124
      H   65    0.21597      0.00000     0.78252    0.00151     0.78403
      H   66    0.23335      0.00000     0.76478    0.00187     0.76665
      N   67   -0.43897      1.99941     5.41864    0.02092     7.43897
      N   68   -0.42309      1.99942     5.40335    0.02033     7.42309
 =======================================================================
   * Total *    1.00000    121.95143   183.28826    0.76031   306.00000

 Normal termination of Gaussian 16 at Tue Jan 21 15:54:20 2025.
