 Gaussian 16, Revision B.01,
 Gaussian 16:  ES64L-G16RevB.01 20-Dec-2017

 ------------------------------------------
 # nmr=giao b3lyp/genecp pop=nbo scfcyc=200
 ------------------------------------------

 -------------
 Ligand 49 SPE
 -------------
 Symbolic Z-matrix:
 Charge =  1 Multiplicity = 1

                         Standard orientation:
 ---------------------------------------------------------------------
 Center     Atomic      Atomic             Coordinates (Angstroms)
 Number     Number       Type             X           Y           Z
 ---------------------------------------------------------------------
      1         15           0       -0.551100   -0.686261    0.163350
      2         15           0        0.589400    1.887829    0.480950
      3          6           0       -1.753271   -1.360760   -1.073240
      4          6           0       -1.266591   -2.475560   -1.771910
      5          1           0       -0.298931   -2.886071   -1.512930
      6          6           0       -2.000761   -3.086690   -2.778670
      7          1           0       -1.603241   -3.952790   -3.292520
      8          6           0       -3.242881   -2.564760   -3.120190
      9          1           0       -3.830371   -3.014430   -3.910930
     10          6           0       -3.739001   -1.470600   -2.420960
     11          1           0       -4.722351   -1.084919   -2.658250
     12          6           0       -3.022481   -0.864750   -1.377600
     13          6           0       -3.699980    0.243460   -0.642730
     14          6           0       -4.056150    1.416930   -1.317420
     15          1           0       -3.788820    1.534650   -2.360870
     16          6           0       -4.748780    2.430531   -0.663730
     17          1           0       -5.015689    3.331761   -1.201660
     18          6           0       -5.110370    2.281861    0.671790
     19          1           0       -5.659639    3.065721    1.177830
     20          6           0       -4.778300    1.111851    1.347350
     21          1           0       -5.076190    0.978331    2.380020
     22          6           0       -4.079990    0.100410    0.695630
     23          1           0       -3.845781   -0.813040    1.228060
     24          6           0       -0.688751   -1.825630    1.613430
     25          6           0        0.340489   -1.835421    2.560800
     26          1           0        1.209619   -1.205561    2.415330
     27          6           0        0.264169   -2.662011    3.675450
     28          1           0        1.065669   -2.659101    4.403670
     29          6           0       -0.830781   -3.503550    3.845970
     30          1           0       -0.886571   -4.154280    4.709450
     31          6           0       -1.845921   -3.517630    2.895200
     32          1           0       -2.692741   -4.181870    3.014130
     33          6           0       -1.777221   -2.684480    1.783620
     34          1           0       -2.565121   -2.722080    1.043470
     35          6           0       -1.049250    1.025670    0.755210
     36          1           0       -1.376280    1.020290    1.794130
     37          1           0       -1.847280    1.461130    0.154800
     38          6           0        0.980280    2.798009    2.082250
     39          1           0        0.073471    3.368779    2.303990
     40          6           0        1.232750    1.828249    3.240350
     41          1           0        0.398270    1.146939    3.408800
     42          1           0        1.381490    2.394039    4.162600
     43          1           0        2.129990    1.229639    3.071640
     44          6           0        2.146861    3.778899    1.911450
     45          1           0        3.073881    3.266119    1.646820
     46          1           0        2.323971    4.299369    2.855000
     47          1           0        1.952951    4.538119    1.153780
     48          6           0        0.254331    3.239269   -0.787190
     49          1           0        1.229211    3.721139   -0.908320
     50          6           0       -0.760909    4.287270   -0.318720
     51          1           0       -0.888189    5.042360   -1.097930
     52          1           0       -0.446049    4.806189    0.586590
     53          1           0       -1.742569    3.845340   -0.134360
     54          6           0       -0.142280    2.633929   -2.139240
     55          1           0       -1.124070    2.157720   -2.095390
     56          1           0        0.580030    1.890129   -2.478860
     57          1           0       -0.198789    3.423629   -2.891490
     58         45           0        1.702010   -0.020591   -0.357000
     59          6           0        2.702979   -2.050571   -0.729670
     60          6           0        2.304589   -1.510121   -1.933600
     61          6           0        3.650760    0.915138   -1.063850
     62          6           0        3.797590    0.467858    0.236130
     63          1           0        2.026229   -2.748471   -0.248670
     64          6           0        4.122639   -2.045782   -0.198110
     65          1           0        1.352159   -1.832251   -2.337710
     66          6           0        3.168550   -0.770972   -2.925820
     67          6           0        4.182380    0.205138   -2.294070
     68          1           0        3.407110    1.963168   -1.199720
     69          1           0        3.690540    1.202278    1.026520
     70          6           0        4.449589   -0.818692    0.680110
     71          1           0        4.824149   -2.114132   -1.029640
     72          1           0        4.274859   -2.946982    0.397720
     73          1           0        3.694449   -1.492292   -3.563660
     74          1           0        2.504680   -0.215641   -3.591620
     75          1           0        4.453600    0.953788   -3.040030
     76          1           0        5.106730   -0.315702   -2.043630
     77          1           0        5.536810   -0.679262    0.731480
     78          1           0        4.128139   -1.017632    1.704670
 ---------------------------------------------------------------------

 SCF Done:  E(RB3LYP) =  -2076.44460379     A.U. after   16 cycles

      1  P    Isotropic =   325.8880   Anisotropy =   132.4244

      2  P    Isotropic =   303.3179   Anisotropy =   129.2092

      3  C    Isotropic =    52.2479   Anisotropy =   159.2879

      4  C    Isotropic =    44.9885   Anisotropy =   182.8188

      5  H    Isotropic =    24.8744   Anisotropy =    10.1716

      6  C    Isotropic =    49.9933   Anisotropy =   188.9009

      7  H    Isotropic =    24.1537   Anisotropy =     6.4268

      8  C    Isotropic =    46.1536   Anisotropy =   194.8576

      9  H    Isotropic =    23.9675   Anisotropy =     3.5603

     10  C    Isotropic =    43.7928   Anisotropy =   170.6720

     11  H    Isotropic =    24.2446   Anisotropy =     9.6675

     12  C    Isotropic =    30.4713   Anisotropy =   190.4156

     13  C    Isotropic =    35.2321   Anisotropy =   192.8951

     14  C    Isotropic =    49.4435   Anisotropy =   175.0274

     15  H    Isotropic =    24.2419   Anisotropy =     7.0279

     16  C    Isotropic =    48.7468   Anisotropy =   192.6481

     17  H    Isotropic =    24.1103   Anisotropy =     4.4521

     18  C    Isotropic =    49.0043   Anisotropy =   194.8025

     19  H    Isotropic =    24.1923   Anisotropy =     3.1463

     20  C    Isotropic =    49.8631   Anisotropy =   190.9019

     21  H    Isotropic =    24.4175   Anisotropy =     6.1687

     22  C    Isotropic =    48.6427   Anisotropy =   182.3585

     23  H    Isotropic =    24.3971   Anisotropy =     8.2161

     24  C    Isotropic =    39.9526   Anisotropy =   175.5966

     25  C    Isotropic =    43.8519   Anisotropy =   178.3637

     26  H    Isotropic =    22.8636   Anisotropy =     8.3386

     27  C    Isotropic =    49.7923   Anisotropy =   186.4118

     28  H    Isotropic =    24.0492   Anisotropy =     7.1633

     29  C    Isotropic =    45.7020   Anisotropy =   195.7822

     30  H    Isotropic =    24.0315   Anisotropy =     3.8031

     31  C    Isotropic =    48.7570   Anisotropy =   188.3655

     32  H    Isotropic =    24.2297   Anisotropy =     6.8111

     33  C    Isotropic =    46.1179   Anisotropy =   188.1452

     34  H    Isotropic =    24.5969   Anisotropy =    12.8354

     35  C    Isotropic =   137.3866   Anisotropy =    53.8173

     36  H    Isotropic =    29.6732   Anisotropy =     7.2644

     37  H    Isotropic =    29.2379   Anisotropy =    20.0524

     38  C    Isotropic =   148.3500   Anisotropy =    23.3988

     39  H    Isotropic =    30.2001   Anisotropy =     5.6888

     40  C    Isotropic =   164.3201   Anisotropy =    27.0987

     41  H    Isotropic =    30.7008   Anisotropy =     6.9884

     42  H    Isotropic =    30.5562   Anisotropy =    11.7754

     43  H    Isotropic =    30.6618   Anisotropy =     5.8266

     44  C    Isotropic =   166.7981   Anisotropy =    30.6796

     45  H    Isotropic =    31.3267   Anisotropy =     6.1669

     46  H    Isotropic =    30.6907   Anisotropy =    12.5546

     47  H    Isotropic =    30.8884   Anisotropy =     8.2851

     48  C    Isotropic =   148.7012   Anisotropy =    21.5250

     49  H    Isotropic =    29.9620   Anisotropy =     6.0019

     50  C    Isotropic =   169.2627   Anisotropy =    28.0277

     51  H    Isotropic =    30.9038   Anisotropy =    11.7109

     52  H    Isotropic =    31.1596   Anisotropy =     8.9343

     53  H    Isotropic =    31.6817   Anisotropy =     9.5435

     54  C    Isotropic =   163.0354   Anisotropy =    29.1657

     55  H    Isotropic =    31.0527   Anisotropy =     8.4445

     56  H    Isotropic =    29.7636   Anisotropy =     8.1755

     57  H    Isotropic =    30.5583   Anisotropy =    10.8520

     58  Rh   Isotropic =  -336.4637   Anisotropy =   397.6632

     59  C    Isotropic =    79.3887   Anisotropy =   123.3909

     60  C    Isotropic =    72.8183   Anisotropy =   122.3729

     61  C    Isotropic =    85.2222   Anisotropy =   114.5138

     62  C    Isotropic =    79.7632   Anisotropy =   112.4675

     63  H    Isotropic =    27.0037   Anisotropy =     4.5389

     64  C    Isotropic =   154.4678   Anisotropy =    24.7595

     65  H    Isotropic =    26.1626   Anisotropy =     4.9670

     66  C    Isotropic =   148.1827   Anisotropy =    28.6768

     67  C    Isotropic =   153.9974   Anisotropy =    25.0549

     68  H    Isotropic =    27.3203   Anisotropy =     6.3488

     69  H    Isotropic =    26.0547   Anisotropy =     4.4231

     70  C    Isotropic =   146.7102   Anisotropy =    30.5809

     71  H    Isotropic =    29.8750   Anisotropy =     9.8627

     72  H    Isotropic =    29.8998   Anisotropy =    11.0222

     73  H    Isotropic =    29.2041   Anisotropy =    12.6228

     74  H    Isotropic =    29.1801   Anisotropy =     6.9503

     75  H    Isotropic =    29.8781   Anisotropy =    11.4856

     76  H    Isotropic =    29.8722   Anisotropy =     9.7672

     77  H    Isotropic =    29.0046   Anisotropy =    12.7020

     78  H    Isotropic =    28.9354   Anisotropy =     7.4755

 The electronic state is 1-A.
 Alpha  occ. eigenvalues --  -77.23805 -77.22542 -10.30162 -10.29987 -10.29973
 Alpha  occ. eigenvalues --  -10.29676 -10.29658 -10.29512 -10.29344 -10.29053
 Alpha  occ. eigenvalues --  -10.28947 -10.28877 -10.28554 -10.28530 -10.28205
 Alpha  occ. eigenvalues --  -10.28126 -10.27730 -10.27706 -10.27665 -10.27618
 Alpha  occ. eigenvalues --  -10.27576 -10.27517 -10.27509 -10.27443 -10.27366
 Alpha  occ. eigenvalues --  -10.27336 -10.27250 -10.27204 -10.27091 -10.27061
 Alpha  occ. eigenvalues --  -10.27024 -10.26977 -10.26877 -10.26711 -10.26664
 Alpha  occ. eigenvalues --   -6.69734  -6.68626  -4.86023  -4.85963  -4.85628
 Alpha  occ. eigenvalues --   -4.84912  -4.84805  -4.84539  -3.31534  -2.08401
 Alpha  occ. eigenvalues --   -2.07740  -2.05027  -0.97851  -0.96338  -0.95236
 Alpha  occ. eigenvalues --   -0.94564  -0.92359  -0.89535  -0.89256  -0.88578
 Alpha  occ. eigenvalues --   -0.88116  -0.87888  -0.85360  -0.84997  -0.84547
 Alpha  occ. eigenvalues --   -0.84272  -0.82584  -0.80432  -0.79704  -0.79230
 Alpha  occ. eigenvalues --   -0.77912  -0.75747  -0.73410  -0.72138  -0.71534
 Alpha  occ. eigenvalues --   -0.70828  -0.70654  -0.69986  -0.69556  -0.68663
 Alpha  occ. eigenvalues --   -0.66555  -0.66064  -0.64336  -0.62827  -0.62546
 Alpha  occ. eigenvalues --   -0.61617  -0.60351  -0.59568  -0.58307  -0.57485
 Alpha  occ. eigenvalues --   -0.57145  -0.56811  -0.56487  -0.56451  -0.55953
 Alpha  occ. eigenvalues --   -0.55602  -0.55517  -0.55065  -0.54786  -0.53940
 Alpha  occ. eigenvalues --   -0.53713  -0.53230  -0.52762  -0.52730  -0.52660
 Alpha  occ. eigenvalues --   -0.52216  -0.51916  -0.51823  -0.50918  -0.50755
 Alpha  occ. eigenvalues --   -0.50428  -0.49545  -0.49166  -0.48299  -0.48079
 Alpha  occ. eigenvalues --   -0.48072  -0.47553  -0.47159  -0.46897  -0.46472
 Alpha  occ. eigenvalues --   -0.46308  -0.46038  -0.45986  -0.45949  -0.45620
 Alpha  occ. eigenvalues --   -0.45032  -0.44983  -0.44318  -0.44088  -0.43564
 Alpha  occ. eigenvalues --   -0.43321  -0.43126  -0.42815  -0.42008  -0.41555
 Alpha  occ. eigenvalues --   -0.40826  -0.37963  -0.36927  -0.36744  -0.36302
 Alpha  occ. eigenvalues --   -0.35933  -0.35587  -0.35278  -0.34773  -0.34295
 Alpha  occ. eigenvalues --   -0.34033  -0.33643  -0.30776
 Alpha virt. eigenvalues --   -0.16382  -0.14799  -0.13565  -0.12665  -0.11909
 Alpha virt. eigenvalues --   -0.11328  -0.10844  -0.09936  -0.09395  -0.08182
 Alpha virt. eigenvalues --   -0.07223  -0.06984  -0.06601  -0.06490  -0.05557

 Mulliken charges:
               1
     1  P    0.261526
     2  P    0.469218
     3  C   -0.164247
     4  C   -0.084511
     5  H    0.176833
     6  C   -0.117042
     7  H    0.128793
     8  C   -0.056888
     9  H    0.138733
    10  C   -0.137981
    11  H    0.140637
    12  C    0.085015
    13  C   -0.175297
    14  C   -0.103561
    15  H    0.141021
    16  C   -0.121408
    17  H    0.130786
    18  C   -0.086538
    19  H    0.135795
    20  C   -0.132355
    21  H    0.130469
    22  C   -0.056424
    23  H    0.128677
    24  C   -0.279557
    25  C    0.003191
    26  H    0.186885
    27  C   -0.110266
    28  H    0.129592
    29  C   -0.083282
    30  H    0.138535
    31  C   -0.109399
    32  H    0.135219
    33  C   -0.045001
    34  H    0.178878
    35  C   -0.579388
    36  H    0.219284
    37  H    0.206376
    38  C   -0.179225
    39  H    0.184501
    40  C   -0.412139
    41  H    0.148457
    42  H    0.159164
    43  H    0.127293
    44  C   -0.401364
    45  H    0.138294
    46  H    0.157187
    47  H    0.148970
    48  C   -0.196581
    49  H    0.172434
    50  C   -0.399718
    51  H    0.151526
    52  H    0.147341
    53  H    0.154915
    54  C   -0.423088
    55  H    0.140874
    56  H    0.153773
    57  H    0.159330
    58  Rh  -0.590549
    59  C   -0.001447
    60  C   -0.086609
    61  C   -0.001634
    62  C   -0.098776
    63  H    0.191139
    64  C   -0.371483
    65  H    0.183293
    66  C   -0.230957
    67  C   -0.360453
    68  H    0.176450
    69  H    0.170704
    70  C   -0.225430
    71  H    0.170539
    72  H    0.171556
    73  H    0.171179
    74  H    0.135975
    75  H    0.169102
    76  H    0.168940
    77  H    0.171649
    78  H    0.132551
 Sum of Mulliken charges =   1.00000

 Dipole moment (field-independent basis, Debye):
    X=              1.1712    Y=              1.3898    Z=              0.5154  Tot=              1.8891
 Quadrupole moment (field-independent basis, Debye-Ang):
   XX=           -196.4634   YY=           -202.8151   ZZ=           -210.4732
   XY=             -0.8336   XZ=              0.6534   YZ=              1.1326

 Summary of Natural Population Analysis:

                                       Natural Population
                Natural  -----------------------------------------------
    Atom  No    Charge         Core      Valence    Rydberg      Total
 -----------------------------------------------------------------------
      P    1    1.08692      9.99662     3.86655    0.04991    13.91308
      P    2    1.10950      9.99672     3.84771    0.04608    13.89050
      C    3   -0.32281      1.99889     4.30109    0.02283     6.32281
      C    4   -0.18797      1.99912     4.17331    0.01553     6.18797
      H    5    0.21106      0.00000     0.78673    0.00221     0.78894
      C    6   -0.19512      1.99918     4.18134    0.01461     6.19512
      H    7    0.22382      0.00000     0.77498    0.00120     0.77618
      C    8   -0.17342      1.99920     4.15972    0.01450     6.17342
      H    9    0.22506      0.00000     0.77379    0.00115     0.77494
      C   10   -0.17863      1.99912     4.16559    0.01391     6.17863
      H   11    0.22338      0.00000     0.77511    0.00151     0.77662
      C   12   -0.03608      1.99896     4.01556    0.02156     6.03608
      C   13   -0.06403      1.99906     4.04402    0.02095     6.06403
      C   14   -0.21022      1.99909     4.19636    0.01477     6.21022
      H   15    0.21706      0.00000     0.78127    0.00168     0.78294
      C   16   -0.19752      1.99920     4.18309    0.01523     6.19752
      H   17    0.22039      0.00000     0.77839    0.00123     0.77961
      C   18   -0.19949      1.99920     4.18540    0.01489     6.19949
      H   19    0.22107      0.00000     0.77777    0.00117     0.77893
      C   20   -0.19491      1.99920     4.18067    0.01504     6.19491
      H   21    0.21969      0.00000     0.77904    0.00127     0.78031
      C   22   -0.20374      1.99909     4.18923    0.01543     6.20374
      H   23    0.21467      0.00000     0.78294    0.00239     0.78533
      C   24   -0.33657      1.99898     4.31374    0.02385     6.33657
      C   25   -0.19329      1.99910     4.17836    0.01584     6.19329
      H   26    0.22037      0.00000     0.77745    0.00218     0.77963
      C   27   -0.19625      1.99919     4.18251    0.01455     6.19625
      H   28    0.22004      0.00000     0.77872    0.00124     0.77996
      C   29   -0.17778      1.99920     4.16396    0.01462     6.17778
      H   30    0.22294      0.00000     0.77588    0.00118     0.77706
      C   31   -0.19117      1.99920     4.17739    0.01458     6.19117
      H   32    0.22282      0.00000     0.77596    0.00122     0.77718
      C   33   -0.19556      1.99909     4.18071    0.01577     6.19556
      H   34    0.22041      0.00000     0.77761    0.00198     0.77959
      C   35   -1.00245      1.99942     4.98573    0.01731     7.00245
      H   36    0.26494      0.00000     0.73310    0.00196     0.73506
      H   37    0.27999      0.00000     0.71732    0.00269     0.72001
      C   38   -0.46783      1.99941     4.45339    0.01504     6.46783
      H   39    0.22248      0.00000     0.77500    0.00252     0.77752
      C   40   -0.59348      1.99941     4.58669    0.00737     6.59348
      H   41    0.21054      0.00000     0.78794    0.00152     0.78946
      H   42    0.22405      0.00000     0.77445    0.00150     0.77595
      H   43    0.20557      0.00000     0.79280    0.00163     0.79443
      C   44   -0.59847      1.99941     4.59145    0.00761     6.59847
      H   45    0.20373      0.00000     0.79478    0.00149     0.79627
      H   46    0.22621      0.00000     0.77230    0.00149     0.77379
      H   47    0.21060      0.00000     0.78793    0.00146     0.78940
      C   48   -0.46088      1.99941     4.44715    0.01432     6.46088
      H   49    0.22192      0.00000     0.77620    0.00188     0.77808
      C   50   -0.60438      1.99941     4.59662    0.00835     6.60438
      H   51    0.22444      0.00000     0.77405    0.00151     0.77556
      H   52    0.20885      0.00000     0.78969    0.00146     0.79115
      H   53    0.20975      0.00000     0.78857    0.00168     0.79025
      C   54   -0.59083      1.99941     4.58320    0.00823     6.59083
      H   55    0.20231      0.00000     0.79564    0.00205     0.79769
      H   56    0.22073      0.00000     0.77785    0.00141     0.77927
      H   57    0.22164      0.00000     0.77681    0.00155     0.77836
     Rh   58   -0.38297     35.98586     9.36966    0.02745    45.38297
      C   59   -0.18011      1.99908     4.16157    0.01947     6.18011
      C   60   -0.16443      1.99908     4.14530    0.02005     6.16443
      C   61   -0.18220      1.99908     4.16384    0.01928     6.18220
      C   62   -0.15531      1.99908     4.13620    0.02003     6.15531
      H   63    0.22716      0.00000     0.77089    0.00194     0.77284
      C   64   -0.42353      1.99936     4.41221    0.01196     6.42353
      H   65    0.22713      0.00000     0.77043    0.00244     0.77287
      C   66   -0.41776      1.99935     4.40575    0.01266     6.41776
      C   67   -0.42229      1.99936     4.41110    0.01183     6.42229
      H   68    0.22217      0.00000     0.77587    0.00196     0.77783
      H   69    0.21942      0.00000     0.77825    0.00233     0.78058
      C   70   -0.41721      1.99935     4.40513    0.01273     6.41721
      H   71    0.21548      0.00000     0.78253    0.00199     0.78452
      H   72    0.22910      0.00000     0.76941    0.00148     0.77090
      H   73    0.23381      0.00000     0.76428    0.00191     0.76619
      H   74    0.21654      0.00000     0.78190    0.00156     0.78346
      H   75    0.22829      0.00000     0.77022    0.00150     0.77171
      H   76    0.21513      0.00000     0.78289    0.00198     0.78487
      H   77    0.23371      0.00000     0.76440    0.00189     0.76629
      H   78    0.21380      0.00000     0.78454    0.00166     0.78620
 =======================================================================
   * Total *    1.00000    121.95289   191.34697    0.70015   314.00000

 Normal termination of Gaussian 16 at Wed Nov  6 00:10:58 2024.
