 Gaussian 16, Revision B.01,
 Gaussian 16:  ES64L-G16RevB.01 20-Dec-2017

 ------------------------------------------
 # nmr=giao b3lyp/genecp pop=nbo scfcyc=200
 ------------------------------------------

 ---------
 MB-76_SPE
 ---------
 Symbolic Z-matrix:
 Charge =  1 Multiplicity = 1

                         Standard orientation:
 ---------------------------------------------------------------------
 Center     Atomic      Atomic             Coordinates (Angstroms)
 Number     Number       Type             X           Y           Z
 ---------------------------------------------------------------------
      1         45           0       -0.199130   -0.763250    0.839090
      2         15           0       -0.261009    1.178570   -0.532270
      3         15           0        0.989200   -1.289381   -1.199370
      4          6           0       -1.987430   -0.413629    2.139320
      5          1           0       -2.598329    0.257511    1.547430
      6          6           0       -0.908279    0.132890    2.805260
      7          1           0       -0.742679    1.196870    2.676680
      8          6           0       -0.188770   -0.498060    3.982280
      9          1           0       -0.894820   -1.080980    4.573670
     10          1           0        0.168771    0.294820    4.641440
     11          6           0        1.014120   -1.369781    3.566330
     12          1           0        1.886710   -0.729001    3.422110
     13          1           0        1.277830   -2.056141    4.380970
     14          6           0        0.807220   -2.153861    2.294560
     15          1           0        1.725999   -2.445631    1.799700
     16          6           0       -0.345201   -2.795320    1.892130
     17          1           0       -0.243741   -3.513560    1.088190
     18          6           0       -1.626441   -2.892119    2.696050
     19          1           0       -1.390071   -2.920620    3.759770
     20          1           0       -2.107111   -3.845489    2.470600
     21          6           0       -2.624810   -1.755739    2.394890
     22          1           0       -3.208540   -2.016389    1.509630
     23          1           0       -3.349430   -1.668519    3.214230
     24          6           0       -3.118839    1.637641   -1.065670
     25          6           0       -3.676008    2.068562    0.143540
     26          1           0       -3.093028    2.673421    0.828800
     27          6           0       -4.985329    1.747912    0.483960
     28          1           0       -5.397208    2.098802    1.422140
     29          6           0       -5.768739    0.990083   -0.381270
     30          1           0       -6.791429    0.748593   -0.121010
     31          6           0       -5.231899    0.560422   -1.589320
     32          1           0       -5.836679   -0.015987   -2.278340
     33          6           0       -3.920789    0.882892   -1.925530
     34          1           0       -3.524009    0.558401   -2.880290
     35          6           0       -1.715058    2.017361   -1.476890
     36          1           0       -1.566919    1.689630   -2.506960
     37          6           0       -1.428688    3.539750   -1.391950
     38          1           0       -1.793937    4.032041   -2.294890
     39          1           0       -1.985657    3.967981   -0.557510
     40          6           0        0.062612    3.780920   -1.174050
     41          1           0        0.265813    4.821930   -0.913580
     42          1           0        0.617362    3.568639   -2.091390
     43          6           0        0.512862    2.846769   -0.040250
     44          1           0       -0.046618    3.120990    0.860110
     45          6           0        1.979242    2.845539    0.313170
     46          6           0        2.974962    3.131568   -0.626670
     47          1           0        2.711682    3.368068   -1.649530
     48          6           0        4.318282    3.155778   -0.259920
     49          1           0        5.070652    3.394177   -1.001490
     50          6           0        4.692302    2.894407    1.052720
     51          1           0        5.735782    2.924397    1.339440
     52          6           0        3.711762    2.613098    1.999820
     53          1           0        3.990362    2.426368    3.029600
     54          6           0        2.372492    2.590639    1.631830
     55          1           0        1.617452    2.389569    2.383010
     56          6           0        0.866831    0.469529   -1.850570
     57          1           0        1.840121    0.955969   -1.794190
     58          1           0        0.500231    0.559169   -2.872390
     59          6           0        2.872610   -1.688662   -1.219850
     60          6           0        3.508980   -0.857442   -0.090360
     61          1           0        3.414661    0.215518   -0.255620
     62          1           0        4.577490   -1.084383   -0.050650
     63          1           0        3.082870   -1.083972    0.885230
     64          6           0        3.556480   -1.303102   -2.542410
     65          1           0        3.222150   -1.901952   -3.385380
     66          1           0        4.632510   -1.464843   -2.434620
     67          1           0        3.417730   -0.250562   -2.792690
     68          6           0        3.100089   -3.182512   -0.938250
     69          1           0        2.587369   -3.522922   -0.036800
     70          1           0        4.168929   -3.355222   -0.788600
     71          1           0        2.785889   -3.813102   -1.769410
     72          6           0       -0.011571   -2.364930   -2.443660
     73          6           0        0.659059   -2.491481   -3.818830
     74          1           0        0.926120   -1.524281   -4.248330
     75          1           0       -0.042741   -2.969090   -4.508160
     76          1           0        1.551779   -3.114321   -3.788790
     77          6           0       -1.383220   -1.691040   -2.617690
     78          1           0       -1.875090   -1.504069   -1.661430
     79          1           0       -2.028721   -2.353759   -3.199830
     80          1           0       -1.315070   -0.750550   -3.165070
     81          6           0       -0.245381   -3.763890   -1.848070
     82          1           0        0.678258   -4.296151   -1.627820
     83          1           0       -0.802342   -4.364520   -2.571890
     84          1           0       -0.843091   -3.713580   -0.938560
 ---------------------------------------------------------------------

 SCF Done:  E(RB3LYP) =  -2080.06460501     A.U. after   16 cycles

      1  Rh   Isotropic =  -350.1373   Anisotropy =   408.5972

      2  P    Isotropic =   290.6153   Anisotropy =   141.2916

      3  P    Isotropic =   283.2339   Anisotropy =   138.3288

      4  C    Isotropic =    77.6524   Anisotropy =   118.5428

      5  H    Isotropic =    26.7267   Anisotropy =    11.1416

      6  C    Isotropic =    84.0250   Anisotropy =   115.0973

      7  H    Isotropic =    27.1070   Anisotropy =     4.7361

      8  C    Isotropic =   154.6431   Anisotropy =    23.8489

      9  H    Isotropic =    29.9460   Anisotropy =     9.6685

     10  H    Isotropic =    29.8337   Anisotropy =    10.7303

     11  C    Isotropic =   147.8975   Anisotropy =    28.4835

     12  H    Isotropic =    29.1557   Anisotropy =     7.0733

     13  H    Isotropic =    29.2369   Anisotropy =    12.8617

     14  C    Isotropic =    75.3256   Anisotropy =   119.1310

     15  H    Isotropic =    26.4224   Anisotropy =     2.9614

     16  C    Isotropic =    79.6737   Anisotropy =   122.8722

     17  H    Isotropic =    27.1959   Anisotropy =     5.5094

     18  C    Isotropic =   155.2445   Anisotropy =    23.9050

     19  H    Isotropic =    30.0970   Anisotropy =     9.8487

     20  H    Isotropic =    30.1573   Anisotropy =    11.4675

     21  C    Isotropic =   147.4514   Anisotropy =    30.1822

     22  H    Isotropic =    29.7977   Anisotropy =     6.6887

     23  H    Isotropic =    29.4834   Anisotropy =    11.8213

     24  C    Isotropic =    37.4784   Anisotropy =   195.2514

     25  C    Isotropic =    52.1862   Anisotropy =   181.8945

     26  H    Isotropic =    24.7132   Anisotropy =     9.7025

     27  C    Isotropic =    48.9061   Anisotropy =   190.4846

     28  H    Isotropic =    24.1854   Anisotropy =     6.0022

     29  C    Isotropic =    49.3535   Anisotropy =   191.5524

     30  H    Isotropic =    24.1873   Anisotropy =     3.3144

     31  C    Isotropic =    48.8801   Anisotropy =   188.2869

     32  H    Isotropic =    24.2564   Anisotropy =     5.5818

     33  C    Isotropic =    48.7452   Anisotropy =   161.7533

     34  H    Isotropic =    24.5934   Anisotropy =     8.4022

     35  C    Isotropic =   118.8731   Anisotropy =    32.8413

     36  H    Isotropic =    28.4989   Anisotropy =     6.0083

     37  C    Isotropic =   143.2585   Anisotropy =    32.2575

     38  H    Isotropic =    29.2445   Anisotropy =     9.9585

     39  H    Isotropic =    29.8172   Anisotropy =     7.4493

     40  C    Isotropic =   149.3769   Anisotropy =    24.1905

     41  H    Isotropic =    29.5940   Anisotropy =    10.9085

     42  H    Isotropic =    29.6526   Anisotropy =     7.3505

     43  C    Isotropic =   125.3522   Anisotropy =    35.9056

     44  H    Isotropic =    28.2957   Anisotropy =     4.8448

     45  C    Isotropic =    43.3388   Anisotropy =   188.2936

     46  C    Isotropic =    52.6439   Anisotropy =   183.7191

     47  H    Isotropic =    24.3798   Anisotropy =    10.0973

     48  C    Isotropic =    48.5886   Anisotropy =   191.4497

     49  H    Isotropic =    24.0893   Anisotropy =     5.2337

     50  C    Isotropic =    49.0645   Anisotropy =   192.1797

     51  H    Isotropic =    24.1835   Anisotropy =     3.1660

     52  C    Isotropic =    48.7658   Anisotropy =   189.8590

     53  H    Isotropic =    24.1225   Anisotropy =     5.7882

     54  C    Isotropic =    48.0251   Anisotropy =   166.6664

     55  H    Isotropic =    24.1707   Anisotropy =     7.5616

     56  C    Isotropic =   143.0555   Anisotropy =    51.0928

     57  H    Isotropic =    28.5295   Anisotropy =     4.7022

     58  H    Isotropic =    29.3937   Anisotropy =     6.3218

     59  C    Isotropic =   135.3652   Anisotropy =    33.3310

     60  C    Isotropic =   154.2443   Anisotropy =    44.1838

     61  H    Isotropic =    32.5876   Anisotropy =    15.4040

     62  H    Isotropic =    31.7511   Anisotropy =     8.4456

     63  H    Isotropic =    31.1579   Anisotropy =     5.6519

     64  C    Isotropic =   158.3159   Anisotropy =    38.2170

     65  H    Isotropic =    30.6828   Anisotropy =     8.1700

     66  H    Isotropic =    31.2081   Anisotropy =    10.5532

     67  H    Isotropic =    31.0898   Anisotropy =     4.9060

     68  C    Isotropic =   156.1238   Anisotropy =    35.7723

     69  H    Isotropic =    31.2212   Anisotropy =     5.2061

     70  H    Isotropic =    31.0077   Anisotropy =    10.7013

     71  H    Isotropic =    30.7548   Anisotropy =     8.2858

     72  C    Isotropic =   135.0667   Anisotropy =    33.9265

     73  C    Isotropic =   156.7216   Anisotropy =    34.0334

     74  H    Isotropic =    30.7437   Anisotropy =     6.5051

     75  H    Isotropic =    30.7884   Anisotropy =    10.9150

     76  H    Isotropic =    30.6054   Anisotropy =     8.3751

     77  C    Isotropic =   149.1175   Anisotropy =    42.5375

     78  H    Isotropic =    29.9301   Anisotropy =     7.7319

     79  H    Isotropic =    30.7160   Anisotropy =     8.8792

     80  H    Isotropic =    30.5625   Anisotropy =     5.8668

     81  C    Isotropic =   154.8367   Anisotropy =    38.8105

     82  H    Isotropic =    30.5595   Anisotropy =     6.7096

     83  H    Isotropic =    30.8659   Anisotropy =    10.6519

     84  H    Isotropic =    30.6585   Anisotropy =     6.1649

 The electronic state is 1-A.
 Alpha  occ. eigenvalues --  -77.23050 -77.22625 -10.31169 -10.31005 -10.30485
 Alpha  occ. eigenvalues --  -10.30408 -10.29988 -10.29274 -10.28887 -10.28859
 Alpha  occ. eigenvalues --  -10.28792 -10.28741 -10.28483 -10.28074 -10.27927
 Alpha  occ. eigenvalues --  -10.27630 -10.27385 -10.27347 -10.27270 -10.27239
 Alpha  occ. eigenvalues --  -10.27167 -10.27060 -10.26922 -10.26915 -10.26910
 Alpha  occ. eigenvalues --  -10.26898 -10.26768 -10.26750 -10.26745 -10.26652
 Alpha  occ. eigenvalues --  -10.26615 -10.26567 -10.26411 -10.26375 -10.26159
 Alpha  occ. eigenvalues --   -6.69035  -6.68605  -4.85310  -4.85236  -4.84938
 Alpha  occ. eigenvalues --   -4.84905  -4.84782  -4.84511  -3.31500  -2.08374
 Alpha  occ. eigenvalues --   -2.07715  -2.04949  -0.96807  -0.95916  -0.94522
 Alpha  occ. eigenvalues --   -0.93684  -0.93234  -0.91591  -0.89175  -0.88172
 Alpha  occ. eigenvalues --   -0.88093  -0.86034  -0.84991  -0.84474  -0.84271
 Alpha  occ. eigenvalues --   -0.80433  -0.80097  -0.79905  -0.79727  -0.79189
 Alpha  occ. eigenvalues --   -0.78913  -0.77889  -0.77835  -0.73083  -0.71554
 Alpha  occ. eigenvalues --   -0.70614  -0.70420  -0.70184  -0.69439  -0.66863
 Alpha  occ. eigenvalues --   -0.66122  -0.65862  -0.65240  -0.62868  -0.62456
 Alpha  occ. eigenvalues --   -0.61691  -0.61065  -0.60236  -0.58641  -0.57868
 Alpha  occ. eigenvalues --   -0.57521  -0.57203  -0.56583  -0.56364  -0.55881
 Alpha  occ. eigenvalues --   -0.55449  -0.55202  -0.54865  -0.54639  -0.54405
 Alpha  occ. eigenvalues --   -0.53912  -0.53713  -0.53652  -0.52910  -0.52763
 Alpha  occ. eigenvalues --   -0.52586  -0.52013  -0.51706  -0.51168  -0.50768
 Alpha  occ. eigenvalues --   -0.50369  -0.49719  -0.49439  -0.48966  -0.48666
 Alpha  occ. eigenvalues --   -0.48419  -0.48100  -0.47931  -0.47711  -0.47597
 Alpha  occ. eigenvalues --   -0.47124  -0.46858  -0.46406  -0.45968  -0.45896
 Alpha  occ. eigenvalues --   -0.45373  -0.45153  -0.45094  -0.44500  -0.44353
 Alpha  occ. eigenvalues --   -0.43905  -0.43878  -0.43673  -0.43293  -0.43081
 Alpha  occ. eigenvalues --   -0.43040  -0.42806  -0.42180  -0.41861  -0.40477
 Alpha  occ. eigenvalues --   -0.40348  -0.37105  -0.36218  -0.35351  -0.35085
 Alpha  occ. eigenvalues --   -0.35035  -0.34653  -0.34474  -0.33916  -0.33288
 Alpha  occ. eigenvalues --   -0.30761
 Alpha virt. eigenvalues --   -0.16360  -0.14476  -0.11878  -0.11075  -0.10939
 Alpha virt. eigenvalues --   -0.10706  -0.09231  -0.08418  -0.08258  -0.07892
 Alpha virt. eigenvalues --   -0.07369  -0.06757  -0.06008  -0.05655  -0.05118

 Mulliken charges:
               1
     1  Rh  -0.457574
     2  P    0.432214
     3  P    0.376050
     4  C   -0.093756
     5  H    0.269422
     6  C   -0.040937
     7  H    0.171012
     8  C   -0.376674
     9  H    0.171302
    10  H    0.166572
    11  C   -0.214558
    12  H    0.130311
    13  H    0.171545
    14  C   -0.120149
    15  H    0.175526
    16  C   -0.009525
    17  H    0.184492
    18  C   -0.355891
    19  H    0.167826
    20  H    0.167522
    21  C   -0.237003
    22  H    0.138438
    23  H    0.171738
    24  C    0.165133
    25  C   -0.283807
    26  H    0.125653
    27  C   -0.044578
    28  H    0.129408
    29  C   -0.142154
    30  H    0.130521
    31  C   -0.066576
    32  H    0.129916
    33  C   -0.188115
    34  H    0.117855
    35  C   -0.283992
    36  H    0.195881
    37  C   -0.307516
    38  H    0.163194
    39  H    0.178893
    40  C   -0.229148
    41  H    0.172065
    42  H    0.141116
    43  C   -0.398755
    44  H    0.210337
    45  C    0.114547
    46  C   -0.186739
    47  H    0.139845
    48  C   -0.087502
    49  H    0.128756
    50  C   -0.112494
    51  H    0.132999
    52  C   -0.098684
    53  H    0.126333
    54  C   -0.131922
    55  H    0.108578
    56  C   -0.602178
    57  H    0.199986
    58  H    0.202586
    59  C   -0.079451
    60  C   -0.369498
    61  H    0.143957
    62  H    0.153600
    63  H    0.121189
    64  C   -0.362542
    65  H    0.151863
    66  H    0.149616
    67  H    0.136027
    68  C   -0.421407
    69  H    0.147260
    70  H    0.155353
    71  H    0.147517
    72  C    0.021121
    73  C   -0.393311
    74  H    0.139882
    75  H    0.151932
    76  H    0.143953
    77  C   -0.468104
    78  H    0.189697
    79  H    0.159578
    80  H    0.126222
    81  C   -0.432624
    82  H    0.158647
    83  H    0.155059
    84  H    0.137121
 Sum of Mulliken charges =   1.00000

 Dipole moment (field-independent basis, Debye):
    X=              0.7141    Y=             -1.1005    Z=             -0.9933  Tot=              1.6455
 Quadrupole moment (field-independent basis, Debye-Ang):
   XX=           -204.9922   YY=           -218.9234   ZZ=           -211.9527
   XY=              0.8773   XZ=             -3.4786   YZ=              0.6199

 Summary of Natural Population Analysis:

                                       Natural Population
                Natural  -----------------------------------------------
    Atom  No    Charge         Core      Valence    Rydberg      Total
 -----------------------------------------------------------------------
     Rh    1   -0.32650     35.98570     9.31243    0.02837    45.32650
      P    2    1.04603      9.99695     3.91092    0.04610    13.95397
      P    3    1.07939      9.99688     3.87842    0.04531    13.92061
      C    4   -0.16657      1.99911     4.14750    0.01996     6.16657
      H    5    0.23762      0.00000     0.76000    0.00239     0.76238
      C    6   -0.18477      1.99910     4.16629    0.01939     6.18477
      H    7    0.21608      0.00000     0.78175    0.00216     0.78392
      C    8   -0.42227      1.99935     4.41096    0.01195     6.42227
      H    9    0.21640      0.00000     0.78164    0.00196     0.78360
      H   10    0.22582      0.00000     0.77264    0.00153     0.77418
      C   11   -0.41817      1.99934     4.40604    0.01279     6.41817
      H   12    0.21702      0.00000     0.78106    0.00192     0.78298
      H   13    0.23335      0.00000     0.76475    0.00190     0.76665
      C   14   -0.15907      1.99910     4.13987    0.02010     6.15907
      H   15    0.21931      0.00000     0.77834    0.00235     0.78069
      C   16   -0.18595      1.99910     4.16739    0.01946     6.18595
      H   17    0.22293      0.00000     0.77487    0.00220     0.77707
      C   18   -0.42322      1.99935     4.41202    0.01185     6.42322
      H   19    0.21548      0.00000     0.78258    0.00195     0.78452
      H   20    0.22803      0.00000     0.77048    0.00149     0.77197
      C   21   -0.41642      1.99934     4.40450    0.01258     6.41642
      H   22    0.21940      0.00000     0.77878    0.00182     0.78060
      H   23    0.23296      0.00000     0.76518    0.00186     0.76704
      C   24   -0.04114      1.99906     4.02210    0.01997     6.04114
      C   25   -0.22238      1.99909     4.20875    0.01453     6.22238
      H   26    0.20450      0.00000     0.79343    0.00207     0.79550
      C   27   -0.19274      1.99920     4.17866    0.01487     6.19274
      H   28    0.21844      0.00000     0.78029    0.00127     0.78156
      C   29   -0.19823      1.99920     4.18429    0.01474     6.19823
      H   30    0.22056      0.00000     0.77824    0.00120     0.77944
      C   31   -0.19018      1.99920     4.17636    0.01462     6.19018
      H   32    0.21881      0.00000     0.77996    0.00123     0.78119
      C   33   -0.19823      1.99911     4.18465    0.01448     6.19823
      H   34    0.20558      0.00000     0.79278    0.00165     0.79442
      C   35   -0.44926      1.99929     4.43200    0.01797     6.44926
      H   36    0.22683      0.00000     0.77022    0.00294     0.77317
      C   37   -0.38811      1.99939     4.37696    0.01176     6.38811
      H   38    0.23067      0.00000     0.76781    0.00153     0.76933
      H   39    0.20821      0.00000     0.79013    0.00166     0.79179
      C   40   -0.39559      1.99938     4.38421    0.01201     6.39559
      H   41    0.23495      0.00000     0.76347    0.00158     0.76505
      H   42    0.19617      0.00000     0.80210    0.00173     0.80383
      C   43   -0.45534      1.99931     4.43864    0.01739     6.45534
      H   44    0.22907      0.00000     0.76825    0.00269     0.77093
      C   45   -0.04543      1.99906     4.02588    0.02050     6.04543
      C   46   -0.22103      1.99909     4.20762    0.01432     6.22103
      H   47    0.20865      0.00000     0.78951    0.00184     0.79135
      C   48   -0.19307      1.99920     4.17883    0.01504     6.19307
      H   49    0.21928      0.00000     0.77944    0.00127     0.78072
      C   50   -0.19902      1.99920     4.18497    0.01485     6.19902
      H   51    0.22083      0.00000     0.77795    0.00122     0.77917
      C   52   -0.19140      1.99920     4.17766    0.01453     6.19140
      H   53    0.21758      0.00000     0.78117    0.00125     0.78242
      C   54   -0.19380      1.99911     4.18020    0.01449     6.19380
      H   55    0.20579      0.00000     0.79230    0.00190     0.79421
      C   56   -1.02480      1.99940     5.00691    0.01849     7.02480
      H   57    0.26647      0.00000     0.73104    0.00249     0.73353
      H   58    0.24873      0.00000     0.74885    0.00241     0.75127
      C   59   -0.26028      1.99942     4.24417    0.01670     6.26028
      C   60   -0.60097      1.99936     4.59145    0.01016     6.60097
      H   61    0.21690      0.00000     0.78107    0.00203     0.78310
      H   62    0.22003      0.00000     0.77812    0.00185     0.77997
      H   63    0.21215      0.00000     0.78610    0.00175     0.78785
      C   64   -0.60643      1.99935     4.59817    0.00890     6.60643
      H   65    0.21260      0.00000     0.78577    0.00163     0.78740
      H   66    0.22166      0.00000     0.77658    0.00176     0.77834
      H   67    0.20508      0.00000     0.79326    0.00166     0.79492
      C   68   -0.60416      1.99935     4.59652    0.00829     6.60416
      H   69    0.20725      0.00000     0.79122    0.00153     0.79275
      H   70    0.22296      0.00000     0.77522    0.00182     0.77704
      H   71    0.20823      0.00000     0.79002    0.00175     0.79177
      C   72   -0.26080      1.99941     4.24365    0.01775     6.26080
      C   73   -0.60619      1.99935     4.59798    0.00886     6.60619
      H   74    0.20639      0.00000     0.79180    0.00180     0.79361
      H   75    0.22170      0.00000     0.77651    0.00180     0.77830
      H   76    0.20920      0.00000     0.78909    0.00171     0.79080
      C   77   -0.60271      1.99936     4.59353    0.00983     6.60271
      H   78    0.22546      0.00000     0.77293    0.00161     0.77454
      H   79    0.22460      0.00000     0.77353    0.00188     0.77540
      H   80    0.19696      0.00000     0.80094    0.00210     0.80304
      C   81   -0.60118      1.99935     4.59365    0.00818     6.60118
      H   82    0.21150      0.00000     0.78686    0.00165     0.78850
      H   83    0.22031      0.00000     0.77788    0.00181     0.77969
      H   84    0.21149      0.00000     0.78696    0.00155     0.78851
 =======================================================================
   * Total *    1.00000    121.95478   197.35702    0.68820   320.00000

 Normal termination of Gaussian 16 at Tue Jan 21 16:19:18 2025.
