 Gaussian 16, Revision B.01,
 Gaussian 16:  ES64L-G16RevB.01 20-Dec-2017

 ------------------------------------------
 # nmr=giao b3lyp/genecp pop=nbo scfcyc=200
 ------------------------------------------

 ---------
 MB-72_SPE
 ---------
 Symbolic Z-matrix:
 Charge =  1 Multiplicity = 1

                         Standard orientation:
 ---------------------------------------------------------------------
 Center     Atomic      Atomic             Coordinates (Angstroms)
 Number     Number       Type             X           Y           Z
 ---------------------------------------------------------------------
      1         15           0       -1.333259    0.097839   -0.659760
      2         15           0        1.496581    0.036961   -0.626650
      3          6           0        0.097901    0.019400   -1.878590
      4          1           0        0.095522   -0.910680   -2.445450
      5          1           0        0.118460    0.846680   -2.588430
      6          6           0       -2.605858   -1.155493   -1.261930
      7          1           0       -2.812218   -0.873263   -2.300260
      8          6           0       -2.047097   -2.589492   -1.256560
      9          1           0       -1.148907   -2.654331   -1.873540
     10          1           0       -1.746486   -2.860332   -0.239220
     11          6           0       -3.082816   -3.600323   -1.769070
     12          1           0       -2.662295   -4.607483   -1.715480
     13          1           0       -3.284696   -3.404093   -2.827910
     14          6           0       -4.391266   -3.523014   -0.979680
     15          1           0       -5.124525   -4.217125   -1.396170
     16          1           0       -4.213466   -3.842724    0.053630
     17          6           0       -4.950297   -2.099035   -0.983120
     18          1           0       -5.854437   -2.040586   -0.372550
     19          1           0       -5.245797   -1.826545   -2.002380
     20          6           0       -3.923688   -1.079934   -0.467600
     21          1           0       -3.727038   -1.275794    0.591840
     22          1           0       -4.350809   -0.078384   -0.524650
     23          6           0       -2.043411    1.819468   -0.969840
     24          1           0       -1.133482    2.424559   -1.034990
     25          6           0       -2.864562    2.391157    0.199260
     26          1           0       -3.764481    1.791356    0.361900
     27          1           0       -2.279302    2.342408    1.119480
     28          6           0       -3.275113    3.844767   -0.079680
     29          1           0       -3.894703    4.211576    0.742180
     30          1           0       -2.377704    4.473798   -0.096380
     31          6           0       -4.016953    3.985226   -1.411660
     32          1           0       -4.975893    3.457985   -1.351910
     33          1           0       -4.253074    5.034636   -1.601660
     34          6           0       -3.194823    3.412257   -2.569220
     35          1           0       -2.292173    4.017318   -2.710740
     36          1           0       -3.757573    3.471476   -3.503880
     37          6           0       -2.792531    1.952867   -2.307650
     38          1           0       -3.696471    1.337356   -2.289340
     39          1           0       -2.179231    1.585038   -3.135250
     40          6           0        2.612492   -1.426137   -1.023910
     41          1           0        3.423082   -1.328587   -0.292610
     42          6           0        3.225312   -1.386067   -2.435360
     43          1           0        3.763181   -0.451336   -2.603020
     44          1           0        2.424202   -1.426418   -3.181880
     45          6           0        4.181173   -2.568496   -2.660020
     46          1           0        4.562243   -2.535456   -3.683470
     47          1           0        5.049933   -2.455395   -2.001980
     48          6           0        3.505705   -3.913707   -2.383440
     49          1           0        4.226645   -4.726326   -2.497110
     50          1           0        2.722285   -4.087837   -3.130060
     51          6           0        2.887265   -3.946307   -0.983280
     52          1           0        3.682925   -3.901266   -0.231120
     53          1           0        2.360306   -4.889788   -0.821050
     54          6           0        1.919193   -2.775138   -0.766770
     55          1           0        1.074444   -2.889439   -1.453050
     56          1           0        1.505083   -2.801179    0.243600
     57          6           0        2.543719    1.553342   -1.020600
     58          1           0        2.770119    1.473763   -2.089700
     59          6           0        1.776008    2.866202   -0.791600
     60          1           0        1.450158    2.919321    0.252710
     61          1           0        0.872808    2.889961   -1.405130
     62          6           0        2.638217    4.092373   -1.124140
     63          1           0        2.848467    4.104013   -2.199360
     64          1           0        2.071906    5.001942   -0.909510
     65          6           0        3.957637    4.087264   -0.349310
     66          1           0        4.570046    4.942704   -0.642620
     67          1           0        3.752847    4.204444    0.721120
     68          6           0        4.724718    2.784115   -0.581220
     69          1           0        5.639308    2.766055    0.016090
     70          1           0        5.037518    2.726825   -1.629680
     71          6           0        3.873089    1.552344   -0.241820
     72          1           0        3.667529    1.548824    0.834010
     73          1           0        4.446640    0.648304   -0.453850
     74         45           0        0.065351   -0.150930    1.260900
     75          6           0       -1.426999    0.017749    2.994060
     76          6           0       -1.293888   -1.305731    2.632120
     77          6           0        1.574842   -0.846758    2.821780
     78          6           0        1.439290    0.525081    2.896050
     79          1           0       -2.259240    0.561658    2.563090
     80          6           0       -0.771730    0.669969    4.195890
     81          1           0       -2.047418   -1.713742    1.967680
     82          6           0       -0.440177   -2.348910    3.309940
     83          6           0        0.942753   -1.844549    3.773890
     84          1           0        2.404432   -1.225498    2.235450
     85          1           0        2.185180    1.122412    2.382970
     86          6           0        0.600699    1.302091    3.880330
     87          1           0       -0.678779   -0.056321    5.003320
     88          1           0       -1.433441    1.451839    4.572150
     89          1           0       -0.985957   -2.773171    4.162110
     90          1           0       -0.302016   -3.172670    2.606280
     91          1           0        1.608993   -2.703188    3.871980
     92          1           0        0.872632   -1.406339    4.769370
     93          1           0        1.165119    1.448311    4.809970
     94          1           0        0.446168    2.301110    3.466770
 ---------------------------------------------------------------------

 SCF Done:  E(RB3LYP) =  -2086.13367350     A.U. after   15 cycles

      1  P    Isotropic =   316.7707   Anisotropy =   103.3327

      2  P    Isotropic =   308.5873   Anisotropy =   113.3446

      3  C    Isotropic =   147.8600   Anisotropy =    50.7455

      4  H    Isotropic =    28.8671   Anisotropy =     3.9329

      5  H    Isotropic =    29.6484   Anisotropy =     6.7836

      6  C    Isotropic =   138.9533   Anisotropy =    26.7543

      7  H    Isotropic =    29.9066   Anisotropy =     3.6480

      8  C    Isotropic =   151.2076   Anisotropy =    10.4933

      9  H    Isotropic =    30.1173   Anisotropy =     8.6185

     10  H    Isotropic =    30.4661   Anisotropy =     7.0083

     11  C    Isotropic =   154.7683   Anisotropy =     7.4359

     12  H    Isotropic =    29.9763   Anisotropy =     9.7071

     13  H    Isotropic =    30.5325   Anisotropy =     8.7722

     14  C    Isotropic =   156.0036   Anisotropy =     3.3714

     15  H    Isotropic =    30.0802   Anisotropy =    11.9348

     16  H    Isotropic =    30.6144   Anisotropy =     7.5544

     17  C    Isotropic =   155.2682   Anisotropy =     6.0667

     18  H    Isotropic =    30.1107   Anisotropy =    10.7025

     19  H    Isotropic =    30.6025   Anisotropy =     8.9248

     20  C    Isotropic =   152.2440   Anisotropy =    14.1095

     21  H    Isotropic =    30.9572   Anisotropy =     5.5303

     22  H    Isotropic =    30.1794   Anisotropy =     8.4997

     23  C    Isotropic =   134.8971   Anisotropy =    30.6955

     24  H    Isotropic =    29.9140   Anisotropy =     7.4458

     25  C    Isotropic =   148.6898   Anisotropy =    16.7748

     26  H    Isotropic =    30.4370   Anisotropy =     4.7061

     27  H    Isotropic =    29.7240   Anisotropy =     9.1293

     28  C    Isotropic =   152.9840   Anisotropy =     8.3549

     29  H    Isotropic =    29.9744   Anisotropy =    10.1375

     30  H    Isotropic =    30.5244   Anisotropy =     7.1140

     31  C    Isotropic =   155.9259   Anisotropy =     2.3481

     32  H    Isotropic =    30.5893   Anisotropy =     8.9721

     33  H    Isotropic =    30.0944   Anisotropy =    11.7116

     34  C    Isotropic =   153.4041   Anisotropy =     7.2522

     35  H    Isotropic =    30.6184   Anisotropy =     7.6575

     36  H    Isotropic =    29.9600   Anisotropy =    11.0177

     37  C    Isotropic =   155.3278   Anisotropy =    12.3689

     38  H    Isotropic =    30.5955   Anisotropy =     6.5647

     39  H    Isotropic =    30.2805   Anisotropy =     4.2989

     40  C    Isotropic =   140.9943   Anisotropy =    22.9123

     41  H    Isotropic =    30.0823   Anisotropy =     3.0936

     42  C    Isotropic =   155.0989   Anisotropy =    11.5939

     43  H    Isotropic =    30.3468   Anisotropy =     7.2768

     44  H    Isotropic =    30.8349   Anisotropy =     4.0465

     45  C    Isotropic =   154.3647   Anisotropy =     7.7287

     46  H    Isotropic =    30.0311   Anisotropy =    11.2006

     47  H    Isotropic =    30.5478   Anisotropy =     8.7144

     48  C    Isotropic =   155.5576   Anisotropy =     2.9706

     49  H    Isotropic =    30.0613   Anisotropy =    11.8283

     50  H    Isotropic =    30.6041   Anisotropy =     8.1779

     51  C    Isotropic =   153.8465   Anisotropy =     8.8142

     52  H    Isotropic =    30.4623   Anisotropy =     7.9153

     53  H    Isotropic =    29.9361   Anisotropy =     9.4550

     54  C    Isotropic =   150.1490   Anisotropy =    11.1114

     55  H    Isotropic =    30.4102   Anisotropy =     7.8979

     56  H    Isotropic =    29.3519   Anisotropy =     9.9107

     57  C    Isotropic =   139.7959   Anisotropy =    27.3447

     58  H    Isotropic =    30.0429   Anisotropy =     3.1480

     59  C    Isotropic =   151.0743   Anisotropy =    12.4132

     60  H    Isotropic =    30.3489   Anisotropy =     6.6944

     61  H    Isotropic =    30.1224   Anisotropy =     9.3644

     62  C    Isotropic =   154.7313   Anisotropy =     7.6059

     63  H    Isotropic =    30.5305   Anisotropy =     8.7475

     64  H    Isotropic =    29.9583   Anisotropy =     9.5152

     65  C    Isotropic =   155.9874   Anisotropy =     3.1348

     66  H    Isotropic =    30.0611   Anisotropy =    11.9018

     67  H    Isotropic =    30.5819   Anisotropy =     7.6940

     68  C    Isotropic =   154.9897   Anisotropy =     6.3244

     69  H    Isotropic =    30.0607   Anisotropy =    10.8749

     70  H    Isotropic =    30.6118   Anisotropy =     9.1509

     71  C    Isotropic =   154.1822   Anisotropy =    12.9881

     72  H    Isotropic =    30.9861   Anisotropy =     5.8036

     73  H    Isotropic =    30.3777   Anisotropy =     6.9745

     74  Rh   Isotropic =  -328.0690   Anisotropy =   387.0305

     75  C    Isotropic =    80.9926   Anisotropy =   121.2957

     76  C    Isotropic =    76.7398   Anisotropy =   116.9354

     77  C    Isotropic =    83.1621   Anisotropy =   116.5839

     78  C    Isotropic =    79.2303   Anisotropy =   113.0766

     79  H    Isotropic =    27.0726   Anisotropy =     5.3998

     80  C    Isotropic =   154.6988   Anisotropy =    23.9755

     81  H    Isotropic =    25.9537   Anisotropy =     4.7339

     82  C    Isotropic =   147.2936   Anisotropy =    29.8525

     83  C    Isotropic =   154.3927   Anisotropy =    24.3732

     84  H    Isotropic =    27.3269   Anisotropy =     5.6102

     85  H    Isotropic =    26.2703   Anisotropy =     5.0757

     86  C    Isotropic =   147.1196   Anisotropy =    30.2532

     87  H    Isotropic =    29.9467   Anisotropy =     9.7429

     88  H    Isotropic =    29.9292   Anisotropy =    11.2125

     89  H    Isotropic =    29.1192   Anisotropy =    12.5165

     90  H    Isotropic =    29.1114   Anisotropy =     6.6818

     91  H    Isotropic =    29.9213   Anisotropy =    11.0899

     92  H    Isotropic =    29.8956   Anisotropy =     9.8047

     93  H    Isotropic =    29.0994   Anisotropy =    12.6438

     94  H    Isotropic =    29.1214   Anisotropy =     7.1148

 The electronic state is 1-A.
 Alpha  occ. eigenvalues --  -77.22529 -77.22503 -10.29878 -10.29465 -10.29375
 Alpha  occ. eigenvalues --  -10.29369 -10.29320 -10.29073 -10.29067 -10.28855
 Alpha  occ. eigenvalues --  -10.28641 -10.27553 -10.27512 -10.27320 -10.27250
 Alpha  occ. eigenvalues --  -10.27250 -10.27218 -10.27116 -10.27075 -10.27044
 Alpha  occ. eigenvalues --  -10.27023 -10.26941 -10.26755 -10.25716 -10.25630
 Alpha  occ. eigenvalues --  -10.25611 -10.25588 -10.25554 -10.25539 -10.25537
 Alpha  occ. eigenvalues --  -10.25474 -10.25101 -10.25020 -10.25005 -10.24931
 Alpha  occ. eigenvalues --   -6.68561  -6.68517  -4.84859  -4.84814  -4.84737
 Alpha  occ. eigenvalues --   -4.84698  -4.84471  -4.84426  -3.31282  -2.08141
 Alpha  occ. eigenvalues --   -2.07490  -2.04766  -0.94528  -0.94250  -0.93910
 Alpha  occ. eigenvalues --   -0.93086  -0.92957  -0.89146  -0.88182  -0.88022
 Alpha  occ. eigenvalues --   -0.85891  -0.84363  -0.84276  -0.84099  -0.84035
 Alpha  occ. eigenvalues --   -0.83742  -0.83729  -0.82750  -0.80335  -0.77826
 Alpha  occ. eigenvalues --   -0.74723  -0.72802  -0.71202  -0.71099  -0.70944
 Alpha  occ. eigenvalues --   -0.70833  -0.70566  -0.70377  -0.70179  -0.66022
 Alpha  occ. eigenvalues --   -0.65961  -0.65842  -0.65357  -0.65302  -0.64779
 Alpha  occ. eigenvalues --   -0.64554  -0.62467  -0.60143  -0.58663  -0.58310
 Alpha  occ. eigenvalues --   -0.57409  -0.57177  -0.56984  -0.56292  -0.55263
 Alpha  occ. eigenvalues --   -0.54776  -0.54463  -0.54212  -0.53965  -0.53768
 Alpha  occ. eigenvalues --   -0.53689  -0.53647  -0.53564  -0.53415  -0.53370
 Alpha  occ. eigenvalues --   -0.53275  -0.52690  -0.52593  -0.52538  -0.51523
 Alpha  occ. eigenvalues --   -0.49714  -0.48820  -0.48593  -0.48388  -0.48123
 Alpha  occ. eigenvalues --   -0.48084  -0.48045  -0.47910  -0.47768  -0.47605
 Alpha  occ. eigenvalues --   -0.47406  -0.46324  -0.46308  -0.45986  -0.45866
 Alpha  occ. eigenvalues --   -0.45748  -0.45497  -0.45176  -0.44477  -0.44397
 Alpha  occ. eigenvalues --   -0.44369  -0.44158  -0.43995  -0.43596  -0.43286
 Alpha  occ. eigenvalues --   -0.43083  -0.42047  -0.41852  -0.41511  -0.41458
 Alpha  occ. eigenvalues --   -0.41375  -0.41241  -0.40788  -0.40211  -0.40180
 Alpha  occ. eigenvalues --   -0.40054  -0.39836  -0.39283  -0.38792  -0.38591
 Alpha  occ. eigenvalues --   -0.36228  -0.36142  -0.34643  -0.34170  -0.33405
 Alpha  occ. eigenvalues --   -0.30589
 Alpha virt. eigenvalues --   -0.16091  -0.13769  -0.09462  -0.08633  -0.07984
 Alpha virt. eigenvalues --   -0.07582  -0.07325  -0.07094  -0.06724  -0.05959
 Alpha virt. eigenvalues --   -0.05707  -0.05148  -0.04717  -0.04502  -0.04408

 Mulliken charges:
               1
     1  P    0.448007
     2  P    0.480986
     3  C   -0.662593
     4  H    0.205222
     5  H    0.205900
     6  C   -0.229811
     7  H    0.187145
     8  C   -0.240962
     9  H    0.109691
    10  H    0.117006
    11  C   -0.235198
    12  H    0.142954
    13  H    0.122748
    14  C   -0.227000
    15  H    0.150610
    16  H    0.112316
    17  C   -0.245029
    18  H    0.148287
    19  H    0.122496
    20  C   -0.272245
    21  H    0.136207
    22  H    0.138546
    23  C   -0.170800
    24  H    0.106097
    25  C   -0.281257
    26  H    0.140391
    27  H    0.130506
    28  C   -0.249540
    29  H    0.146016
    30  H    0.120670
    31  C   -0.225511
    32  H    0.116039
    33  H    0.148969
    34  C   -0.244170
    35  H    0.119516
    36  H    0.148774
    37  C   -0.249712
    38  H    0.137203
    39  H    0.134766
    40  C   -0.283985
    41  H    0.171954
    42  C   -0.244739
    43  H    0.149991
    44  H    0.126694
    45  C   -0.231964
    46  H    0.148028
    47  H    0.119908
    48  C   -0.233128
    49  H    0.149821
    50  H    0.113983
    51  C   -0.234865
    52  H    0.122289
    53  H    0.142345
    54  C   -0.234817
    55  H    0.099971
    56  H    0.140782
    57  C   -0.177777
    58  H    0.181815
    59  C   -0.258266
    60  H    0.125738
    61  H    0.120210
    62  C   -0.236248
    63  H    0.122707
    64  H    0.141989
    65  C   -0.231100
    66  H    0.151254
    67  H    0.112637
    68  C   -0.237735
    69  H    0.148510
    70  H    0.123161
    71  C   -0.284725
    72  H    0.124815
    73  H    0.151165
    74  Rh  -0.404375
    75  C   -0.039207
    76  C   -0.103578
    77  C   -0.037306
    78  C   -0.082389
    79  H    0.190750
    80  C   -0.357810
    81  H    0.172011
    82  C   -0.219846
    83  C   -0.364767
    84  H    0.180334
    85  H    0.175425
    86  C   -0.220535
    87  H    0.167510
    88  H    0.167841
    89  H    0.171328
    90  H    0.128806
    91  H    0.167045
    92  H    0.168001
    93  H    0.170669
    94  H    0.126433
 Sum of Mulliken charges =   1.00000

 Dipole moment (field-independent basis, Debye):
    X=              0.2956    Y=             -0.0133    Z=             -0.2920  Tot=              0.4158
 Quadrupole moment (field-independent basis, Debye-Ang):
   XX=           -211.6031   YY=           -222.5032   ZZ=           -223.3087
   XY=              0.1595   XZ=              0.1416   YZ=             -0.9547

 Summary of Natural Population Analysis:

                                       Natural Population
                Natural  -----------------------------------------------
    Atom  No    Charge         Core      Valence    Rydberg      Total
 -----------------------------------------------------------------------
      P    1    1.10138      9.99692     3.85546    0.04625    13.89862
      P    2    1.11587      9.99689     3.84038    0.04686    13.88413
      C    3   -1.00336      1.99941     4.98568    0.01827     7.00336
      H    4    0.25573      0.00000     0.74199    0.00227     0.74427
      H    5    0.25172      0.00000     0.74613    0.00215     0.74828
      C    6   -0.47301      1.99935     4.45597    0.01769     6.47301
      H    7    0.22229      0.00000     0.77410    0.00361     0.77771
      C    8   -0.38601      1.99938     4.37596    0.01066     6.38601
      H    9    0.19743      0.00000     0.80044    0.00213     0.80257
      H   10    0.19965      0.00000     0.79815    0.00220     0.80035
      C   11   -0.38357      1.99941     4.37429    0.00987     6.38357
      H   12    0.21351      0.00000     0.78512    0.00137     0.78649
      H   13    0.19523      0.00000     0.80292    0.00184     0.80477
      C   14   -0.38891      1.99942     4.38003    0.00946     6.38891
      H   15    0.21667      0.00000     0.78199    0.00134     0.78333
      H   16    0.19110      0.00000     0.80708    0.00181     0.80890
      C   17   -0.38359      1.99941     4.37426    0.00992     6.38359
      H   18    0.21550      0.00000     0.78314    0.00137     0.78450
      H   19    0.19534      0.00000     0.80284    0.00182     0.80466
      C   20   -0.39174      1.99937     4.38151    0.01086     6.39174
      H   21    0.19353      0.00000     0.80437    0.00210     0.80647
      H   22    0.20535      0.00000     0.79250    0.00215     0.79465
      C   23   -0.46417      1.99935     4.44649    0.01834     6.46417
      H   24    0.21913      0.00000     0.77773    0.00313     0.78087
      C   25   -0.38843      1.99937     4.37914    0.00992     6.38843
      H   26    0.19450      0.00000     0.80317    0.00233     0.80550
      H   27    0.21090      0.00000     0.78732    0.00178     0.78910
      C   28   -0.38335      1.99942     4.37430    0.00963     6.38335
      H   29    0.21461      0.00000     0.78401    0.00138     0.78539
      H   30    0.19172      0.00000     0.80642    0.00187     0.80828
      C   31   -0.38980      1.99942     4.38086    0.00951     6.38980
      H   32    0.19345      0.00000     0.80474    0.00181     0.80655
      H   33    0.21605      0.00000     0.78260    0.00135     0.78395
      C   34   -0.38156      1.99942     4.37241    0.00973     6.38156
      H   35    0.19142      0.00000     0.80673    0.00185     0.80858
      H   36    0.21589      0.00000     0.78272    0.00139     0.78411
      C   37   -0.39636      1.99937     4.38628    0.01071     6.39636
      H   38    0.19613      0.00000     0.80156    0.00231     0.80387
      H   39    0.20140      0.00000     0.79640    0.00220     0.79860
      C   40   -0.46948      1.99935     4.45357    0.01656     6.46948
      H   41    0.22162      0.00000     0.77557    0.00280     0.77838
      C   42   -0.39444      1.99938     4.38408    0.01098     6.39444
      H   43    0.20468      0.00000     0.79347    0.00185     0.79532
      H   44    0.19223      0.00000     0.80526    0.00251     0.80777
      C   45   -0.38209      1.99942     4.37291    0.00977     6.38209
      H   46    0.21597      0.00000     0.78263    0.00140     0.78403
      H   47    0.19409      0.00000     0.80405    0.00186     0.80591
      C   48   -0.38908      1.99942     4.38017    0.00949     6.38908
      H   49    0.21651      0.00000     0.78214    0.00135     0.78349
      H   50    0.19160      0.00000     0.80658    0.00182     0.80840
      C   51   -0.38378      1.99942     4.37469    0.00967     6.38378
      H   52    0.19353      0.00000     0.80462    0.00185     0.80647
      H   53    0.21300      0.00000     0.78561    0.00138     0.78700
      C   54   -0.38511      1.99938     4.37537    0.01037     6.38511
      H   55    0.18789      0.00000     0.80945    0.00266     0.81211
      H   56    0.21614      0.00000     0.78190    0.00196     0.78386
      C   57   -0.47212      1.99935     4.45435    0.01842     6.47212
      H   58    0.22014      0.00000     0.77614    0.00372     0.77986
      C   59   -0.38703      1.99938     4.37677    0.01088     6.38703
      H   60    0.20265      0.00000     0.79520    0.00214     0.79735
      H   61    0.19561      0.00000     0.80223    0.00217     0.80439
      C   62   -0.38358      1.99941     4.37432    0.00985     6.38358
      H   63    0.19522      0.00000     0.80292    0.00185     0.80478
      H   64    0.21338      0.00000     0.78524    0.00138     0.78662
      C   65   -0.38904      1.99942     4.38016    0.00946     6.38904
      H   66    0.21687      0.00000     0.78179    0.00133     0.78313
      H   67    0.19155      0.00000     0.80664    0.00181     0.80845
      C   68   -0.38296      1.99941     4.37358    0.00997     6.38296
      H   69    0.21583      0.00000     0.78280    0.00137     0.78417
      H   70    0.19554      0.00000     0.80265    0.00181     0.80446
      C   71   -0.39141      1.99937     4.38106    0.01098     6.39141
      H   72    0.19295      0.00000     0.80488    0.00217     0.80705
      H   73    0.20547      0.00000     0.79267    0.00186     0.79453
     Rh   74   -0.37630     35.98609     9.36523    0.02497    45.37630
      C   75   -0.18944      1.99909     4.17071    0.01964     6.18944
      C   76   -0.16145      1.99910     4.14209    0.02026     6.16145
      C   77   -0.18193      1.99909     4.16334    0.01950     6.18193
      C   78   -0.16476      1.99910     4.14568    0.01998     6.16476
      H   79    0.22486      0.00000     0.77300    0.00214     0.77514
      C   80   -0.42280      1.99935     4.41149    0.01195     6.42280
      H   81    0.21994      0.00000     0.77756    0.00250     0.78006
      C   82   -0.41706      1.99935     4.40505    0.01266     6.41706
      C   83   -0.42284      1.99935     4.41150    0.01198     6.42284
      H   84    0.22080      0.00000     0.77723    0.00197     0.77920
      H   85    0.22003      0.00000     0.77775    0.00223     0.77997
      C   86   -0.41631      1.99935     4.40430    0.01266     6.41631
      H   87    0.21520      0.00000     0.78291    0.00189     0.78480
      H   88    0.22778      0.00000     0.77077    0.00144     0.77222
      H   89    0.23309      0.00000     0.76510    0.00182     0.76691
      H   90    0.21488      0.00000     0.78340    0.00171     0.78512
      H   91    0.22738      0.00000     0.77119    0.00143     0.77262
      H   92    0.21587      0.00000     0.78225    0.00187     0.78413
      H   93    0.23303      0.00000     0.76517    0.00180     0.76697
      H   94    0.21599      0.00000     0.78233    0.00168     0.78401
 =======================================================================
   * Total *    1.00000    121.95850   207.39072    0.65078   330.00000

 Normal termination of Gaussian 16 at Tue Jan 21 16:18:01 2025.
