 Gaussian 16, Revision B.01,
 Gaussian 16:  ES64L-G16RevB.01 20-Dec-2017

 ------------------------------------------
 # nmr=giao b3lyp/genecp pop=nbo scfcyc=200
 ------------------------------------------

 ---------
 MB-70_SPE
 ---------
 Symbolic Z-matrix:
 Charge =  1 Multiplicity = 1

                         Standard orientation:
 ---------------------------------------------------------------------
 Center     Atomic      Atomic             Coordinates (Angstroms)
 Number     Number       Type             X           Y           Z
 ---------------------------------------------------------------------
      1         15           0        1.376139    0.234101    0.544550
      2          6           0        2.727580   -0.253937    1.695210
      3          6           0        2.711739    0.092283    3.049240
      4          6           0        3.757440   -0.286066    3.885070
      5          6           0        4.831441   -1.010054    3.379200
      6          6           0        4.858431   -1.356264    2.031920
      7          6           0        3.811431   -0.986436    1.195650
      8          1           0        3.848511   -1.268256    0.150630
      9          1           0        5.692312   -1.919103    1.631660
     10          1           0        5.644451   -1.302663    4.031380
     11          1           0        3.732699   -0.010636    4.931940
     12          1           0        1.892479    0.665502    3.463400
     13          6           0       -0.039992    0.896220    1.567810
     14         15           0       -1.393931    0.390188    0.377620
     15          6           0       -1.786473    1.905568   -0.598200
     16          6           0       -1.893214    3.166738    0.000120
     17          6           0       -2.215736    4.282877   -0.763160
     18          6           0       -2.436015    4.154927   -2.131690
     19          6           0       -2.326034    2.907927   -2.736610
     20          6           0       -1.999543    1.790348   -1.975160
     21          1           0       -1.899022    0.826878   -2.457350
     22          1           0       -2.489484    2.803987   -3.801900
     23          1           0       -2.687746    5.025677   -2.723800
     24          1           0       -2.295877    5.252887   -0.288590
     25          1           0       -1.724344    3.289978    1.062150
     26          1           0       -0.140611    0.279550    2.461670
     27          1           0        0.006917    1.944690    1.858680
     28         45           0       -0.035829   -1.303610   -0.604130
     29          6           0        1.408943   -2.615438   -1.760500
     30          6           0        1.290403   -3.106949   -0.474970
     31          6           0       -1.567757   -2.953032   -0.932310
     32          6           0       -1.451108   -2.211762   -2.091170
     33          6           0        0.740653   -3.197669   -2.992150
     34          1           0        2.242712   -1.950107   -1.957600
     35          1           0        2.052993   -2.821768    0.240550
     36          6           0        0.430984   -4.262150   -0.025390
     37          6           0       -0.955405   -4.321021   -0.696830
     38          1           0       -2.374247   -2.687703   -0.258840
     39          6           0       -0.630108   -2.560741   -3.307990
     40          1           0       -2.200529   -1.445263   -2.261080
     41          1           0        1.397913   -3.044808   -3.849630
     42          1           0        0.641644   -4.277259   -2.880610
     43          1           0        0.966496   -5.205729   -0.189290
     44          1           0        0.302574   -4.176480    1.055640
     45          1           0       -0.900815   -4.864281   -1.639970
     46          1           0       -1.627545   -4.896512   -0.058180
     47          1           0       -0.472579   -1.641471   -3.876790
     48          1           0       -1.205147   -3.223612   -3.966580
     49          6           0        2.004277    1.726082   -0.416190
     50          6           0        2.639466    2.805453    0.474560
     51          6           0        2.949608    1.322933   -1.560750
     52          1           0        1.088967    2.130351   -0.862740
     53          6           0        3.055675    4.028043   -0.357730
     54          1           0        3.520497    2.391424    0.973350
     55          1           0        1.949636    3.116662    1.263670
     56          6           0        3.368326    2.549344   -2.384570
     57          1           0        3.847078    0.851164   -1.147130
     58          1           0        2.465329    0.586483   -2.206610
     59          6           0        3.990785    3.637605   -1.505760
     60          1           0        3.537114    4.761604    0.293420
     61          1           0        2.160244    4.511212   -0.764230
     62          1           0        4.069327    2.241515   -3.164180
     63          1           0        2.488746    2.953573   -2.897950
     64          1           0        4.232294    4.515585   -2.109180
     65          1           0        4.938606    3.273676   -1.093490
     66          6           0       -2.916771   -0.018184    1.402360
     67          6           0       -3.262722    1.012726    2.488790
     68          6           0       -4.133960   -0.289605    0.499380
     69          1           0       -2.631279   -0.956933    1.892720
     70          6           0       -4.469061    0.545735    3.318460
     71          1           0       -3.505803    1.969776    2.018250
     72          1           0       -2.407962    1.185717    3.147760
     73          6           0       -5.343370   -0.747206    1.328010
     74          1           0       -4.391911    0.627225   -0.039700
     75          1           0       -3.897869   -1.041595   -0.257900
     76          6           0       -5.684421    0.255873    2.433470
     77          1           0       -4.712532    1.307064    4.063300
     78          1           0       -4.196580   -0.358125    3.874660
     79          1           0       -6.201199   -0.891987    0.667170
     80          1           0       -5.126339   -1.723806    1.775160
     81          1           0       -6.510220   -0.121168    3.040850
     82          1           0       -6.033682    1.190193    1.979950
 ---------------------------------------------------------------------

 SCF Done:  E(RB3LYP) =  -2078.87426449     A.U. after   15 cycles

      1  P    Isotropic =   310.1939   Anisotropy =    70.6403

      2  C    Isotropic =    48.0971   Anisotropy =   172.0899

      3  C    Isotropic =    49.3479   Anisotropy =   184.4811

      4  C    Isotropic =    48.4222   Anisotropy =   190.5604

      5  C    Isotropic =    46.1062   Anisotropy =   197.0971

      6  C    Isotropic =    49.0568   Anisotropy =   190.3526

      7  C    Isotropic =    47.2409   Anisotropy =   181.6941

      8  H    Isotropic =    24.8281   Anisotropy =     9.9904

      9  H    Isotropic =    24.1558   Anisotropy =     6.8049

     10  H    Isotropic =    24.0461   Anisotropy =     3.7114

     11  H    Isotropic =    24.1055   Anisotropy =     6.2730

     12  H    Isotropic =    24.5820   Anisotropy =    12.1045

     13  C    Isotropic =   146.6877   Anisotropy =    37.2772

     14  P    Isotropic =   314.0152   Anisotropy =    63.5409

     15  C    Isotropic =    48.4579   Anisotropy =   175.5596

     16  C    Isotropic =    47.1781   Anisotropy =   188.9541

     17  C    Isotropic =    48.9162   Anisotropy =   190.5997

     18  C    Isotropic =    45.0087   Anisotropy =   198.9712

     19  C    Isotropic =    48.9582   Anisotropy =   189.2072

     20  C    Isotropic =    42.4108   Anisotropy =   181.7122

     21  H    Isotropic =    23.9318   Anisotropy =     9.3336

     22  H    Isotropic =    24.0249   Anisotropy =     6.3318

     23  H    Isotropic =    23.9224   Anisotropy =     3.5713

     24  H    Isotropic =    24.0312   Anisotropy =     5.7944

     25  H    Isotropic =    24.2693   Anisotropy =     9.9421

     26  H    Isotropic =    28.6163   Anisotropy =     5.0453

     27  H    Isotropic =    28.5897   Anisotropy =     9.1819

     28  Rh   Isotropic =  -317.8962   Anisotropy =   343.3172

     29  C    Isotropic =    84.1526   Anisotropy =   116.0257

     30  C    Isotropic =    72.9364   Anisotropy =   124.5111

     31  C    Isotropic =    79.0067   Anisotropy =   121.8642

     32  C    Isotropic =    81.3262   Anisotropy =   110.1909

     33  C    Isotropic =   154.2816   Anisotropy =    24.9588

     34  H    Isotropic =    26.9023   Anisotropy =     6.5216

     35  H    Isotropic =    26.5565   Anisotropy =     5.9360

     36  C    Isotropic =   147.4599   Anisotropy =    30.9901

     37  C    Isotropic =   153.6417   Anisotropy =    25.5877

     38  H    Isotropic =    26.8075   Anisotropy =     6.7613

     39  C    Isotropic =   147.6032   Anisotropy =    30.1824

     40  H    Isotropic =    26.1337   Anisotropy =     4.2420

     41  H    Isotropic =    29.7909   Anisotropy =    11.4757

     42  H    Isotropic =    29.7885   Anisotropy =     9.6300

     43  H    Isotropic =    29.2555   Anisotropy =    12.4992

     44  H    Isotropic =    29.3002   Anisotropy =     6.8682

     45  H    Isotropic =    29.7722   Anisotropy =     9.4232

     46  H    Isotropic =    29.8699   Anisotropy =    11.3011

     47  H    Isotropic =    28.9838   Anisotropy =     7.8175

     48  H    Isotropic =    28.9891   Anisotropy =    12.6357

     49  C    Isotropic =   135.3428   Anisotropy =    29.5166

     50  C    Isotropic =   155.9140   Anisotropy =    10.8294

     51  C    Isotropic =   151.8290   Anisotropy =    14.7622

     52  H    Isotropic =    30.8607   Anisotropy =     9.7498

     53  C    Isotropic =   155.0014   Anisotropy =     7.7261

     54  H    Isotropic =    31.6176   Anisotropy =     6.9870

     55  H    Isotropic =    30.6523   Anisotropy =     4.4495

     56  C    Isotropic =   154.2442   Anisotropy =     8.3154

     57  H    Isotropic =    30.7012   Anisotropy =     5.8183

     58  H    Isotropic =    30.1024   Anisotropy =     7.5167

     59  C    Isotropic =   156.4263   Anisotropy =     1.8328

     60  H    Isotropic =    30.4215   Anisotropy =    11.0139

     61  H    Isotropic =    31.2399   Anisotropy =     7.3168

     62  H    Isotropic =    30.2396   Anisotropy =    10.6494

     63  H    Isotropic =    30.9986   Anisotropy =     6.6653

     64  H    Isotropic =    30.4696   Anisotropy =    11.9010

     65  H    Isotropic =    31.0040   Anisotropy =     9.3375

     66  C    Isotropic =   132.4985   Anisotropy =    33.1418

     67  C    Isotropic =   154.7425   Anisotropy =    10.8965

     68  C    Isotropic =   153.2251   Anisotropy =    12.6673

     69  H    Isotropic =    29.9502   Anisotropy =     4.8658

     70  C    Isotropic =   154.2660   Anisotropy =     8.4761

     71  H    Isotropic =    30.4558   Anisotropy =     6.4360

     72  H    Isotropic =    30.0832   Anisotropy =     5.5810

     73  C    Isotropic =   154.6082   Anisotropy =     8.3208

     74  H    Isotropic =    31.2486   Anisotropy =     6.0580

     75  H    Isotropic =    30.6924   Anisotropy =     8.3262

     76  C    Isotropic =   156.1825   Anisotropy =     2.0648

     77  H    Isotropic =    29.9962   Anisotropy =    10.9214

     78  H    Isotropic =    30.5419   Anisotropy =     8.3209

     79  H    Isotropic =    30.2300   Anisotropy =    10.4916

     80  H    Isotropic =    30.6223   Anisotropy =     7.8247

     81  H    Isotropic =    30.2221   Anisotropy =    11.9630

     82  H    Isotropic =    30.8428   Anisotropy =     8.5085

 The electronic state is 1-A.
 Alpha  occ. eigenvalues --  -77.23337 -77.23201 -10.30423 -10.29858 -10.29710
 Alpha  occ. eigenvalues --  -10.29569 -10.29160 -10.29141 -10.29093 -10.29056
 Alpha  occ. eigenvalues --  -10.28805 -10.28802 -10.28679 -10.28521 -10.28471
 Alpha  occ. eigenvalues --  -10.28038 -10.27985 -10.27923 -10.27702 -10.27662
 Alpha  occ. eigenvalues --  -10.27597 -10.27563 -10.27437 -10.27311 -10.27301
 Alpha  occ. eigenvalues --  -10.26989 -10.26980 -10.26642 -10.26486 -10.25495
 Alpha  occ. eigenvalues --  -10.25480 -10.25217 -10.25173 -10.24845 -10.24607
 Alpha  occ. eigenvalues --   -6.69349  -6.69219  -4.85650  -4.85540  -4.85535
 Alpha  occ. eigenvalues --   -4.85397  -4.85248  -4.85119  -3.31615  -2.08506
 Alpha  occ. eigenvalues --   -2.07835  -2.05062  -0.96892  -0.96593  -0.94530
 Alpha  occ. eigenvalues --   -0.93613  -0.93204  -0.89210  -0.89177  -0.88066
 Alpha  occ. eigenvalues --   -0.86789  -0.85701  -0.85455  -0.84721  -0.84241
 Alpha  occ. eigenvalues --   -0.84028  -0.83690  -0.83092  -0.80389  -0.77850
 Alpha  occ. eigenvalues --   -0.75130  -0.73301  -0.71560  -0.71195  -0.70808
 Alpha  occ. eigenvalues --   -0.70680  -0.70538  -0.70497  -0.70294  -0.66784
 Alpha  occ. eigenvalues --   -0.66164  -0.65973  -0.65288  -0.64925  -0.62578
 Alpha  occ. eigenvalues --   -0.62187  -0.61371  -0.60130  -0.58072  -0.57827
 Alpha  occ. eigenvalues --   -0.57070  -0.56685  -0.56385  -0.56183  -0.56078
 Alpha  occ. eigenvalues --   -0.55468  -0.55075  -0.54768  -0.53798  -0.53679
 Alpha  occ. eigenvalues --   -0.53579  -0.53385  -0.53151  -0.53042  -0.52802
 Alpha  occ. eigenvalues --   -0.52702  -0.52644  -0.52434  -0.51727  -0.49551
 Alpha  occ. eigenvalues --   -0.48906  -0.48640  -0.48220  -0.48163  -0.48091
 Alpha  occ. eigenvalues --   -0.47826  -0.47643  -0.47290  -0.47094  -0.46356
 Alpha  occ. eigenvalues --   -0.45991  -0.45902  -0.45691  -0.45548  -0.45318
 Alpha  occ. eigenvalues --   -0.44365  -0.44103  -0.43774  -0.43758  -0.43309
 Alpha  occ. eigenvalues --   -0.43153  -0.43101  -0.42527  -0.41680  -0.41232
 Alpha  occ. eigenvalues --   -0.40928  -0.39994  -0.39814  -0.39688  -0.39536
 Alpha  occ. eigenvalues --   -0.37720  -0.36960  -0.36440  -0.36255  -0.36109
 Alpha  occ. eigenvalues --   -0.35241  -0.34843  -0.34489  -0.33806  -0.30797
 Alpha virt. eigenvalues --   -0.16178  -0.14459  -0.13484  -0.12231  -0.11966
 Alpha virt. eigenvalues --   -0.11706  -0.09303  -0.08510  -0.07916  -0.06994
 Alpha virt. eigenvalues --   -0.06608  -0.06267  -0.05674  -0.05257  -0.04533

 Mulliken charges:
               1
     1  P    0.337632
     2  C   -0.099447
     3  C   -0.064946
     4  C   -0.080784
     5  C   -0.099305
     6  C   -0.089149
     7  C   -0.173601
     8  H    0.169347
     9  H    0.133215
    10  H    0.140026
    11  H    0.133659
    12  H    0.136550
    13  C   -0.611241
    14  P    0.353117
    15  C   -0.195136
    16  C   -0.079460
    17  C   -0.105061
    18  C   -0.084997
    19  C   -0.120012
    20  C   -0.021688
    21  H    0.121450
    22  H    0.131128
    23  H    0.142807
    24  H    0.133573
    25  H    0.146075
    26  H    0.207701
    27  H    0.209999
    28  Rh  -0.514305
    29  C   -0.017982
    30  C   -0.113459
    31  C   -0.019752
    32  C   -0.093029
    33  C   -0.346795
    34  H    0.176351
    35  H    0.210612
    36  C   -0.228010
    37  C   -0.352896
    38  H    0.185093
    39  C   -0.236139
    40  H    0.179272
    41  H    0.169285
    42  H    0.168077
    43  H    0.170803
    44  H    0.134163
    45  H    0.169369
    46  H    0.167997
    47  H    0.131630
    48  H    0.171404
    49  C   -0.135819
    50  C   -0.240796
    51  C   -0.282380
    52  H    0.162773
    53  C   -0.244378
    54  H    0.149800
    55  H    0.119457
    56  C   -0.247057
    57  H    0.133552
    58  H    0.130922
    59  C   -0.229959
    60  H    0.145822
    61  H    0.120478
    62  H    0.143848
    63  H    0.122196
    64  H    0.146017
    65  H    0.118099
    66  C   -0.155568
    67  C   -0.252658
    68  C   -0.303073
    69  H    0.165025
    70  C   -0.245437
    71  H    0.136613
    72  H    0.134073
    73  C   -0.238144
    74  H    0.156376
    75  H    0.138147
    76  C   -0.232949
    77  H    0.146826
    78  H    0.120909
    79  H    0.147440
    80  H    0.117747
    81  H    0.149312
    82  H    0.119642
 Sum of Mulliken charges =   1.00000

 Dipole moment (field-independent basis, Debye):
    X=             -0.0761    Y=             -0.0458    Z=              0.5380  Tot=              0.5453
 Quadrupole moment (field-independent basis, Debye-Ang):
   XX=           -199.5917   YY=           -205.1021   ZZ=           -212.3711
   XY=             -6.2337   XZ=              4.3849   YZ=              2.0557

 Summary of Natural Population Analysis:

                                       Natural Population
                Natural  -----------------------------------------------
    Atom  No    Charge         Core      Valence    Rydberg      Total
 -----------------------------------------------------------------------
      P    1    1.11750      9.99667     3.83673    0.04910    13.88250
      C    2   -0.34220      1.99900     4.32052    0.02269     6.34220
      C    3   -0.19543      1.99909     4.18079    0.01555     6.19543
      C    4   -0.18850      1.99920     4.17468    0.01462     6.18850
      C    5   -0.18001      1.99920     4.16622    0.01459     6.18001
      C    6   -0.19038      1.99920     4.17654    0.01464     6.19038
      C    7   -0.20366      1.99909     4.18908    0.01549     6.20366
      H    8    0.21220      0.00000     0.78565    0.00215     0.78780
      H    9    0.22284      0.00000     0.77593    0.00123     0.77716
      H   10    0.22388      0.00000     0.77495    0.00117     0.77612
      H   11    0.22258      0.00000     0.77619    0.00123     0.77742
      H   12    0.20900      0.00000     0.78893    0.00207     0.79100
      C   13   -0.99165      1.99943     4.97570    0.01652     6.99165
      P   14    1.11168      9.99668     3.84178    0.04986    13.88832
      C   15   -0.35144      1.99899     4.32799    0.02445     6.35144
      C   16   -0.19965      1.99909     4.18441    0.01615     6.19965
      C   17   -0.19261      1.99920     4.17862    0.01479     6.19261
      C   18   -0.17665      1.99920     4.16280    0.01465     6.17665
      C   19   -0.19439      1.99920     4.18052    0.01467     6.19439
      C   20   -0.18552      1.99909     4.17105    0.01538     6.18552
      H   21    0.21531      0.00000     0.78279    0.00189     0.78469
      H   22    0.22255      0.00000     0.77623    0.00122     0.77745
      H   23    0.22396      0.00000     0.77487    0.00117     0.77604
      H   24    0.22313      0.00000     0.77563    0.00124     0.77687
      H   25    0.21031      0.00000     0.78736    0.00233     0.78969
      H   26    0.26144      0.00000     0.73684    0.00172     0.73856
      H   27    0.24818      0.00000     0.74939    0.00243     0.75182
     Rh   28   -0.36895     35.98558     9.35802    0.02534    45.36895
      C   29   -0.18580      1.99906     4.16715    0.01959     6.18580
      C   30   -0.15089      1.99907     4.13193    0.01989     6.15089
      C   31   -0.16288      1.99905     4.14429    0.01954     6.16288
      C   32   -0.17044      1.99906     4.15137    0.02001     6.17044
      C   33   -0.42281      1.99936     4.41149    0.01196     6.42281
      H   34    0.22298      0.00000     0.77489    0.00213     0.77702
      H   35    0.22971      0.00000     0.76803    0.00226     0.77029
      C   36   -0.41857      1.99935     4.40658    0.01264     6.41857
      C   37   -0.42430      1.99936     4.41293    0.01200     6.42430
      H   38    0.22101      0.00000     0.77685    0.00213     0.77899
      C   39   -0.41812      1.99935     4.40603    0.01274     6.41812
      H   40    0.22088      0.00000     0.77713    0.00199     0.77912
      H   41    0.22809      0.00000     0.77047    0.00144     0.77191
      H   42    0.21431      0.00000     0.78374    0.00195     0.78569
      H   43    0.23292      0.00000     0.76526    0.00182     0.76708
      H   44    0.21725      0.00000     0.78122    0.00153     0.78275
      H   45    0.21450      0.00000     0.78356    0.00194     0.78550
      H   46    0.22791      0.00000     0.77068    0.00141     0.77209
      H   47    0.21482      0.00000     0.78363    0.00155     0.78518
      H   48    0.23306      0.00000     0.76509    0.00185     0.76694
      C   49   -0.45821      1.99936     4.43996    0.01890     6.45821
      C   50   -0.39712      1.99938     4.38608    0.01166     6.39712
      C   51   -0.39458      1.99937     4.38375    0.01146     6.39458
      H   52    0.22875      0.00000     0.76759    0.00366     0.77125
      C   53   -0.38145      1.99942     4.37226    0.00977     6.38145
      H   54    0.20500      0.00000     0.79282    0.00217     0.79500
      H   55    0.19797      0.00000     0.79978    0.00225     0.80203
      C   56   -0.38242      1.99942     4.37322    0.00979     6.38242
      H   57    0.19595      0.00000     0.80174    0.00231     0.80405
      H   58    0.21126      0.00000     0.78712    0.00162     0.78874
      C   59   -0.38956      1.99942     4.38064    0.00949     6.38956
      H   60    0.21488      0.00000     0.78375    0.00137     0.78512
      H   61    0.19255      0.00000     0.80559    0.00186     0.80745
      H   62    0.21379      0.00000     0.78484    0.00137     0.78621
      H   63    0.19326      0.00000     0.80491    0.00183     0.80674
      H   64    0.21486      0.00000     0.78379    0.00135     0.78514
      H   65    0.19428      0.00000     0.80391    0.00181     0.80572
      C   66   -0.45958      1.99936     4.44345    0.01677     6.45958
      C   67   -0.39618      1.99938     4.38611    0.01070     6.39618
      C   68   -0.39434      1.99937     4.38482    0.01015     6.39434
      H   69    0.22111      0.00000     0.77633    0.00257     0.77889
      C   70   -0.38130      1.99942     4.37219    0.00970     6.38130
      H   71    0.20032      0.00000     0.79718    0.00249     0.79968
      H   72    0.20088      0.00000     0.79723    0.00189     0.79912
      C   73   -0.38200      1.99942     4.37289    0.00969     6.38200
      H   74    0.20457      0.00000     0.79316    0.00228     0.79543
      H   75    0.20219      0.00000     0.79574    0.00207     0.79781
      C   76   -0.38993      1.99942     4.38097    0.00954     6.38993
      H   77    0.21566      0.00000     0.78296    0.00138     0.78434
      H   78    0.19315      0.00000     0.80498    0.00187     0.80685
      H   79    0.21599      0.00000     0.78263    0.00139     0.78401
      H   80    0.19202      0.00000     0.80610    0.00188     0.80798
      H   81    0.21634      0.00000     0.78232    0.00134     0.78366
      H   82    0.19479      0.00000     0.80342    0.00179     0.80521
 =======================================================================
   * Total *    1.00000    121.95430   195.35683    0.68887   318.00000

 Normal termination of Gaussian 16 at Tue Jan 21 15:41:39 2025.
