 Gaussian 16, Revision B.01,
 Gaussian 16:  ES64L-G16RevB.01 20-Dec-2017

 ------------------------------------------
 # nmr=giao b3lyp/genecp pop=nbo scfcyc=200
 ------------------------------------------

 --------
 MB-8_SPE
 --------
 Symbolic Z-matrix:
 Charge =  1 Multiplicity = 1

                         Standard orientation:
 ---------------------------------------------------------------------
 Center     Atomic      Atomic             Coordinates (Angstroms)
 Number     Number       Type             X           Y           Z
 ---------------------------------------------------------------------
      1         15           0       -1.334350    1.343980   -0.069561
      2         15           0       -1.289948   -1.346790   -0.171601
      3          6           0       -2.527839   -0.011151   -0.524061
      4          1           0       -2.749789    0.059879   -1.590221
      5          1           0       -3.450949   -0.071311    0.051729
      6          6           0       -3.115380    2.524989    1.594559
      7          1           0       -3.047141    3.102619    2.512379
      8          1           0       -3.820680    1.704929    1.733799
      9          1           0       -3.442781    3.165279    0.775679
     10          6           0       -0.949461    3.652230   -1.409781
     11          1           0       -1.538371    4.284540   -2.069071
     12          1           0        0.003439    3.423791   -1.888211
     13          1           0       -0.782901    4.170241   -0.464031
     14          6           0       -2.527137   -3.184701   -1.718961
     15          1           0       -2.222777   -3.926530   -2.451961
     16          1           0       -3.243107   -2.496611   -2.171081
     17          1           0       -2.976507   -3.674581   -0.855841
     18          6           0       -1.285907   -2.906200    2.021279
     19          1           0       -1.995487   -3.212370    2.785239
     20          1           0       -0.450027   -2.384269    2.488689
     21          1           0       -0.928927   -3.786350    1.483979
     22         45           0        0.563381    0.002321    0.018659
     23          6           0        2.293660    1.505292   -0.397751
     24          6           0        2.112140    1.400112    0.959259
     25          6           0        2.231972   -1.509678    0.488869
     26          6           0        2.107832   -1.399198   -0.878421
     27          6           0        3.371321    0.818793   -1.213561
     28          1           0        1.784490    2.321822   -0.896161
     29          1           0        1.488010    2.148462    1.438079
     30          6           0        2.881611    0.523863    1.914199
     31          6           0        3.295132   -0.853267    1.349489
     32          1           0        1.698003   -2.328548    0.958369
     33          6           0        2.938411   -0.542687   -1.799201
     34          1           0        1.500942   -2.143938   -1.383441
     35          1           0        3.643900    1.474593   -2.041891
     36          1           0        4.271921    0.707254   -0.611421
     37          1           0        3.771921    1.061723    2.262879
     38          1           0        2.260581    0.376632    2.800369
     39          1           0        4.224822   -0.772326    0.787679
     40          1           0        3.511332   -1.513727    2.190549
     41          1           0        2.356821   -0.374038   -2.707871
     42          1           0        3.825252   -1.106597   -2.114521
     43          8           0       -1.319157   -2.479510   -1.339051
     44          8           0       -2.006608   -2.017470    1.140639
     45          8           0       -1.717940    2.445200   -1.221321
     46          8           0       -1.786020    2.003870    1.349549
 ---------------------------------------------------------------------

 SCF Done:  E(RB3LYP) =  -1605.45012100     A.U. after   15 cycles

      1  P    Isotropic =   171.8860   Anisotropy =   157.8477

      2  P    Isotropic =   167.3442   Anisotropy =   169.7731

      3  C    Isotropic =   115.7892   Anisotropy =    61.7808

      4  H    Isotropic =    28.1399   Anisotropy =     5.3546

      5  H    Isotropic =    28.0111   Anisotropy =     7.7998

      6  C    Isotropic =   131.4307   Anisotropy =    84.3381

      7  H    Isotropic =    28.0527   Anisotropy =    10.3517

      8  H    Isotropic =    28.3963   Anisotropy =     9.3936

      9  H    Isotropic =    28.2264   Anisotropy =     9.9525

     10  C    Isotropic =   128.9114   Anisotropy =    84.7046

     11  H    Isotropic =    27.9763   Anisotropy =    10.1182

     12  H    Isotropic =    28.2833   Anisotropy =     6.7071

     13  H    Isotropic =    28.4101   Anisotropy =     8.6136

     14  C    Isotropic =   130.0530   Anisotropy =    86.1657

     15  H    Isotropic =    28.0415   Anisotropy =    10.3756

     16  H    Isotropic =    28.5264   Anisotropy =     9.4388

     17  H    Isotropic =    28.1605   Anisotropy =     9.9975

     18  C    Isotropic =   127.5025   Anisotropy =    84.6462

     19  H    Isotropic =    27.8912   Anisotropy =     9.8280

     20  H    Isotropic =    28.0657   Anisotropy =     6.1467

     21  H    Isotropic =    28.3888   Anisotropy =     8.8752

     22  Rh   Isotropic =  -306.3473   Anisotropy =   365.3201

     23  C    Isotropic =    72.4117   Anisotropy =   131.0608

     24  C    Isotropic =    69.1086   Anisotropy =   130.2560

     25  C    Isotropic =    78.4553   Anisotropy =   122.2691

     26  C    Isotropic =    68.5695   Anisotropy =   131.8165

     27  C    Isotropic =   154.0330   Anisotropy =    24.0270

     28  H    Isotropic =    26.4338   Anisotropy =     6.6309

     29  H    Isotropic =    25.8645   Anisotropy =     4.7275

     30  C    Isotropic =   148.4663   Anisotropy =    28.5509

     31  C    Isotropic =   154.5363   Anisotropy =    23.1338

     32  H    Isotropic =    26.9577   Anisotropy =     6.6693

     33  C    Isotropic =   147.6404   Anisotropy =    29.4454

     34  H    Isotropic =    25.8299   Anisotropy =     4.5050

     35  H    Isotropic =    29.8678   Anisotropy =    11.2330

     36  H    Isotropic =    29.6872   Anisotropy =     8.4317

     37  H    Isotropic =    29.0878   Anisotropy =    11.9731

     38  H    Isotropic =    29.1810   Anisotropy =     8.1182

     39  H    Isotropic =    29.7078   Anisotropy =     8.6658

     40  H    Isotropic =    29.8925   Anisotropy =    11.2619

     41  H    Isotropic =    29.1038   Anisotropy =     7.9134

     42  H    Isotropic =    29.0859   Anisotropy =    11.9222

     43  O    Isotropic =   230.8840   Anisotropy =    87.8142

     44  O    Isotropic =   215.5030   Anisotropy =    97.0516

     45  O    Isotropic =   220.0173   Anisotropy =    95.6162

     46  O    Isotropic =   236.7381   Anisotropy =    82.3015

 The electronic state is 1-A.
 Alpha  occ. eigenvalues --  -77.31570 -77.31537 -19.27861 -19.27725 -19.27716
 Alpha  occ. eigenvalues --  -19.27658 -10.34246 -10.34092 -10.33961 -10.33825
 Alpha  occ. eigenvalues --  -10.31406 -10.31095 -10.31014 -10.31001 -10.30746
 Alpha  occ. eigenvalues --  -10.29154 -10.29084 -10.28962 -10.28925  -6.76665
 Alpha  occ. eigenvalues --   -6.76662  -4.93095  -4.93093  -4.92955  -4.92942
 Alpha  occ. eigenvalues --   -4.92502  -4.92495  -3.34074  -2.11178  -2.10276
 Alpha  occ. eigenvalues --   -2.07353  -1.18420  -1.18230  -1.14817  -1.14689
 Alpha  occ. eigenvalues --   -0.96266  -0.91120  -0.90188  -0.89723  -0.84846
 Alpha  occ. eigenvalues --   -0.82457  -0.82083  -0.81939  -0.81320  -0.79620
 Alpha  occ. eigenvalues --   -0.72298  -0.70997  -0.70098  -0.67547  -0.64338
 Alpha  occ. eigenvalues --   -0.63855  -0.63028  -0.62859  -0.61620  -0.60108
 Alpha  occ. eigenvalues --   -0.59757  -0.58611  -0.58421  -0.58203  -0.57866
 Alpha  occ. eigenvalues --   -0.57684  -0.56675  -0.56507  -0.56312  -0.55282
 Alpha  occ. eigenvalues --   -0.54464  -0.54260  -0.54237  -0.52320  -0.50047
 Alpha  occ. eigenvalues --   -0.49667  -0.49262  -0.48905  -0.48142  -0.48091
 Alpha  occ. eigenvalues --   -0.47647  -0.46809  -0.45057  -0.44935  -0.44007
 Alpha  occ. eigenvalues --   -0.43767  -0.43042  -0.42919  -0.42724  -0.42442
 Alpha  occ. eigenvalues --   -0.39064  -0.38728  -0.37755  -0.37283  -0.36153
 Alpha  occ. eigenvalues --   -0.33002
 Alpha virt. eigenvalues --   -0.18789  -0.16343  -0.11338  -0.10613  -0.09094
 Alpha virt. eigenvalues --   -0.08804  -0.08463  -0.08097  -0.07005  -0.06477
 Alpha virt. eigenvalues --   -0.06060  -0.05422  -0.04453  -0.03939  -0.03136

 Mulliken charges:
               1
     1  P    0.637298
     2  P    0.657797
     3  C   -0.565840
     4  H    0.223591
     5  H    0.219456
     6  C   -0.186136
     7  H    0.165450
     8  H    0.137058
     9  H    0.149350
    10  C   -0.202019
    11  H    0.172223
    12  H    0.134640
    13  H    0.142985
    14  C   -0.171910
    15  H    0.165770
    16  H    0.132820
    17  H    0.148350
    18  C   -0.204715
    19  H    0.170551
    20  H    0.138595
    21  H    0.141531
    22  Rh  -0.559145
    23  C   -0.022328
    24  C   -0.082345
    25  C   -0.035036
    26  C   -0.081821
    27  C   -0.344451
    28  H    0.175593
    29  H    0.184151
    30  C   -0.222607
    31  C   -0.349295
    32  H    0.180079
    33  C   -0.219437
    34  H    0.203787
    35  H    0.174824
    36  H    0.170023
    37  H    0.182254
    38  H    0.141794
    39  H    0.170339
    40  H    0.175112
    41  H    0.143184
    42  H    0.180428
    43  O   -0.344705
    44  O   -0.342258
    45  O   -0.348880
    46  O   -0.336105
 Sum of Mulliken charges =   1.00000

 Dipole moment (field-independent basis, Debye):
    X=             -1.2017    Y=              0.1085    Z=              0.0523  Tot=              1.2077
 Quadrupole moment (field-independent basis, Debye-Ang):
   XX=           -109.2794   YY=           -110.4482   ZZ=           -133.1666
   XY=              1.2526   XZ=              0.3692   YZ=             -2.4335

 Summary of Natural Population Analysis:

                                       Natural Population
                Natural  -----------------------------------------------
    Atom  No    Charge         Core      Valence    Rydberg      Total
 -----------------------------------------------------------------------
      P    1    1.70747      9.99599     3.20745    0.08909    13.29253
      P    2    1.72367      9.99578     3.19002    0.09052    13.27633
      C    3   -1.09087      1.99945     5.07587    0.01554     7.09087
      H    4    0.28039      0.00000     0.71804    0.00157     0.71961
      H    5    0.27398      0.00000     0.72388    0.00214     0.72602
      C    6   -0.26041      1.99929     4.24572    0.01541     6.26041
      H    7    0.21040      0.00000     0.78822    0.00137     0.78960
      H    8    0.18224      0.00000     0.81589    0.00187     0.81776
      H    9    0.18805      0.00000     0.81009    0.00186     0.81195
      C   10   -0.25549      1.99929     4.24078    0.01541     6.25549
      H   11    0.21214      0.00000     0.78644    0.00141     0.78786
      H   12    0.17977      0.00000     0.81821    0.00202     0.82023
      H   13    0.18282      0.00000     0.81543    0.00175     0.81718
      C   14   -0.25833      1.99929     4.24392    0.01512     6.25833
      H   15    0.21075      0.00000     0.78789    0.00136     0.78925
      H   16    0.18097      0.00000     0.81719    0.00184     0.81903
      H   17    0.18946      0.00000     0.80875    0.00180     0.81054
      C   18   -0.25498      1.99929     4.24029    0.01539     6.25498
      H   19    0.21093      0.00000     0.78766    0.00141     0.78907
      H   20    0.18414      0.00000     0.81393    0.00193     0.81586
      H   21    0.18159      0.00000     0.81668    0.00174     0.81841
     Rh   22   -0.57403     35.98477     9.56379    0.02547    45.57403
      C   23   -0.15906      1.99907     4.13950    0.02049     6.15906
      C   24   -0.15053      1.99907     4.13011    0.02135     6.15053
      C   25   -0.17444      1.99906     4.15472    0.02066     6.17444
      C   26   -0.13815      1.99906     4.11785    0.02124     6.13815
      C   27   -0.42650      1.99936     4.41510    0.01203     6.42650
      H   28    0.22440      0.00000     0.77368    0.00192     0.77560
      H   29    0.23860      0.00000     0.75987    0.00152     0.76140
      C   30   -0.42728      1.99936     4.41540    0.01252     6.42728
      C   31   -0.42426      1.99936     4.41295    0.01195     6.42426
      H   32    0.22774      0.00000     0.77053    0.00173     0.77226
      C   33   -0.42654      1.99936     4.41468    0.01251     6.42654
      H   34    0.24307      0.00000     0.75536    0.00157     0.75693
      H   35    0.23274      0.00000     0.76585    0.00141     0.76726
      H   36    0.21453      0.00000     0.78345    0.00203     0.78547
      H   37    0.24110      0.00000     0.75717    0.00173     0.75890
      H   38    0.22385      0.00000     0.77462    0.00153     0.77615
      H   39    0.21425      0.00000     0.78373    0.00203     0.78575
      H   40    0.23227      0.00000     0.76632    0.00141     0.76773
      H   41    0.22458      0.00000     0.77391    0.00151     0.77542
      H   42    0.24055      0.00000     0.75770    0.00175     0.75945
      O   43   -0.75938      1.99982     6.74670    0.01286     8.75938
      O   44   -0.76022      1.99983     6.74585    0.01454     8.76022
      O   45   -0.75790      1.99983     6.74442    0.01365     8.75790
      O   46   -0.75810      1.99982     6.74470    0.01358     8.75810
 =======================================================================
   * Total *    1.00000     89.96615   119.52033    0.51352   210.00000

 Normal termination of Gaussian 16 at Tue Jan 21 01:15:22 2025.
