 Gaussian 16, Revision B.01,
 Gaussian 16:  ES64L-G16RevB.01 20-Dec-2017

 ------------------------------------------
 # nmr=giao b3lyp/genecp pop=nbo scfcyc=200
 ------------------------------------------

 ---------
 MB-81_SPE
 ---------
 Symbolic Z-matrix:
 Charge =  1 Multiplicity = 1

                         Standard orientation:
 ---------------------------------------------------------------------
 Center     Atomic      Atomic             Coordinates (Angstroms)
 Number     Number       Type             X           Y           Z
 ---------------------------------------------------------------------
      1         15           0       -1.188260   -0.539601   -0.625670
      2          6           0       -1.925949   -1.970291   -1.525120
      3          6           0       -1.103839   -2.807301   -2.288340
      4          6           0       -1.631809   -3.926071   -2.920230
      5          6           0       -2.982888   -4.233021   -2.783010
      6          6           0       -3.801359   -3.417142   -2.010770
      7          6           0       -3.278439   -2.290871   -1.381990
      8          1           0       -3.929799   -1.660772   -0.791160
      9          1           0       -4.852189   -3.652382   -1.897760
     10          1           0       -3.393398   -5.105951   -3.274350
     11          1           0       -0.988438   -4.559841   -3.517620
     12          1           0       -0.046449   -2.595151   -2.392620
     13          6           0       -2.577340    0.588469   -0.230490
     14          6           0       -2.867060    0.893979    1.099070
     15          6           0       -3.919280    1.748278    1.413030
     16          6           0       -4.706080    2.320648    0.413770
     17          6           0       -4.404790    2.012388   -0.919150
     18          6           0       -3.360310    1.160369   -1.240990
     19          1           0       -3.163410    0.936539   -2.282940
     20          1           0       -4.998910    2.447528   -1.714600
     21          1           0       -4.127820    1.974598    2.452020
     22          1           0       -2.263600    0.471679    1.892880
     23          6           0       -0.097290    0.392449   -1.835140
     24         15           0        1.215100    0.868030   -0.581690
     25          6           0        2.856000    0.795490   -1.419180
     26          6           0        3.798880    1.813831   -1.256960
     27          6           0        5.058380    1.700791   -1.838780
     28          6           0        5.388910    0.574471   -2.582900
     29          6           0        4.458350   -0.449619   -2.738070
     30          6           0        3.203300   -0.345100   -2.152320
     31          1           0        2.500101   -1.161540   -2.266070
     32          1           0        4.711661   -1.331639   -3.312820
     33          1           0        6.367690    0.491551   -3.037940
     34          1           0        5.779050    2.498691   -1.711040
     35          1           0        3.554650    2.700560   -0.687520
     36          6           0        0.913310    2.640940   -0.204670
     37          6           0        0.875959    3.596500   -1.226970
     38          6           0        0.638989    4.931300   -0.926120
     39          6           0        0.438059    5.324990    0.395240
     40          6           0        0.471739    4.381050    1.414570
     41          6           0        0.706589    3.041870    1.116250
     42          1           0        0.719030    2.306490    1.910500
     43          1           0        0.313379    4.684180    2.441850
     44          1           0        0.255249    6.366770    0.626800
     45          1           0        0.612549    5.665400   -1.721600
     46          1           0        1.041159    3.305430   -2.257570
     47          1           0        0.322480   -0.299840   -2.563960
     48          1           0       -0.571460    1.219949   -2.361090
     49         45           0        0.554741   -0.802520    0.950970
     50          6           0       -0.331009   -2.154021    2.556050
     51          6           0        0.101421   -2.936531    1.505120
     52          6           0        2.596091   -1.439770    1.736370
     53          6           0        2.069480   -0.489510    2.586480
     54          6           0        0.399811   -1.961300    3.872010
     55          1           0       -1.381839   -1.883581    2.560450
     56          1           0       -0.643259   -3.248451    0.780740
     57          6           0        1.407261   -3.687100    1.415380
     58          6           0        2.623271   -2.934690    1.995920
     59          1           0        3.274881   -1.087480    0.967790
     60          6           0        1.345671   -0.739930    3.886770
     61          1           0        2.407800    0.532970    2.448820
     62          1           0       -0.340179   -1.833021    4.663680
     63          1           0        0.948851   -2.868870    4.122020
     64          1           0        1.304632   -4.662680    1.907120
     65          1           0        1.590951   -3.904580    0.361100
     66          1           0        2.708011   -3.117800    3.066870
     67          1           0        3.530031   -3.345760    1.549160
     68          1           0        0.766510    0.155980    4.122590
     69          1           0        2.072701   -0.845210    4.701650
     70          6           0       -5.856861    3.230738    0.748340
     71          1           0       -5.845841    4.127898    0.126510
     72          1           0       -6.811900    2.727918    0.572900
     73          1           0       -5.831821    3.539718    1.793090
 ---------------------------------------------------------------------

 SCF Done:  E(RB3LYP) =  -2110.94372483     A.U. after   16 cycles

      1  P    Isotropic =   317.3073   Anisotropy =   108.1880

      2  C    Isotropic =    42.9592   Anisotropy =   168.2293

      3  C    Isotropic =    49.8164   Anisotropy =   183.6111

      4  C    Isotropic =    48.9739   Anisotropy =   188.9733

      5  C    Isotropic =    46.4239   Anisotropy =   195.5324

      6  C    Isotropic =    48.5872   Anisotropy =   189.8086

      7  C    Isotropic =    46.8612   Anisotropy =   191.6815

      8  H    Isotropic =    25.1097   Anisotropy =    12.9925

      9  H    Isotropic =    24.3599   Anisotropy =     6.6429

     10  H    Isotropic =    24.0778   Anisotropy =     3.8699

     11  H    Isotropic =    23.9186   Anisotropy =     6.5762

     12  H    Isotropic =    23.7001   Anisotropy =    10.5794

     13  C    Isotropic =    51.2953   Anisotropy =   168.1589

     14  C    Isotropic =    41.1062   Anisotropy =   178.1387

     15  C    Isotropic =    49.2792   Anisotropy =   163.9802

     16  C    Isotropic =    29.9676   Anisotropy =   216.4432

     17  C    Isotropic =    47.4773   Anisotropy =   175.5192

     18  C    Isotropic =    47.1813   Anisotropy =   186.3175

     19  H    Isotropic =    24.6588   Anisotropy =    10.8677

     20  H    Isotropic =    24.4435   Anisotropy =     7.1199

     21  H    Isotropic =    24.4723   Anisotropy =     7.9372

     22  H    Isotropic =    23.8704   Anisotropy =     9.9407

     23  C    Isotropic =   126.3693   Anisotropy =    44.1447

     24  P    Isotropic =   316.5799   Anisotropy =   111.2281

     25  C    Isotropic =    43.1648   Anisotropy =   167.3688

     26  C    Isotropic =    46.7139   Anisotropy =   191.7758

     27  C    Isotropic =    48.7670   Anisotropy =   189.6594

     28  C    Isotropic =    46.4975   Anisotropy =   195.8121

     29  C    Isotropic =    48.8838   Anisotropy =   189.0153

     30  C    Isotropic =    49.4207   Anisotropy =   184.3098

     31  H    Isotropic =    23.6568   Anisotropy =    10.6927

     32  H    Isotropic =    23.9331   Anisotropy =     6.6480

     33  H    Isotropic =    24.0877   Anisotropy =     3.8557

     34  H    Isotropic =    24.3757   Anisotropy =     6.5953

     35  H    Isotropic =    25.0859   Anisotropy =    13.0772

     36  C    Isotropic =    46.2112   Anisotropy =   173.6008

     37  C    Isotropic =    46.4642   Anisotropy =   190.0183

     38  C    Isotropic =    48.2406   Anisotropy =   192.0499

     39  C    Isotropic =    44.9468   Anisotropy =   199.7338

     40  C    Isotropic =    49.5810   Anisotropy =   189.1913

     41  C    Isotropic =    41.6238   Anisotropy =   182.2843

     42  H    Isotropic =    23.7537   Anisotropy =     9.4996

     43  H    Isotropic =    24.2518   Anisotropy =     6.4341

     44  H    Isotropic =    24.1392   Anisotropy =     3.5662

     45  H    Isotropic =    24.2743   Anisotropy =     5.4175

     46  H    Isotropic =    24.5110   Anisotropy =    10.9832

     47  H    Isotropic =    27.3565   Anisotropy =     2.7571

     48  H    Isotropic =    28.1170   Anisotropy =     8.4500

     49  Rh   Isotropic =  -310.6701   Anisotropy =   339.1086

     50  C    Isotropic =    80.8883   Anisotropy =   117.5653

     51  C    Isotropic =    71.2637   Anisotropy =   124.8964

     52  C    Isotropic =    73.5545   Anisotropy =   128.9660

     53  C    Isotropic =    79.4138   Anisotropy =   111.6992

     54  C    Isotropic =   154.0775   Anisotropy =    25.0405

     55  H    Isotropic =    27.0010   Anisotropy =     7.0474

     56  H    Isotropic =    26.9852   Anisotropy =     4.1344

     57  C    Isotropic =   147.5465   Anisotropy =    29.2873

     58  C    Isotropic =   153.7689   Anisotropy =    25.2641

     59  H    Isotropic =    27.3934   Anisotropy =     5.3397

     60  C    Isotropic =   147.8894   Anisotropy =    29.8222

     61  H    Isotropic =    26.4911   Anisotropy =     4.7194

     62  H    Isotropic =    29.7615   Anisotropy =    11.8287

     63  H    Isotropic =    29.7859   Anisotropy =     9.4163

     64  H    Isotropic =    29.2930   Anisotropy =    12.2737

     65  H    Isotropic =    29.1175   Anisotropy =     7.3982

     66  H    Isotropic =    29.8323   Anisotropy =     9.4823

     67  H    Isotropic =    29.9799   Anisotropy =    10.8953

     68  H    Isotropic =    28.9156   Anisotropy =     8.5532

     69  H    Isotropic =    29.0190   Anisotropy =    12.6624

     70  C    Isotropic =   161.8679   Anisotropy =    42.5149

     71  H    Isotropic =    29.4805   Anisotropy =     8.1675

     72  H    Isotropic =    29.2570   Anisotropy =     9.7540

     73  H    Isotropic =    29.7640   Anisotropy =     7.3276

 The electronic state is 1-A.
 Alpha  occ. eigenvalues --  -77.23804 -77.23713 -10.30217 -10.29655 -10.29587
 Alpha  occ. eigenvalues --  -10.29559 -10.29092 -10.29041 -10.28986 -10.28918
 Alpha  occ. eigenvalues --  -10.28751 -10.28465 -10.28464 -10.28447 -10.28444
 Alpha  occ. eigenvalues --  -10.28442 -10.28196 -10.28180 -10.28098 -10.28041
 Alpha  occ. eigenvalues --  -10.27750 -10.27663 -10.27621 -10.27611 -10.27583
 Alpha  occ. eigenvalues --  -10.27557 -10.27475 -10.27445 -10.27412 -10.27387
 Alpha  occ. eigenvalues --  -10.27354 -10.27273 -10.27244 -10.27145 -10.27067
 Alpha  occ. eigenvalues --  -10.25265  -6.69780  -6.69687  -4.86063  -4.86004
 Alpha  occ. eigenvalues --   -4.85971  -4.85908  -4.85681  -4.85590  -3.31624
 Alpha  occ. eigenvalues --   -2.08520  -2.07835  -2.05102  -0.96910  -0.96703
 Alpha  occ. eigenvalues --   -0.96148  -0.96121  -0.94406  -0.89856  -0.89124
 Alpha  occ. eigenvalues --   -0.87975  -0.87888  -0.86087  -0.85396  -0.85344
 Alpha  occ. eigenvalues --   -0.85198  -0.85026  -0.84934  -0.83914  -0.80301
 Alpha  occ. eigenvalues --   -0.78847  -0.77778  -0.75021  -0.72772  -0.71366
 Alpha  occ. eigenvalues --   -0.71244  -0.71035  -0.70878  -0.70536  -0.70302
 Alpha  occ. eigenvalues --   -0.69159  -0.66995  -0.66583  -0.65807  -0.62698
 Alpha  occ. eigenvalues --   -0.62385  -0.62131  -0.61184  -0.59979  -0.59375
 Alpha  occ. eigenvalues --   -0.57203  -0.57006  -0.56532  -0.56264  -0.56189
 Alpha  occ. eigenvalues --   -0.55997  -0.55858  -0.55444  -0.55218  -0.55023
 Alpha  occ. eigenvalues --   -0.54712  -0.53621  -0.53334  -0.52797  -0.52637
 Alpha  occ. eigenvalues --   -0.52633  -0.52614  -0.52510  -0.52375  -0.51168
 Alpha  occ. eigenvalues --   -0.50906  -0.49675  -0.48876  -0.48493  -0.48367
 Alpha  occ. eigenvalues --   -0.47903  -0.47681  -0.47412  -0.47300  -0.46322
 Alpha  occ. eigenvalues --   -0.45992  -0.45966  -0.45887  -0.45270  -0.45091
 Alpha  occ. eigenvalues --   -0.45027  -0.44287  -0.43891  -0.43545  -0.43347
 Alpha  occ. eigenvalues --   -0.43235  -0.43091  -0.42713  -0.41368  -0.38143
 Alpha  occ. eigenvalues --   -0.37614  -0.36521  -0.36346  -0.36111  -0.35953
 Alpha  occ. eigenvalues --   -0.35709  -0.35597  -0.35087  -0.34808  -0.34576
 Alpha  occ. eigenvalues --   -0.34496  -0.33864  -0.30824
 Alpha virt. eigenvalues --   -0.16400  -0.14952  -0.13890  -0.13206  -0.12875
 Alpha virt. eigenvalues --   -0.12160  -0.11707  -0.10847  -0.10620  -0.10572
 Alpha virt. eigenvalues --   -0.09292  -0.07633  -0.07022  -0.06570  -0.05832

 Mulliken charges:
               1
     1  P    0.307734
     2  C   -0.185201
     3  C   -0.055175
     4  C   -0.112707
     5  C   -0.092966
     6  C   -0.101451
     7  C   -0.053366
     8  H    0.161555
     9  H    0.135385
    10  H    0.140073
    11  H    0.130365
    12  H    0.138945
    13  C   -0.228566
    14  C    0.000394
    15  C   -0.134191
    16  C    0.090415
    17  C   -0.113241
    18  C   -0.064221
    19  H    0.142610
    20  H    0.132393
    21  H    0.124491
    22  H    0.128859
    23  C   -0.588468
    24  P    0.298436
    25  C   -0.170630
    26  C   -0.058583
    27  C   -0.101248
    28  C   -0.093383
    29  C   -0.115200
    30  C   -0.057048
    31  H    0.142408
    32  H    0.130705
    33  H    0.140414
    34  H    0.136159
    35  H    0.161202
    36  C   -0.212799
    37  C   -0.093587
    38  C   -0.081229
    39  C   -0.095155
    40  C   -0.113589
    41  C   -0.023522
    42  H    0.147443
    43  H    0.129715
    44  H    0.139921
    45  H    0.136666
    46  H    0.148127
    47  H    0.206501
    48  H    0.211845
    49  Rh  -0.496832
    50  C   -0.000569
    51  C   -0.115969
    52  C   -0.029109
    53  C   -0.084755
    54  C   -0.347863
    55  H    0.174261
    56  H    0.219159
    57  C   -0.229348
    58  C   -0.355897
    59  H    0.208829
    60  C   -0.223401
    61  H    0.181992
    62  H    0.168993
    63  H    0.166978
    64  H    0.171980
    65  H    0.129421
    66  H    0.166853
    67  H    0.168870
    68  H    0.127626
    69  H    0.172434
    70  C   -0.432958
    71  H    0.145339
    72  H    0.156359
    73  H    0.140373
 Sum of Mulliken charges =   1.00000

 Dipole moment (field-independent basis, Debye):
    X=             -0.1942    Y=              0.3992    Z=             -0.3286  Tot=              0.5523
 Quadrupole moment (field-independent basis, Debye-Ang):
   XX=           -188.7069   YY=           -192.1016   ZZ=           -211.5803
   XY=             -4.5316   XZ=             -3.1070   YZ=              4.3956

 Summary of Natural Population Analysis:

                                       Natural Population
                Natural  -----------------------------------------------
    Atom  No    Charge         Core      Valence    Rydberg      Total
 -----------------------------------------------------------------------
      P    1    1.12157      9.99648     3.83065    0.05130    13.87843
      C    2   -0.33996      1.99899     4.31740    0.02356     6.33996
      C    3   -0.19934      1.99909     4.18489    0.01537     6.19934
      C    4   -0.19177      1.99920     4.17779    0.01478     6.19177
      C    5   -0.18054      1.99920     4.16663    0.01471     6.18054
      C    6   -0.18824      1.99920     4.17436    0.01469     6.18824
      C    7   -0.19340      1.99910     4.17900    0.01530     6.19340
      H    8    0.22449      0.00000     0.77376    0.00175     0.77551
      H    9    0.22305      0.00000     0.77574    0.00121     0.77695
      H   10    0.22334      0.00000     0.77549    0.00117     0.77666
      H   11    0.22123      0.00000     0.77753    0.00124     0.77877
      H   12    0.20513      0.00000     0.79276    0.00211     0.79487
      C   13   -0.36320      1.99899     4.34027    0.02394     6.36320
      C   14   -0.16968      1.99910     4.15469    0.01589     6.16968
      C   15   -0.20075      1.99911     4.18783    0.01382     6.20075
      C   16    0.02117      1.99914     3.96519    0.01449     5.97883
      C   17   -0.19373      1.99910     4.18099    0.01364     6.19373
      C   18   -0.18184      1.99910     4.16612    0.01662     6.18184
      H   19    0.21460      0.00000     0.78330    0.00210     0.78540
      H   20    0.21828      0.00000     0.78034    0.00138     0.78172
      H   21    0.21612      0.00000     0.78246    0.00142     0.78388
      H   22    0.21777      0.00000     0.78022    0.00201     0.78223
      C   23   -0.96350      1.99942     4.94615    0.01793     6.96350
      P   24    1.12069      9.99648     3.83257    0.05026    13.87931
      C   25   -0.33948      1.99899     4.31692    0.02357     6.33948
      C   26   -0.19348      1.99910     4.17912    0.01526     6.19348
      C   27   -0.18836      1.99920     4.17446    0.01469     6.18836
      C   28   -0.18022      1.99920     4.16631    0.01471     6.18022
      C   29   -0.19187      1.99920     4.17793    0.01475     6.19187
      C   30   -0.19780      1.99909     4.18346    0.01525     6.19780
      H   31    0.20607      0.00000     0.79187    0.00206     0.79393
      H   32    0.22123      0.00000     0.77753    0.00123     0.77877
      H   33    0.22341      0.00000     0.77542    0.00117     0.77659
      H   34    0.22329      0.00000     0.77549    0.00121     0.77671
      H   35    0.22406      0.00000     0.77419    0.00175     0.77594
      C   36   -0.34904      1.99900     4.32587    0.02417     6.34904
      C   37   -0.18991      1.99909     4.17485    0.01596     6.18991
      C   38   -0.19221      1.99920     4.17842    0.01460     6.19221
      C   39   -0.17390      1.99921     4.16019    0.01450     6.17390
      C   40   -0.19578      1.99920     4.18201    0.01457     6.19578
      C   41   -0.17834      1.99909     4.16380    0.01545     6.17834
      H   42    0.21768      0.00000     0.78020    0.00212     0.78232
      H   43    0.22120      0.00000     0.77757    0.00123     0.77880
      H   44    0.22283      0.00000     0.77600    0.00117     0.77717
      H   45    0.22331      0.00000     0.77545    0.00124     0.77669
      H   46    0.21603      0.00000     0.78189    0.00208     0.78397
      H   47    0.25732      0.00000     0.74108    0.00160     0.74268
      H   48    0.25725      0.00000     0.74090    0.00186     0.74275
     Rh   49   -0.40808     35.98583     9.39241    0.02984    45.40808
      C   50   -0.18506      1.99906     4.16649    0.01951     6.18506
      C   51   -0.14818      1.99907     4.12926    0.01984     6.14818
      C   52   -0.15669      1.99906     4.13833    0.01929     6.15669
      C   53   -0.17419      1.99907     4.15520    0.01992     6.17419
      C   54   -0.42253      1.99936     4.41151    0.01165     6.42253
      H   55    0.22555      0.00000     0.77248    0.00197     0.77445
      H   56    0.23224      0.00000     0.76583    0.00193     0.76776
      C   57   -0.41810      1.99935     4.40614    0.01261     6.41810
      C   58   -0.42450      1.99936     4.41333    0.01181     6.42450
      H   59    0.23124      0.00000     0.76678    0.00198     0.76876
      C   60   -0.41892      1.99936     4.40731    0.01225     6.41892
      H   61    0.22549      0.00000     0.77257    0.00195     0.77451
      H   62    0.22818      0.00000     0.77031    0.00151     0.77182
      H   63    0.21514      0.00000     0.78291    0.00195     0.78486
      H   64    0.23365      0.00000     0.76445    0.00190     0.76635
      H   65    0.21527      0.00000     0.78312    0.00161     0.78473
      H   66    0.21475      0.00000     0.78328    0.00197     0.78525
      H   67    0.22885      0.00000     0.76970    0.00144     0.77115
      H   68    0.21620      0.00000     0.78232    0.00148     0.78380
      H   69    0.23397      0.00000     0.76412    0.00191     0.76603
      C   70   -0.61966      1.99941     4.61292    0.00734     6.61966
      H   71    0.22398      0.00000     0.77474    0.00128     0.77602
      H   72    0.22835      0.00000     0.77031    0.00134     0.77165
      H   73    0.21826      0.00000     0.78049    0.00124     0.78174
 =======================================================================
   * Total *    1.00000    123.95024   189.31337    0.73640   314.00000

 Normal termination of Gaussian 16 at Tue Jan 21 16:30:29 2025.
