 Gaussian 16, Revision B.01,
 Gaussian 16:  ES64L-G16RevB.01 20-Dec-2017

 ------------------------------------------
 # nmr=giao b3lyp/genecp pop=nbo scfcyc=200
 ------------------------------------------

 ---------
 MB-89_SPE
 ---------
 Symbolic Z-matrix:
 Charge =  1 Multiplicity = 1

                         Standard orientation:
 ---------------------------------------------------------------------
 Center     Atomic      Atomic             Coordinates (Angstroms)
 Number     Number       Type             X           Y           Z
 ---------------------------------------------------------------------
      1         15           0       -1.397251    0.059801   -0.472920
      2          6           0       -2.776881   -0.936329   -1.174940
      3          6           0       -2.518371   -2.177809   -1.766290
      4          6           0       -3.558731   -2.968539   -2.232750
      5          6           0       -4.890541   -2.558819   -2.112900
      6          6           0       -5.141161   -1.329669   -1.501040
      7          6           0       -4.105251   -0.526969   -1.036650
      8          1           0       -4.339410    0.423131   -0.574640
      9          1           0       -6.163701   -0.989409   -1.385830
     10          1           0       -3.333361   -3.922699   -2.695040
     11          1           0       -1.502591   -2.542029   -1.864610
     12          6           0       -2.017500    1.782071   -0.370170
     13          6           0       -2.062090    2.433661    0.861910
     14          6           0       -2.530540    3.740691    0.951820
     15          6           0       -2.963130    4.430991   -0.180120
     16          6           0       -2.909660    3.770891   -1.414450
     17          6           0       -2.447120    2.468181   -1.512710
     18          1           0       -2.430130    1.985011   -2.482650
     19          1           0       -3.236190    4.287191   -2.309970
     20          1           0       -2.556190    4.230491    1.918140
     21          1           0       -1.721010    1.922891    1.753860
     22          6           0       -0.008421    0.087710   -1.733750
     23         15           0        1.390549    0.052680   -0.482690
     24          6           0        2.738649   -0.991400   -1.175890
     25          6           0        4.070219   -0.571540   -1.174110
     26          6           0        5.073919   -1.414300   -1.639800
     27          6           0        4.786299   -2.693040   -2.118380
     28          6           0        3.451539   -3.111920   -2.100860
     29          6           0        2.444589   -2.282050   -1.630700
     30          1           0        1.426289   -2.652960   -1.610930
     31          1           0        3.199089   -4.104870   -2.454860
     32          1           0        6.100279   -1.066291   -1.630420
     33          1           0        4.332709    0.414870   -0.815620
     34          6           0        2.042910    1.765260   -0.420010
     35          6           0        2.461620    2.425080   -1.582050
     36          6           0        2.946430    3.721870   -1.515620
     37          6           0        3.032650    4.402860   -0.294810
     38          6           0        2.608230    3.740040    0.856570
     39          6           0        2.118160    2.439330    0.798480
     40          1           0        1.781710    1.953130    1.705360
     41          1           0        2.656670    4.247050    1.813080
     42          1           0        3.263960    4.216970   -2.426200
     43          1           0        2.417920    1.926380   -2.543240
     44          1           0       -0.009421   -0.838630   -2.307160
     45          1           0       -0.009190    0.932850   -2.420840
     46         45           0        0.002209   -0.751330    1.251740
     47          6           0       -1.413421   -1.153189    2.988350
     48          6           0       -1.461091   -2.223189    2.118330
     49          6           0        1.451989   -2.173320    2.282060
     50          6           0        1.499789   -0.950840    2.919460
     51          6           0       -0.658931   -1.118990    4.304750
     52          1           0       -2.180291   -0.394829    2.868900
     53          1           0       -2.275211   -2.243379    1.401840
     54          6           0       -0.721161   -3.531310    2.254550
     55          6           0        0.720619   -3.402260    2.789940
     56          1           0        2.198499   -2.357150    1.517510
     57          6           0        0.777029   -0.561440    4.185760
     58          1           0        2.307649   -0.282380    2.637960
     59          1           0       -1.213841   -0.493839    5.006280
     60          1           0       -0.642711   -2.116510    4.743480
     61          1           0       -1.295111   -4.213779    2.894120
     62          1           0       -0.695981   -3.999810    1.268400
     63          1           0        0.722939   -3.404140    3.879790
     64          1           0        1.282569   -4.287610    2.487770
     65          1           0        0.739020    0.529830    4.224170
     66          1           0        1.366099   -0.868080    5.059130
     67          6           0        5.870969   -3.587311   -2.655520
     68          1           0        5.668319   -4.636530   -2.436140
     69          1           0        5.947599   -3.490801   -3.742490
     70          1           0        6.843699   -3.331581   -2.234860
     71          6           0        3.585090    5.801410   -0.233740
     72          1           0        4.673560    5.792240   -0.339600
     73          1           0        3.187700    6.420630   -1.039910
     74          1           0        3.349540    6.283360    0.714990
     75          6           0       -6.012811   -3.406689   -2.647980
     76          1           0       -6.180681   -3.199639   -3.708960
     77          1           0       -5.788481   -4.470219   -2.555960
     78          1           0       -6.947991   -3.207629   -2.124040
     79          6           0       -3.490230    5.837471   -0.085270
     80          1           0       -3.074120    6.470581   -0.871130
     81          1           0       -4.577600    5.852101   -0.200560
     82          1           0       -3.253470    6.289161    0.877880
 ---------------------------------------------------------------------

 SCF Done:  E(RB3LYP) =  -2228.93937120     A.U. after   16 cycles

      1  P    Isotropic =   317.6732   Anisotropy =   108.0969

      2  C    Isotropic =    46.9341   Anisotropy =   163.9664

      3  C    Isotropic =    49.9330   Anisotropy =   180.6273

      4  C    Isotropic =    48.4151   Anisotropy =   169.4650

      5  C    Isotropic =    32.0370   Anisotropy =   211.3966

      6  C    Isotropic =    48.2728   Anisotropy =   168.1184

      7  C    Isotropic =    46.9040   Anisotropy =   187.7962

      8  H    Isotropic =    25.2649   Anisotropy =    12.9596

      9  H    Isotropic =    24.5812   Anisotropy =     8.2109

     10  H    Isotropic =    24.1109   Anisotropy =     8.3534

     11  H    Isotropic =    23.8579   Anisotropy =    10.5915

     12  C    Isotropic =    50.4720   Anisotropy =   169.6633

     13  C    Isotropic =    41.0710   Anisotropy =   178.2852

     14  C    Isotropic =    49.6118   Anisotropy =   163.6977

     15  C    Isotropic =    30.6294   Anisotropy =   215.6757

     16  C    Isotropic =    47.7060   Anisotropy =   174.9261

     17  C    Isotropic =    47.1857   Anisotropy =   186.3053

     18  H    Isotropic =    24.6833   Anisotropy =    10.7978

     19  H    Isotropic =    24.4779   Anisotropy =     7.0643

     20  H    Isotropic =    24.5161   Anisotropy =     7.8563

     21  H    Isotropic =    23.8638   Anisotropy =     9.8317

     22  C    Isotropic =   126.2693   Anisotropy =    45.3071

     23  P    Isotropic =   319.2368   Anisotropy =   111.7927

     24  C    Isotropic =    46.8175   Anisotropy =   162.9346

     25  C    Isotropic =    46.7428   Anisotropy =   187.9715

     26  C    Isotropic =    48.4839   Anisotropy =   167.1905

     27  C    Isotropic =    32.0397   Anisotropy =   211.6528

     28  C    Isotropic =    48.2854   Anisotropy =   169.4071

     29  C    Isotropic =    49.1769   Anisotropy =   180.5042

     30  H    Isotropic =    23.7886   Anisotropy =    10.5763

     31  H    Isotropic =    24.1263   Anisotropy =     8.5028

     32  H    Isotropic =    24.5877   Anisotropy =     8.2309

     33  H    Isotropic =    25.2082   Anisotropy =    13.0408

     34  C    Isotropic =    50.6154   Anisotropy =   168.6923

     35  C    Isotropic =    46.8842   Anisotropy =   186.3842

     36  C    Isotropic =    47.7897   Anisotropy =   174.5594

     37  C    Isotropic =    30.5695   Anisotropy =   215.5770

     38  C    Isotropic =    49.3295   Anisotropy =   164.3451

     39  C    Isotropic =    41.7262   Anisotropy =   178.5472

     40  H    Isotropic =    23.9255   Anisotropy =     9.5834

     41  H    Isotropic =    24.4941   Anisotropy =     7.9191

     42  H    Isotropic =    24.4355   Anisotropy =     7.0532

     43  H    Isotropic =    24.6270   Anisotropy =    10.7633

     44  H    Isotropic =    27.4611   Anisotropy =     2.5708

     45  H    Isotropic =    28.2007   Anisotropy =     8.2046

     46  Rh   Isotropic =  -310.2729   Anisotropy =   337.6075

     47  C    Isotropic =    81.5311   Anisotropy =   116.8012

     48  C    Isotropic =    71.9702   Anisotropy =   123.9291

     49  C    Isotropic =    73.9539   Anisotropy =   128.4867

     50  C    Isotropic =    79.8443   Anisotropy =   111.3725

     51  C    Isotropic =   154.1396   Anisotropy =    24.8233

     52  H    Isotropic =    27.0403   Anisotropy =     6.9753

     53  H    Isotropic =    27.0569   Anisotropy =     4.5258

     54  C    Isotropic =   147.6189   Anisotropy =    29.2426

     55  C    Isotropic =   153.7650   Anisotropy =    25.1144

     56  H    Isotropic =    27.4139   Anisotropy =     5.5459

     57  C    Isotropic =   147.9556   Anisotropy =    29.8082

     58  H    Isotropic =    26.5516   Anisotropy =     4.6608

     59  H    Isotropic =    29.7904   Anisotropy =    11.8088

     60  H    Isotropic =    29.8204   Anisotropy =     9.4377

     61  H    Isotropic =    29.3038   Anisotropy =    12.2096

     62  H    Isotropic =    29.1497   Anisotropy =     7.3297

     63  H    Isotropic =    29.8585   Anisotropy =     9.4892

     64  H    Isotropic =    29.9885   Anisotropy =    10.8560

     65  H    Isotropic =    28.9450   Anisotropy =     8.5403

     66  H    Isotropic =    29.0480   Anisotropy =    12.6522

     67  C    Isotropic =   161.9819   Anisotropy =    42.6276

     68  H    Isotropic =    29.4613   Anisotropy =     8.0177

     69  H    Isotropic =    29.2144   Anisotropy =     9.3537

     70  H    Isotropic =    29.6014   Anisotropy =     8.2151

     71  C    Isotropic =   161.8718   Anisotropy =    42.5302

     72  H    Isotropic =    29.2533   Anisotropy =     9.7829

     73  H    Isotropic =    29.5011   Anisotropy =     8.0871

     74  H    Isotropic =    29.7603   Anisotropy =     7.2566

     75  C    Isotropic =   161.9823   Anisotropy =    42.6237

     76  H    Isotropic =    29.2161   Anisotropy =     9.3650

     77  H    Isotropic =    29.4573   Anisotropy =     8.0317

     78  H    Isotropic =    29.5870   Anisotropy =     8.1756

     79  C    Isotropic =   161.8412   Anisotropy =    42.6144

     80  H    Isotropic =    29.5034   Anisotropy =     8.1112

     81  H    Isotropic =    29.2696   Anisotropy =     9.7778

     82  H    Isotropic =    29.7798   Anisotropy =     7.2481

 The electronic state is 1-A.
 Alpha  occ. eigenvalues --  -77.23174 -77.23167 -10.29617 -10.28788 -10.28763
 Alpha  occ. eigenvalues --  -10.28703 -10.28652 -10.28579 -10.28529 -10.28462
 Alpha  occ. eigenvalues --  -10.28297 -10.28138 -10.28108 -10.27870 -10.27836
 Alpha  occ. eigenvalues --  -10.27834 -10.27832 -10.27830 -10.27821 -10.27789
 Alpha  occ. eigenvalues --  -10.27771 -10.27480 -10.27457 -10.27172 -10.27089
 Alpha  occ. eigenvalues --  -10.26895 -10.26869 -10.26823 -10.26783 -10.26755
 Alpha  occ. eigenvalues --  -10.26748 -10.26742 -10.26706 -10.26551 -10.26525
 Alpha  occ. eigenvalues --  -10.25039 -10.25018 -10.24800 -10.24799  -6.69145
 Alpha  occ. eigenvalues --   -6.69138  -4.85428  -4.85423  -4.85366  -4.85361
 Alpha  occ. eigenvalues --   -4.85050  -4.85042  -3.31103  -2.07989  -2.07311
 Alpha  occ. eigenvalues --   -2.04593  -0.96474  -0.96299  -0.95794  -0.95776
 Alpha  occ. eigenvalues --   -0.93983  -0.89784  -0.88689  -0.88299  -0.87575
 Alpha  occ. eigenvalues --   -0.86817  -0.86769  -0.85025  -0.84744  -0.84689
 Alpha  occ. eigenvalues --   -0.84524  -0.84402  -0.79926  -0.79887  -0.78146
 Alpha  occ. eigenvalues --   -0.77585  -0.77559  -0.77357  -0.72169  -0.71090
 Alpha  occ. eigenvalues --   -0.70999  -0.70876  -0.70598  -0.70137  -0.70041
 Alpha  occ. eigenvalues --   -0.68100  -0.68038  -0.66272  -0.66003  -0.65388
 Alpha  occ. eigenvalues --   -0.62001  -0.60830  -0.60145  -0.59763  -0.59255
 Alpha  occ. eigenvalues --   -0.57396  -0.56832  -0.56775  -0.56395  -0.56350
 Alpha  occ. eigenvalues --   -0.56296  -0.55848  -0.55131  -0.54907  -0.54840
 Alpha  occ. eigenvalues --   -0.54142  -0.53956  -0.53230  -0.52260  -0.52125
 Alpha  occ. eigenvalues --   -0.52095  -0.52031  -0.52006  -0.51919  -0.51814
 Alpha  occ. eigenvalues --   -0.50794  -0.50736  -0.50646  -0.50626  -0.49170
 Alpha  occ. eigenvalues --   -0.48430  -0.48215  -0.47817  -0.47725  -0.47481
 Alpha  occ. eigenvalues --   -0.47407  -0.47203  -0.46901  -0.46731  -0.45995
 Alpha  occ. eigenvalues --   -0.45761  -0.45657  -0.45548  -0.45228  -0.44843
 Alpha  occ. eigenvalues --   -0.43982  -0.43907  -0.43809  -0.43790  -0.43093
 Alpha  occ. eigenvalues --   -0.42842  -0.42820  -0.42641  -0.42559  -0.42039
 Alpha  occ. eigenvalues --   -0.40844  -0.37355  -0.36707  -0.35795  -0.35569
 Alpha  occ. eigenvalues --   -0.35377  -0.35135  -0.35103  -0.34954  -0.34341
 Alpha  occ. eigenvalues --   -0.34088  -0.33617  -0.33449  -0.33355  -0.30270
 Alpha virt. eigenvalues --   -0.15885  -0.14285  -0.13180  -0.12438  -0.12351
 Alpha virt. eigenvalues --   -0.11688  -0.11239  -0.10383  -0.10180  -0.09909
 Alpha virt. eigenvalues --   -0.08853  -0.07232  -0.06539  -0.06110  -0.05410

 Mulliken charges:
               1
     1  P    0.313745
     2  C   -0.191781
     3  C   -0.030783
     4  C   -0.142109
     5  C    0.090394
     6  C   -0.126682
     7  C   -0.036325
     8  H    0.155183
     9  H    0.128575
    10  H    0.124241
    11  H    0.129171
    12  C   -0.230404
    13  C    0.000566
    14  C   -0.134433
    15  C    0.091194
    16  C   -0.113146
    17  C   -0.064256
    18  H    0.141179
    19  H    0.130653
    20  H    0.122941
    21  H    0.130469
    22  C   -0.586276
    23  P    0.281390
    24  C   -0.183099
    25  C   -0.044461
    26  C   -0.125547
    27  C    0.090982
    28  C   -0.144096
    29  C   -0.027953
    30  H    0.141206
    31  H    0.124561
    32  H    0.128892
    33  H    0.156707
    34  C   -0.208519
    35  C   -0.069152
    36  C   -0.112271
    37  C    0.093630
    38  C   -0.140663
    39  C   -0.003127
    40  H    0.140826
    41  H    0.122889
    42  H    0.130834
    43  H    0.143000
    44  H    0.205848
    45  H    0.208879
    46  Rh  -0.502249
    47  C   -0.004900
    48  C   -0.114952
    49  C   -0.030672
    50  C   -0.084801
    51  C   -0.347281
    52  H    0.173954
    53  H    0.218767
    54  C   -0.228164
    55  C   -0.356089
    56  H    0.210080
    57  C   -0.222952
    58  H    0.180953
    59  H    0.167692
    60  H    0.165855
    61  H    0.169811
    62  H    0.128743
    63  H    0.165780
    64  H    0.167042
    65  H    0.126892
    66  H    0.170455
    67  C   -0.430542
    68  H    0.140207
    69  H    0.157704
    70  H    0.142990
    71  C   -0.434054
    72  H    0.156362
    73  H    0.143708
    74  H    0.139907
    75  C   -0.430524
    76  H    0.157985
    77  H    0.140296
    78  H    0.142861
    79  C   -0.433066
    80  H    0.143851
    81  H    0.155840
    82  H    0.139642
 Sum of Mulliken charges =   1.00000

 Dipole moment (field-independent basis, Debye):
    X=             -0.0009    Y=              0.3488    Z=             -0.5314  Tot=              0.6356
 Quadrupole moment (field-independent basis, Debye-Ang):
   XX=           -202.1316   YY=           -198.2431   ZZ=           -230.6130
   XY=              0.1654   XZ=             -0.3053   YZ=              3.8819

 Summary of Natural Population Analysis:

                                       Natural Population
                Natural  -----------------------------------------------
    Atom  No    Charge         Core      Valence    Rydberg      Total
 -----------------------------------------------------------------------
      P    1    1.12415      9.99648     3.82817    0.05120    13.87585
      C    2   -0.35314      1.99899     4.33111    0.02304     6.35314
      C    3   -0.18997      1.99910     4.17554    0.01534     6.18997
      C    4   -0.19416      1.99911     4.18137    0.01369     6.19416
      C    5    0.01272      1.99914     3.97352    0.01461     5.98728
      C    6   -0.19218      1.99911     4.17947    0.01360     6.19218
      C    7   -0.18496      1.99910     4.17058    0.01528     6.18496
      H    8    0.22302      0.00000     0.77522    0.00176     0.77698
      H    9    0.21732      0.00000     0.78127    0.00141     0.78268
      H   10    0.21560      0.00000     0.78298    0.00143     0.78440
      H   11    0.20414      0.00000     0.79372    0.00214     0.79586
      C   12   -0.36047      1.99899     4.33750    0.02398     6.36047
      C   13   -0.16977      1.99910     4.15478    0.01589     6.16977
      C   14   -0.20121      1.99910     4.18829    0.01381     6.20121
      C   15    0.01928      1.99914     3.96706    0.01451     5.98072
      C   16   -0.19462      1.99910     4.18187    0.01365     6.19462
      C   17   -0.18131      1.99910     4.16559    0.01661     6.18131
      H   18    0.21466      0.00000     0.78324    0.00210     0.78534
      H   19    0.21735      0.00000     0.78126    0.00139     0.78265
      H   20    0.21532      0.00000     0.78326    0.00142     0.78468
      H   21    0.21803      0.00000     0.77996    0.00202     0.78197
      C   22   -0.96413      1.99942     4.94671    0.01800     6.96413
      P   23    1.12416      9.99648     3.82802    0.05133    13.87584
      C   24   -0.35298      1.99899     4.33082    0.02317     6.35298
      C   25   -0.18400      1.99910     4.16961    0.01529     6.18400
      C   26   -0.19266      1.99911     4.17995    0.01361     6.19266
      C   27    0.01309      1.99914     3.97316    0.01461     5.98691
      C   28   -0.19484      1.99911     4.18206    0.01367     6.19484
      C   29   -0.18957      1.99910     4.17525    0.01522     6.18957
      H   30    0.20614      0.00000     0.79181    0.00205     0.79386
      H   31    0.21534      0.00000     0.78323    0.00143     0.78466
      H   32    0.21720      0.00000     0.78139    0.00141     0.78280
      H   33    0.22338      0.00000     0.77483    0.00179     0.77662
      C   34   -0.36052      1.99899     4.33773    0.02380     6.36052
      C   35   -0.18279      1.99910     4.16706    0.01663     6.18279
      C   36   -0.19492      1.99910     4.18214    0.01368     6.19492
      C   37    0.01933      1.99914     3.96701    0.01451     5.98067
      C   38   -0.20061      1.99910     4.18769    0.01381     6.20061
      C   39   -0.16962      1.99911     4.15462    0.01589     6.16962
      H   40    0.21634      0.00000     0.78150    0.00215     0.78366
      H   41    0.21547      0.00000     0.78311    0.00142     0.78453
      H   42    0.21745      0.00000     0.78116    0.00139     0.78255
      H   43    0.21465      0.00000     0.78323    0.00212     0.78535
      H   44    0.25662      0.00000     0.74178    0.00159     0.74338
      H   45    0.25632      0.00000     0.74184    0.00184     0.74368
     Rh   46   -0.40873     35.98585     9.39292    0.02996    45.40873
      C   47   -0.18648      1.99906     4.16792    0.01950     6.18648
      C   48   -0.14975      1.99907     4.13085    0.01983     6.14975
      C   49   -0.15812      1.99906     4.13978    0.01928     6.15812
      C   50   -0.17529      1.99907     4.15632    0.01990     6.17529
      C   51   -0.42211      1.99936     4.41111    0.01164     6.42211
      H   52    0.22527      0.00000     0.77276    0.00198     0.77473
      H   53    0.23234      0.00000     0.76571    0.00196     0.76766
      C   54   -0.41763      1.99935     4.40571    0.01257     6.41763
      C   55   -0.42412      1.99936     4.41295    0.01181     6.42412
      H   56    0.23156      0.00000     0.76644    0.00200     0.76844
      C   57   -0.41860      1.99936     4.40699    0.01225     6.41860
      H   58    0.22540      0.00000     0.77264    0.00196     0.77460
      H   59    0.22738      0.00000     0.77111    0.00151     0.77262
      H   60    0.21444      0.00000     0.78361    0.00195     0.78556
      H   61    0.23236      0.00000     0.76574    0.00191     0.76764
      H   62    0.21497      0.00000     0.78342    0.00161     0.78503
      H   63    0.21403      0.00000     0.78399    0.00197     0.78597
      H   64    0.22788      0.00000     0.77067    0.00145     0.77212
      H   65    0.21581      0.00000     0.78271    0.00148     0.78419
      H   66    0.23280      0.00000     0.76527    0.00193     0.76720
      C   67   -0.61847      1.99941     4.61175    0.00731     6.61847
      H   68    0.22014      0.00000     0.77860    0.00127     0.77986
      H   69    0.22747      0.00000     0.77115    0.00138     0.77253
      H   70    0.22031      0.00000     0.77843    0.00125     0.77969
      C   71   -0.61916      1.99941     4.61244    0.00731     6.61916
      H   72    0.22791      0.00000     0.77073    0.00135     0.77209
      H   73    0.22273      0.00000     0.77599    0.00128     0.77727
      H   74    0.21805      0.00000     0.78070    0.00125     0.78195
      C   75   -0.61848      1.99941     4.61177    0.00731     6.61848
      H   76    0.22760      0.00000     0.77102    0.00138     0.77240
      H   77    0.22012      0.00000     0.77862    0.00126     0.77988
      H   78    0.22037      0.00000     0.77838    0.00125     0.77963
      C   79   -0.61916      1.99941     4.61243    0.00732     6.61916
      H   80    0.22291      0.00000     0.77580    0.00128     0.77709
      H   81    0.22775      0.00000     0.77090    0.00135     0.77225
      H   82    0.21780      0.00000     0.78095    0.00125     0.78220
 =======================================================================
   * Total *    1.00000    129.94774   207.28972    0.76254   338.00000

 Normal termination of Gaussian 16 at Tue Jan 21 17:03:13 2025.
