 Gaussian 16, Revision B.01,
 Gaussian 16:  ES64L-G16RevB.01 20-Dec-2017

 ------------------------------------------
 # nmr=giao b3lyp/genecp pop=nbo scfcyc=200
 ------------------------------------------

 ---------
 MB-82_SPE
 ---------
 Symbolic Z-matrix:
 Charge =  1 Multiplicity = 1

                         Standard orientation:
 ---------------------------------------------------------------------
 Center     Atomic      Atomic             Coordinates (Angstroms)
 Number     Number       Type             X           Y           Z
 ---------------------------------------------------------------------
      1         15           0        1.247230   -0.509109   -0.751821
      2         15           0       -1.226090    0.748701   -0.364241
      3          6           0       -0.067880    0.339091   -1.782451
      4          1           0       -0.578410   -0.381469   -2.420651
      5          1           0        0.278350    1.163731   -2.403901
      6          6           0        1.808480   -2.017019   -1.649541
      7          6           0        3.142420   -2.428800   -1.568001
      8          1           0        3.872680   -1.818810   -1.052361
      9          6           0        3.546549   -3.618810   -2.164691
     10          1           0        4.583689   -3.923320   -2.101271
     11          6           0        2.626619   -4.410279   -2.843281
     12          1           0        2.944329   -5.333430   -3.311051
     13          6           0        1.294999   -4.012599   -2.917611
     14          1           0        0.573169   -4.625529   -3.442661
     15          6           0        0.885000   -2.828099   -2.317461
     16          1           0       -0.159640   -2.548069   -2.374131
     17          6           0        2.675470    0.643211   -0.742281
     18          6           0        3.372500    0.940050   -1.920601
     19          1           0        3.105500    0.457110   -2.853161
     20          6           0        4.420161    1.847930   -1.903971
     21          1           0        4.948781    2.064320   -2.825241
     22          6           0        4.807871    2.488480   -0.720191
     23          6           0        4.101171    2.193890    0.446019
     24          1           0        4.374051    2.682750    1.373849
     25          6           0        3.048540    1.284360    0.439239
     26          1           0        2.505810    1.084131    1.354349
     27          6           0        5.967881    3.446950   -0.709121
     28          1           0        5.981991    4.065430   -1.607901
     29          1           0        6.916351    2.903210   -0.675221
     30          1           0        5.934871    4.104840    0.159349
     31          6           0       -2.923320    0.441822   -1.001191
     32          6           0       -3.445070   -0.853438   -0.936731
     33          1           0       -2.874830   -1.643858   -0.463081
     34          6           0       -4.690630   -1.139808   -1.481341
     35          1           0       -5.076770   -2.150828   -1.422541
     36          6           0       -5.455150   -0.145878   -2.097141
     37          6           0       -4.923300    1.145652   -2.159541
     38          1           0       -5.492429    1.933932   -2.638621
     39          6           0       -3.677160    1.441382   -1.623561
     40          1           0       -3.297219    2.452532   -1.690941
     41          6           0       -1.130029    2.554991   -0.032411
     42          6           0       -0.174859    3.386681   -0.618961
     43          1           0        0.537511    2.998861   -1.334071
     44          6           0       -0.120289    4.737231   -0.284441
     45          1           0        0.621971    5.372941   -0.750451
     46          6           0       -1.013219    5.267611    0.638359
     47          1           0       -0.970399    6.318671    0.894249
     48          6           0       -1.964849    4.442521    1.232869
     49          1           0       -2.664719    4.849652    1.951789
     50          6           0       -2.019729    3.094441    0.905999
     51          1           0       -2.771709    2.467242    1.370469
     52          6           0       -6.820730   -0.447468   -2.652631
     53          1           0       -6.916280   -1.497478   -2.930411
     54          1           0       -7.036070    0.160802   -3.531951
     55          1           0       -7.594860   -0.232398   -1.910221
     56         45           0       -0.113580   -0.683279    1.165449
     57          6           0        0.696010   -2.588239    2.096159
     58          6           0        1.424590   -1.519929    2.579529
     59          6           0       -1.179850   -0.330179    3.148549
     60          6           0       -1.890140   -1.270409    2.433529
     61          6           0       -0.396690   -3.319909    2.854389
     62          1           0        1.108100   -3.117979    1.244199
     63          1           0        2.378570   -1.319359    2.102349
     64          6           0        1.225990   -0.812469    3.897509
     65          6           0       -0.250460   -0.626109    4.310489
     66          1           0       -1.500310    0.702471    3.059609
     67          6           0       -1.815930   -2.769159    2.595379
     68          1           0       -2.750570   -0.920588    1.873719
     69          1           0       -0.375701   -4.370579    2.560519
     70          1           0       -0.172950   -3.303049    3.920939
     71          1           0        1.766500   -1.344859    4.690059
     72          1           0        1.701000    0.168471    3.823909
     73          1           0       -0.607140   -1.504579    4.847819
     74          1           0       -0.308440    0.202331    5.018379
     75          1           0       -2.211790   -3.221709    1.683589
     76          1           0       -2.488790   -3.088039    3.401269
 ---------------------------------------------------------------------

 SCF Done:  E(RB3LYP) =  -2150.27456787     A.U. after   16 cycles

      1  P    Isotropic =   318.9202   Anisotropy =   109.1872

      2  P    Isotropic =   324.6604   Anisotropy =   102.2632

      3  C    Isotropic =   128.4343   Anisotropy =    54.2770

      4  H    Isotropic =    27.9795   Anisotropy =     3.1491

      5  H    Isotropic =    28.0101   Anisotropy =     7.0822

      6  C    Isotropic =    44.4666   Anisotropy =   169.5729

      7  C    Isotropic =    47.4101   Anisotropy =   190.6864

      8  H    Isotropic =    24.8486   Anisotropy =    12.1972

      9  C    Isotropic =    48.7084   Anisotropy =   189.8854

     10  H    Isotropic =    24.3350   Anisotropy =     6.4234

     11  C    Isotropic =    46.5876   Anisotropy =   195.3737

     12  H    Isotropic =    24.1065   Anisotropy =     3.8088

     13  C    Isotropic =    48.8858   Anisotropy =   189.5280

     14  H    Isotropic =    24.0391   Anisotropy =     6.6628

     15  C    Isotropic =    49.8536   Anisotropy =   187.3820

     16  H    Isotropic =    23.9813   Anisotropy =    10.5655

     17  C    Isotropic =    49.2280   Anisotropy =   165.9391

     18  C    Isotropic =    46.6152   Anisotropy =   184.5850

     19  H    Isotropic =    24.4427   Anisotropy =    11.6200

     20  C    Isotropic =    46.8239   Anisotropy =   173.8148

     21  H    Isotropic =    24.1696   Anisotropy =     7.4325

     22  C    Isotropic =    29.4928   Anisotropy =   215.9791

     23  C    Isotropic =    48.9976   Anisotropy =   165.6082

     24  H    Isotropic =    24.3677   Anisotropy =     8.2048

     25  C    Isotropic =    41.2636   Anisotropy =   179.2315

     26  H    Isotropic =    23.7248   Anisotropy =     9.0639

     27  C    Isotropic =   161.7061   Anisotropy =    42.4790

     28  H    Isotropic =    29.3009   Anisotropy =     8.3396

     29  H    Isotropic =    29.1093   Anisotropy =     9.5363

     30  H    Isotropic =    29.5277   Anisotropy =     7.4831

     31  C    Isotropic =    46.2535   Anisotropy =   166.9703

     32  C    Isotropic =    45.6584   Anisotropy =   175.1291

     33  H    Isotropic =    23.5510   Anisotropy =     9.8016

     34  C    Isotropic =    48.3076   Anisotropy =   166.6259

     35  H    Isotropic =    24.1044   Anisotropy =     8.6925

     36  C    Isotropic =    30.4705   Anisotropy =   213.9013

     37  C    Isotropic =    47.6339   Anisotropy =   170.6961

     38  H    Isotropic =    24.4626   Anisotropy =     8.2343

     39  C    Isotropic =    46.8398   Anisotropy =   186.4602

     40  H    Isotropic =    24.9928   Anisotropy =    13.3569

     41  C    Isotropic =    47.6742   Anisotropy =   172.6524

     42  C    Isotropic =    49.8407   Anisotropy =   190.7533

     43  H    Isotropic =    25.0982   Anisotropy =     8.3772

     44  C    Isotropic =    49.3409   Anisotropy =   190.0768

     45  H    Isotropic =    24.5065   Anisotropy =     6.9195

     46  C    Isotropic =    46.9822   Anisotropy =   195.8996

     47  H    Isotropic =    24.1492   Anisotropy =     3.7685

     48  C    Isotropic =    48.7767   Anisotropy =   190.7265

     49  H    Isotropic =    24.2108   Anisotropy =     6.0538

     50  C    Isotropic =    46.7056   Anisotropy =   188.6629

     51  H    Isotropic =    24.6426   Anisotropy =    10.9357

     52  C    Isotropic =   161.8215   Anisotropy =    42.5103

     53  H    Isotropic =    29.4981   Anisotropy =     7.8904

     54  H    Isotropic =    29.4462   Anisotropy =     8.4703

     55  H    Isotropic =    29.1939   Anisotropy =     9.1245

     56  Rh   Isotropic =  -318.8074   Anisotropy =   353.6887

     57  C    Isotropic =    75.6654   Anisotropy =   126.0145

     58  C    Isotropic =    79.9462   Anisotropy =   111.9114

     59  C    Isotropic =    76.4303   Anisotropy =   123.8205

     60  C    Isotropic =    75.2714   Anisotropy =   118.8179

     61  C    Isotropic =   153.8176   Anisotropy =    25.5096

     62  H    Isotropic =    27.4819   Anisotropy =     5.4603

     63  H    Isotropic =    26.6654   Anisotropy =     3.8480

     64  C    Isotropic =   147.9838   Anisotropy =    29.4572

     65  C    Isotropic =   153.9777   Anisotropy =    25.4270

     66  H    Isotropic =    26.9331   Anisotropy =     6.9756

     67  C    Isotropic =   148.0358   Anisotropy =    28.4888

     68  H    Isotropic =    26.2437   Anisotropy =     3.2520

     69  H    Isotropic =    29.9637   Anisotropy =    10.9254

     70  H    Isotropic =    29.8349   Anisotropy =     9.4642

     71  H    Isotropic =    29.1521   Anisotropy =    12.6245

     72  H    Isotropic =    29.1262   Anisotropy =     7.7979

     73  H    Isotropic =    29.8078   Anisotropy =     9.4807

     74  H    Isotropic =    29.9105   Anisotropy =    11.4784

     75  H    Isotropic =    28.9285   Anisotropy =     7.7103

     76  H    Isotropic =    29.1003   Anisotropy =    12.5164

 The electronic state is 1-A.
 Alpha  occ. eigenvalues --  -77.23647 -77.23618 -10.30078 -10.29552 -10.29545
 Alpha  occ. eigenvalues --  -10.29142 -10.29005 -10.28874 -10.28821 -10.28775
 Alpha  occ. eigenvalues --  -10.28752 -10.28525 -10.28291 -10.28213 -10.28190
 Alpha  occ. eigenvalues --  -10.28189 -10.28187 -10.28152 -10.28044 -10.28025
 Alpha  occ. eigenvalues --  -10.27796 -10.27453 -10.27450 -10.27422 -10.27419
 Alpha  occ. eigenvalues --  -10.27389 -10.27350 -10.27306 -10.27285 -10.27209
 Alpha  occ. eigenvalues --  -10.27163 -10.27152 -10.27116 -10.26967 -10.26827
 Alpha  occ. eigenvalues --  -10.25311 -10.25014  -6.69629  -6.69590  -4.85913
 Alpha  occ. eigenvalues --   -4.85881  -4.85853  -4.85814  -4.85530  -4.85483
 Alpha  occ. eigenvalues --   -3.31384  -2.08283  -2.07622  -2.04830  -0.96823
 Alpha  occ. eigenvalues --   -0.96577  -0.96089  -0.95982  -0.94305  -0.89885
 Alpha  occ. eigenvalues --   -0.89028  -0.88247  -0.87864  -0.86407  -0.85775
 Alpha  occ. eigenvalues --   -0.85200  -0.85136  -0.85007  -0.84794  -0.83960
 Alpha  occ. eigenvalues --   -0.80200  -0.79266  -0.78173  -0.77673  -0.74034
 Alpha  occ. eigenvalues --   -0.72524  -0.71306  -0.71034  -0.70894  -0.70710
 Alpha  occ. eigenvalues --   -0.70427  -0.69213  -0.68880  -0.66764  -0.66432
 Alpha  occ. eigenvalues --   -0.65714  -0.62326  -0.62220  -0.61916  -0.60395
 Alpha  occ. eigenvalues --   -0.59568  -0.58755  -0.57171  -0.57079  -0.56673
 Alpha  occ. eigenvalues --   -0.56228  -0.56203  -0.55864  -0.55525  -0.55310
 Alpha  occ. eigenvalues --   -0.55193  -0.55018  -0.54347  -0.53523  -0.52889
 Alpha  occ. eigenvalues --   -0.52577  -0.52526  -0.52424  -0.52388  -0.52358
 Alpha  occ. eigenvalues --   -0.52180  -0.51088  -0.50852  -0.50210  -0.49359
 Alpha  occ. eigenvalues --   -0.48660  -0.48267  -0.48038  -0.47813  -0.47636
 Alpha  occ. eigenvalues --   -0.47418  -0.47254  -0.46582  -0.46260  -0.45861
 Alpha  occ. eigenvalues --   -0.45761  -0.45536  -0.45032  -0.44811  -0.44307
 Alpha  occ. eigenvalues --   -0.44030  -0.43746  -0.43398  -0.43182  -0.43014
 Alpha  occ. eigenvalues --   -0.42924  -0.42526  -0.41279  -0.37990  -0.37464
 Alpha  occ. eigenvalues --   -0.36209  -0.35963  -0.35921  -0.35685  -0.35484
 Alpha  occ. eigenvalues --   -0.35420  -0.35101  -0.34612  -0.34350  -0.33929
 Alpha  occ. eigenvalues --   -0.33528  -0.30483
 Alpha virt. eigenvalues --   -0.16358  -0.14777  -0.13351  -0.12973  -0.12523
 Alpha virt. eigenvalues --   -0.12015  -0.11749  -0.10914  -0.10553  -0.10224
 Alpha virt. eigenvalues --   -0.09098  -0.07275  -0.06516  -0.06118  -0.05784

 Mulliken charges:
               1
     1  P    0.372304
     2  P    0.356918
     3  C   -0.596451
     4  H    0.222579
     5  H    0.214301
     6  C   -0.154147
     7  C   -0.074682
     8  H    0.158621
     9  C   -0.099877
    10  H    0.135474
    11  C   -0.097393
    12  H    0.139836
    13  C   -0.103572
    14  H    0.131548
    15  C   -0.080405
    16  H    0.135044
    17  C   -0.313530
    18  C   -0.051496
    19  H    0.148246
    20  C   -0.125471
    21  H    0.132614
    22  C    0.100400
    23  C   -0.151713
    24  H    0.125938
    25  C    0.024614
    26  H    0.163480
    27  C   -0.432302
    28  H    0.143812
    29  H    0.159046
    30  H    0.141433
    31  C   -0.275693
    32  C   -0.064160
    33  H    0.168089
    34  C   -0.122860
    35  H    0.126635
    36  C    0.089814
    37  C   -0.114803
    38  H    0.131939
    39  C   -0.017803
    40  H    0.154339
    41  C   -0.111279
    42  C   -0.051114
    43  H    0.139378
    44  C   -0.110106
    45  H    0.131239
    46  C   -0.101946
    47  H    0.137595
    48  C   -0.087447
    49  H    0.134588
    50  C   -0.127564
    51  H    0.149003
    52  C   -0.430045
    53  H    0.141233
    54  H    0.144396
    55  H    0.158647
    56  Rh  -0.574599
    57  C   -0.013966
    58  C   -0.120264
    59  C    0.001964
    60  C   -0.130257
    61  C   -0.347387
    62  H    0.199482
    63  H    0.201205
    64  C   -0.217811
    65  C   -0.345064
    66  H    0.175719
    67  C   -0.227668
    68  H    0.211437
    69  H    0.169225
    70  H    0.166863
    71  H    0.170821
    72  H    0.129562
    73  H    0.166020
    74  H    0.169145
    75  H    0.127068
    76  H    0.171265
 Sum of Mulliken charges =   1.00000

 Dipole moment (field-independent basis, Debye):
    X=              0.1589    Y=              0.1610    Z=             -0.3051  Tot=              0.3798
 Quadrupole moment (field-independent basis, Debye-Ang):
   XX=           -185.0810   YY=           -200.7663   ZZ=           -218.4881
   XY=              5.2450   XZ=             -0.2543   YZ=              2.7475

 Summary of Natural Population Analysis:

                                       Natural Population
                Natural  -----------------------------------------------
    Atom  No    Charge         Core      Valence    Rydberg      Total
 -----------------------------------------------------------------------
      P    1    1.12961      9.99645     3.82296    0.05098    13.87039
      P    2    1.11915      9.99651     3.83409    0.05024    13.88085
      C    3   -0.97100      1.99942     4.95348    0.01810     6.97100
      H    4    0.26528      0.00000     0.73326    0.00145     0.73472
      H    5    0.25612      0.00000     0.74187    0.00201     0.74388
      C    6   -0.34000      1.99900     4.31742    0.02358     6.34000
      C    7   -0.19652      1.99910     4.18226    0.01516     6.19652
      H    8    0.22221      0.00000     0.77606    0.00173     0.77779
      C    9   -0.18924      1.99920     4.17531    0.01473     6.18924
      H   10    0.22279      0.00000     0.77599    0.00122     0.77721
      C   11   -0.18147      1.99920     4.16754    0.01472     6.18147
      H   12    0.22310      0.00000     0.77573    0.00117     0.77690
      C   13   -0.19051      1.99920     4.17658    0.01472     6.19051
      H   14    0.22146      0.00000     0.77731    0.00123     0.77854
      C   15   -0.19576      1.99909     4.18144    0.01522     6.19576
      H   16    0.20712      0.00000     0.79067    0.00221     0.79288
      C   17   -0.36599      1.99899     4.34353    0.02347     6.36599
      C   18   -0.18484      1.99910     4.16973    0.01601     6.18484
      H   19    0.21860      0.00000     0.77943    0.00198     0.78140
      C   20   -0.19564      1.99911     4.18300    0.01353     6.19564
      H   21    0.21883      0.00000     0.77977    0.00141     0.78117
      C   22    0.01985      1.99914     3.96651    0.01450     5.98015
      C   23   -0.20069      1.99910     4.18796    0.01362     6.20069
      H   24    0.21691      0.00000     0.78167    0.00142     0.78309
      C   25   -0.17172      1.99910     4.15710    0.01552     6.17172
      H   26    0.21994      0.00000     0.77761    0.00245     0.78006
      C   27   -0.61985      1.99941     4.61307    0.00738     6.61985
      H   28    0.22251      0.00000     0.77622    0.00127     0.77749
      H   29    0.22918      0.00000     0.76946    0.00137     0.77082
      H   30    0.21926      0.00000     0.77949    0.00125     0.78074
      C   31   -0.35789      1.99899     4.33595    0.02296     6.35789
      C   32   -0.18898      1.99910     4.17440    0.01548     6.18898
      H   33    0.21540      0.00000     0.78232    0.00228     0.78460
      C   34   -0.19848      1.99911     4.18569    0.01368     6.19848
      H   35    0.21587      0.00000     0.78270    0.00143     0.78413
      C   36    0.01859      1.99914     3.96772    0.01454     5.98141
      C   37   -0.19200      1.99911     4.17948    0.01341     6.19200
      H   38    0.21828      0.00000     0.78032    0.00140     0.78172
      C   39   -0.17898      1.99910     4.16394    0.01593     6.17898
      H   40    0.22290      0.00000     0.77527    0.00183     0.77710
      C   41   -0.33774      1.99900     4.31480    0.02394     6.33774
      C   42   -0.19460      1.99909     4.17979    0.01572     6.19460
      H   43    0.21163      0.00000     0.78605    0.00232     0.78837
      C   44   -0.18981      1.99920     4.17599    0.01462     6.18981
      H   45    0.22107      0.00000     0.77769    0.00124     0.77893
      C   46   -0.18220      1.99920     4.16835    0.01465     6.18220
      H   47    0.22258      0.00000     0.77624    0.00118     0.77742
      C   48   -0.19077      1.99920     4.17698    0.01459     6.19077
      H   49    0.22237      0.00000     0.77640    0.00123     0.77763
      C   50   -0.19590      1.99909     4.18147    0.01533     6.19590
      H   51    0.21513      0.00000     0.78300    0.00187     0.78487
      C   52   -0.61933      1.99941     4.61258    0.00734     6.61933
      H   53    0.21951      0.00000     0.77924    0.00125     0.78049
      H   54    0.22239      0.00000     0.77635    0.00126     0.77761
      H   55    0.22828      0.00000     0.77035    0.00137     0.77172
     Rh   56   -0.40094     35.98588     9.38545    0.02961    45.40094
      C   57   -0.16045      1.99906     4.14221    0.01918     6.16045
      C   58   -0.17190      1.99907     4.15290    0.01993     6.17190
      C   59   -0.17098      1.99906     4.15253    0.01939     6.17098
      C   60   -0.16332      1.99907     4.14414    0.02011     6.16332
      C   61   -0.42352      1.99936     4.41235    0.01181     6.42352
      H   62    0.23106      0.00000     0.76695    0.00199     0.76894
      H   63    0.22568      0.00000     0.77231    0.00201     0.77432
      C   64   -0.41903      1.99936     4.40733    0.01235     6.41903
      C   65   -0.42304      1.99936     4.41198    0.01170     6.42304
      H   66    0.22725      0.00000     0.77064    0.00211     0.77275
      C   67   -0.41810      1.99935     4.40607    0.01268     6.41810
      H   68    0.22873      0.00000     0.76909    0.00218     0.77127
      H   69    0.22898      0.00000     0.76957    0.00145     0.77102
      H   70    0.21435      0.00000     0.78367    0.00198     0.78565
      H   71    0.23313      0.00000     0.76494    0.00192     0.76687
      H   72    0.21633      0.00000     0.78219    0.00148     0.78367
      H   73    0.21449      0.00000     0.78356    0.00195     0.78551
      H   74    0.22906      0.00000     0.76946    0.00148     0.77094
      H   75    0.21317      0.00000     0.78525    0.00158     0.78683
      H   76    0.23301      0.00000     0.76506    0.00192     0.76699
 =======================================================================
   * Total *    1.00000    125.94943   195.30725    0.74333   322.00000

 Normal termination of Gaussian 16 at Tue Jan 21 16:50:19 2025.
