 Gaussian 16, Revision B.01,
 Gaussian 16:  ES64L-G16RevB.01 20-Dec-2017

 ------------------------------------------
 # nmr=giao b3lyp/genecp pop=nbo scfcyc=200
 ------------------------------------------

 -------------
 Ligand 44 SPE
 -------------
 Symbolic Z-matrix:
 Charge =  1 Multiplicity = 1

                         Standard orientation:
 ---------------------------------------------------------------------
 Center     Atomic      Atomic             Coordinates (Angstroms)
 Number     Number       Type             X           Y           Z
 ---------------------------------------------------------------------
      1         15           0       -0.960830   -0.659939    0.287380
      2         15           0        1.189790    1.100171    0.509820
      3          6           0       -2.366790    0.130751   -0.594170
      4          6           0       -2.233010    0.270761   -1.960620
      5          1           0       -1.336890   -0.094439   -2.445850
      6          6           0       -3.227970    0.894811   -2.738170
      7          1           0       -3.093100    0.985181   -3.808300
      8          6           0       -4.352980    1.387180   -2.133730
      9          1           0       -5.122700    1.873440   -2.721480
     10          6           0       -4.538430    1.275430   -0.733330
     11          6           0       -5.702440    1.790320   -0.111020
     12          1           0       -6.450030    2.272890   -0.729320
     13          6           0       -5.886110    1.682130    1.242830
     14          1           0       -6.779840    2.078700    1.707270
     15          6           0       -4.909110    1.044160    2.032380
     16          1           0       -5.061980    0.950800    3.100340
     17          6           0       -3.769650    0.532550    1.461070
     18          1           0       -3.051820    0.027761    2.091790
     19          6           0       -3.538320    0.631521    0.066000
     20          6           0       -1.635429   -2.105799    1.209890
     21          6           0       -2.731409   -2.805289    0.696370
     22          1           0       -3.241749   -2.446799   -0.188580
     23          6           0       -3.188459   -3.955099    1.331760
     24          1           0       -4.043849   -4.483710    0.930260
     25          6           0       -2.556539   -4.419629    2.480160
     26          1           0       -2.917039   -5.312049    2.975710
     27          6           0       -1.458409   -3.733629    2.990430
     28          1           0       -0.961269   -4.091089    3.883520
     29          6           0       -0.994029   -2.587829    2.355030
     30          1           0       -0.129429   -2.077979    2.761780
     31          6           0       -0.321070    0.613091    1.510100
     32          1           0       -1.011000    1.421041    1.747150
     33          1           0       -0.006940    0.130321    2.434730
     34          6           0        2.554150    1.443071    1.702110
     35          6           0        2.885530    0.472441    2.655080
     36          1           0        2.326290   -0.454169    2.712970
     37          6           0        3.941520    0.680491    3.532940
     38          1           0        4.182470   -0.072559    4.272770
     39          6           0        4.691400    1.851431    3.457710
     40          1           0        5.516140    2.012031    4.140330
     41          6           0        4.380820    2.810181    2.500800
     42          1           0        4.963120    3.720611    2.434620
     43          6           0        3.318080    2.609941    1.624130
     44          1           0        3.084980    3.368711    0.889340
     45          6           0        0.774450    2.711351   -0.268580
     46          6           0        0.264470    3.771221    0.489710
     47          1           0        0.109570    3.660641    1.556350
     48          6           0       -0.037990    4.982541   -0.118820
     49          1           0       -0.432890    5.798101    0.473820
     50          6           0        0.167420    5.148091   -1.486660
     51          1           0       -0.068450    6.093911   -1.957940
     52          6           0        0.673620    4.099441   -2.245610
     53          1           0        0.832460    4.225151   -3.309220
     54          6           0        0.974170    2.883151   -1.639690
     55          1           0        1.356660    2.063681   -2.234880
     56         45           0        1.129250   -0.861849   -0.803200
     57          6           0        3.024370   -0.774609   -2.062870
     58          6           0        3.345491   -1.256399   -0.810350
     59          6           0        1.124661   -3.102949   -1.218340
     60          6           0        0.642411   -2.444609   -2.330370
     61          1           0        3.170380    0.288041   -2.226660
     62          6           0        2.865591   -1.613429   -3.317650
     63          1           0        3.746960   -0.546699   -0.095140
     64          6           0        3.524441   -2.701959   -0.416970
     65          6           0        2.522421   -3.675099   -1.072550
     66          1           0        0.390991   -3.478509   -0.513920
     67          1           0       -0.436429   -2.391189   -2.439620
     68          6           0        1.416921   -2.084649   -3.574670
     69          1           0        3.539901   -2.468449   -3.273420
     70          1           0        3.191690   -1.020889   -4.173990
     71          1           0        4.550961   -3.019069   -0.640170
     72          1           0        3.424641   -2.763469    0.668770
     73          1           0        2.463911   -4.576489   -0.460300
     74          1           0        2.888101   -3.998129   -2.047010
     75          1           0        1.422581   -2.935519   -4.267230
     76          1           0        0.870151   -1.290569   -4.088630
 ---------------------------------------------------------------------

 SCF Done:  E(RB3LYP) =  -2225.29789482     A.U. after   16 cycles

      1  P    Isotropic =   317.3773   Anisotropy =   108.3377

      2  P    Isotropic =   316.3138   Anisotropy =   108.8970

      3  C    Isotropic =    52.4041   Anisotropy =   149.4668

      4  C    Isotropic =    39.5675   Anisotropy =   176.4576

      5  H    Isotropic =    23.2290   Anisotropy =     9.9035

      6  C    Isotropic =    55.8111   Anisotropy =   176.9513

      7  H    Isotropic =    24.2697   Anisotropy =     6.7167

      8  C    Isotropic =    42.5288   Anisotropy =   175.3256

      9  H    Isotropic =    23.6583   Anisotropy =     6.1873

     10  C    Isotropic =    43.3659   Anisotropy =   217.0486

     11  C    Isotropic =    47.5450   Anisotropy =   168.4051

     12  H    Isotropic =    23.7494   Anisotropy =     6.8033

     13  C    Isotropic =    51.4485   Anisotropy =   187.1033

     14  H    Isotropic =    24.1258   Anisotropy =     4.2471

     15  C    Isotropic =    50.4997   Anisotropy =   186.9410

     16  H    Isotropic =    24.3352   Anisotropy =     8.6406

     17  C    Isotropic =    54.1576   Anisotropy =   172.3459

     18  H    Isotropic =    24.6057   Anisotropy =    12.8145

     19  C    Isotropic =    46.8532   Anisotropy =   204.3779

     20  C    Isotropic =    43.7006   Anisotropy =   169.8241

     21  C    Isotropic =    47.6141   Anisotropy =   191.9594

     22  H    Isotropic =    25.0992   Anisotropy =    12.3064

     23  C    Isotropic =    48.4206   Anisotropy =   191.1902

     24  H    Isotropic =    24.5134   Anisotropy =     6.9698

     25  C    Isotropic =    46.8324   Anisotropy =   195.7250

     26  H    Isotropic =    24.1142   Anisotropy =     3.3499

     27  C    Isotropic =    48.5716   Anisotropy =   189.9156

     28  H    Isotropic =    23.8719   Anisotropy =     6.3426

     29  C    Isotropic =    51.7862   Anisotropy =   183.9937

     30  H    Isotropic =    23.6385   Anisotropy =    10.7410

     31  C    Isotropic =   129.9764   Anisotropy =    48.5195

     32  H    Isotropic =    27.7877   Anisotropy =     8.5427

     33  H    Isotropic =    27.1757   Anisotropy =     3.1630

     34  C    Isotropic =    42.4758   Anisotropy =   167.6200

     35  C    Isotropic =    49.3369   Anisotropy =   183.2082

     36  H    Isotropic =    23.5969   Anisotropy =    10.5953

     37  C    Isotropic =    48.9603   Anisotropy =   188.8403

     38  H    Isotropic =    23.8842   Anisotropy =     6.7905

     39  C    Isotropic =    46.5109   Anisotropy =   195.7131

     40  H    Isotropic =    24.0716   Anisotropy =     3.8218

     41  C    Isotropic =    48.6681   Anisotropy =   189.6994

     42  H    Isotropic =    24.3756   Anisotropy =     6.7020

     43  C    Isotropic =    46.7171   Anisotropy =   191.2864

     44  H    Isotropic =    25.1882   Anisotropy =    13.5761

     45  C    Isotropic =    47.2360   Anisotropy =   175.7344

     46  C    Isotropic =    46.8196   Anisotropy =   191.9284

     47  H    Isotropic =    24.7039   Anisotropy =    10.3552

     48  C    Isotropic =    48.4870   Anisotropy =   192.6849

     49  H    Isotropic =    24.5001   Anisotropy =     5.5445

     50  C    Isotropic =    45.0273   Anisotropy =   199.9695

     51  H    Isotropic =    24.2287   Anisotropy =     3.1129

     52  C    Isotropic =    49.6848   Anisotropy =   189.2382

     53  H    Isotropic =    24.2277   Anisotropy =     6.4291

     54  C    Isotropic =    41.4251   Anisotropy =   182.6273

     55  H    Isotropic =    23.7585   Anisotropy =    10.1331

     56  Rh   Isotropic =  -312.7162   Anisotropy =   336.1596

     57  C    Isotropic =    81.0344   Anisotropy =   117.2955

     58  C    Isotropic =    71.6494   Anisotropy =   124.6782

     59  C    Isotropic =    72.6080   Anisotropy =   130.2734

     60  C    Isotropic =    79.2644   Anisotropy =   111.9260

     61  H    Isotropic =    26.9290   Anisotropy =     7.3925

     62  C    Isotropic =   154.0761   Anisotropy =    25.2316

     63  H    Isotropic =    26.9506   Anisotropy =     3.9883

     64  C    Isotropic =   147.5355   Anisotropy =    29.1182

     65  C    Isotropic =   153.7291   Anisotropy =    25.2622

     66  H    Isotropic =    27.4799   Anisotropy =     5.3493

     67  H    Isotropic =    26.3986   Anisotropy =     4.2635

     68  C    Isotropic =   147.9456   Anisotropy =    29.5935

     69  H    Isotropic =    29.7556   Anisotropy =     9.5091

     70  H    Isotropic =    29.7194   Anisotropy =    12.0121

     71  H    Isotropic =    29.2747   Anisotropy =    12.4491

     72  H    Isotropic =    29.0990   Anisotropy =     7.3740

     73  H    Isotropic =    30.0013   Anisotropy =    10.7209

     74  H    Isotropic =    29.8135   Anisotropy =     9.5492

     75  H    Isotropic =    28.9860   Anisotropy =    12.6950

     76  H    Isotropic =    28.8442   Anisotropy =     8.6082

 The electronic state is 1-A.
 Alpha  occ. eigenvalues --  -77.23758 -77.23757 -10.30211 -10.29606 -10.29588
 Alpha  occ. eigenvalues --  -10.29520 -10.29475 -10.29035 -10.28993 -10.28939
 Alpha  occ. eigenvalues --  -10.28860 -10.28731 -10.28448 -10.28434 -10.28422
 Alpha  occ. eigenvalues --  -10.28413 -10.28398 -10.28216 -10.28050 -10.28046
 Alpha  occ. eigenvalues --  -10.27700 -10.27652 -10.27612 -10.27601 -10.27583
 Alpha  occ. eigenvalues --  -10.27578 -10.27521 -10.27436 -10.27419 -10.27412
 Alpha  occ. eigenvalues --  -10.27358 -10.27353 -10.27243 -10.27197 -10.27188
 Alpha  occ. eigenvalues --  -10.26974 -10.26847 -10.26747 -10.26481  -6.69733
 Alpha  occ. eigenvalues --   -6.69718  -4.86015  -4.86004  -4.85957  -4.85939
 Alpha  occ. eigenvalues --   -4.85633  -4.85623  -3.31572  -2.08461  -2.07784
 Alpha  occ. eigenvalues --   -2.05053  -0.97814  -0.96801  -0.96339  -0.96111
 Alpha  occ. eigenvalues --   -0.94371  -0.92431  -0.89786  -0.89083  -0.87939
 Alpha  occ. eigenvalues --   -0.87886  -0.86079  -0.85347  -0.85322  -0.85187
 Alpha  occ. eigenvalues --   -0.84904  -0.84175  -0.83940  -0.82141  -0.80262
 Alpha  occ. eigenvalues --   -0.77739  -0.75676  -0.73512  -0.72085  -0.71404
 Alpha  occ. eigenvalues --   -0.71270  -0.71066  -0.70908  -0.70504  -0.70261
 Alpha  occ. eigenvalues --   -0.69551  -0.66877  -0.66417  -0.65777  -0.62680
 Alpha  occ. eigenvalues --   -0.62449  -0.62152  -0.61258  -0.60897  -0.59980
 Alpha  occ. eigenvalues --   -0.59965  -0.59371  -0.57057  -0.56850  -0.56221
 Alpha  occ. eigenvalues --   -0.56203  -0.56024  -0.55861  -0.55412  -0.55203
 Alpha  occ. eigenvalues --   -0.54985  -0.54420  -0.53906  -0.53583  -0.52885
 Alpha  occ. eigenvalues --   -0.52756  -0.52626  -0.52561  -0.52476  -0.52452
 Alpha  occ. eigenvalues --   -0.51924  -0.51213  -0.50200  -0.49853  -0.49378
 Alpha  occ. eigenvalues --   -0.48722  -0.48590  -0.48363  -0.47857  -0.47315
 Alpha  occ. eigenvalues --   -0.47271  -0.46616  -0.46179  -0.45926  -0.45615
 Alpha  occ. eigenvalues --   -0.45179  -0.45098  -0.44957  -0.44252  -0.43907
 Alpha  occ. eigenvalues --   -0.43495  -0.43318  -0.43071  -0.42853  -0.42600
 Alpha  occ. eigenvalues --   -0.42363  -0.41362  -0.38890  -0.38047  -0.37554
 Alpha  occ. eigenvalues --   -0.36300  -0.36232  -0.35962  -0.35867  -0.35674
 Alpha  occ. eigenvalues --   -0.34868  -0.34704  -0.34588  -0.34412  -0.33808
 Alpha  occ. eigenvalues --   -0.32116  -0.30753
 Alpha virt. eigenvalues --   -0.16372  -0.15243  -0.14916  -0.13620  -0.13056
 Alpha virt. eigenvalues --   -0.12021  -0.11900  -0.11052  -0.10748  -0.10608
 Alpha virt. eigenvalues --   -0.09256  -0.08956  -0.07650  -0.06887  -0.06393

 Mulliken charges:
               1
     1  P    0.240254
     2  P    0.308313
     3  C   -0.310100
     4  C    0.052359
     5  H    0.148854
     6  C   -0.112766
     7  H    0.119333
     8  C   -0.134276
     9  H    0.126538
    10  C   -0.023216
    11  C   -0.131314
    12  H    0.125551
    13  C   -0.081001
    14  H    0.127177
    15  C   -0.105632
    16  H    0.123648
    17  C   -0.146273
    18  H    0.158001
    19  C    0.219361
    20  C   -0.177967
    21  C   -0.035777
    22  H    0.159069
    23  C   -0.110961
    24  H    0.134060
    25  C   -0.087316
    26  H    0.140699
    27  C   -0.120343
    28  H    0.129557
    29  C   -0.049551
    30  H    0.122566
    31  C   -0.611418
    32  H    0.236485
    33  H    0.206882
    34  C   -0.181241
    35  C   -0.062004
    36  H    0.145433
    37  C   -0.106400
    38  H    0.131104
    39  C   -0.094054
    40  H    0.139922
    41  C   -0.099426
    42  H    0.136121
    43  C   -0.058122
    44  H    0.162054
    45  C   -0.210108
    46  C   -0.086782
    47  H    0.146030
    48  C   -0.080189
    49  H    0.136261
    50  C   -0.097699
    51  H    0.140166
    52  C   -0.107642
    53  H    0.130545
    54  C   -0.022299
    55  H    0.128268
    56  Rh  -0.502090
    57  C    0.003857
    58  C   -0.117569
    59  C   -0.029159
    60  C   -0.097646
    61  H    0.171921
    62  C   -0.348277
    63  H    0.220416
    64  C   -0.230006
    65  C   -0.355347
    66  H    0.210868
    67  H    0.190306
    68  C   -0.219606
    69  H    0.166995
    70  H    0.168434
    71  H    0.171476
    72  H    0.128866
    73  H    0.168985
    74  H    0.166743
    75  H    0.172589
    76  H    0.127513
 Sum of Mulliken charges =   1.00000

 Dipole moment (field-independent basis, Debye):
    X=              0.7192    Y=              0.1781    Z=              0.2517  Tot=              0.7825
 Quadrupole moment (field-independent basis, Debye-Ang):
   XX=           -204.4473   YY=           -210.2234   ZZ=           -219.8741
   XY=             -3.1067   XZ=              3.1390   YZ=             -5.4421

 Summary of Natural Population Analysis:

                                       Natural Population
                Natural  -----------------------------------------------
    Atom  No    Charge         Core      Valence    Rydberg      Total
 -----------------------------------------------------------------------
      P    1    1.11657      9.99647     3.83472    0.05224    13.88343
      P    2    1.12160      9.99647     3.83177    0.05016    13.87840
      C    3   -0.32833      1.99895     4.30560    0.02378     6.32833
      C    4   -0.16377      1.99910     4.14952    0.01514     6.16377
      H    5    0.21830      0.00000     0.77940    0.00230     0.78170
      C    6   -0.21435      1.99918     4.19966    0.01551     6.21435
      H    7    0.22155      0.00000     0.77727    0.00117     0.77845
      C    8   -0.13462      1.99915     4.12127    0.01421     6.13462
      H    9    0.21858      0.00000     0.77985    0.00157     0.78142
      C   10   -0.06001      1.99910     4.04379    0.01712     6.06001
      C   11   -0.16306      1.99915     4.14960    0.01431     6.16306
      H   12    0.21702      0.00000     0.78139    0.00159     0.78298
      C   13   -0.19369      1.99920     4.17942    0.01507     6.19369
      H   14    0.22229      0.00000     0.77661    0.00110     0.77771
      C   15   -0.17911      1.99921     4.16486    0.01504     6.17911
      H   16    0.21907      0.00000     0.77961    0.00132     0.78093
      C   17   -0.20313      1.99912     4.18858    0.01543     6.20313
      H   18    0.21001      0.00000     0.78716    0.00283     0.78999
      C   19   -0.05138      1.99902     4.03103    0.02133     6.05138
      C   20   -0.34182      1.99899     4.31918    0.02366     6.34182
      C   21   -0.19444      1.99909     4.18021    0.01515     6.19444
      H   22    0.22306      0.00000     0.77522    0.00172     0.77694
      C   23   -0.18654      1.99920     4.17267    0.01467     6.18654
      H   24    0.22341      0.00000     0.77537    0.00121     0.77659
      C   25   -0.18273      1.99920     4.16880    0.01472     6.18273
      H   26    0.22328      0.00000     0.77555    0.00117     0.77672
      C   27   -0.19117      1.99920     4.17720    0.01476     6.19117
      H   28    0.22118      0.00000     0.77759    0.00123     0.77882
      C   29   -0.20050      1.99908     4.18629    0.01513     6.20050
      H   30    0.20418      0.00000     0.79367    0.00214     0.79582
      C   31   -0.96952      1.99942     4.95244    0.01766     6.96952
      H   32    0.26210      0.00000     0.73606    0.00184     0.73790
      H   33    0.25718      0.00000     0.74118    0.00164     0.74282
      C   34   -0.33987      1.99899     4.31734    0.02354     6.33987
      C   35   -0.20073      1.99909     4.18622    0.01542     6.20073
      H   36    0.20702      0.00000     0.79096    0.00203     0.79298
      C   37   -0.19214      1.99920     4.17818    0.01476     6.19214
      H   38    0.22112      0.00000     0.77764    0.00124     0.77888
      C   39   -0.18014      1.99920     4.16623    0.01470     6.18014
      H   40    0.22339      0.00000     0.77544    0.00117     0.77661
      C   41   -0.18793      1.99920     4.17407    0.01467     6.18793
      H   42    0.22331      0.00000     0.77548    0.00121     0.77669
      C   43   -0.19264      1.99910     4.17819    0.01536     6.19264
      H   44    0.22467      0.00000     0.77358    0.00175     0.77533
      C   45   -0.34887      1.99900     4.32566    0.02421     6.34887
      C   46   -0.18909      1.99909     4.17411    0.01589     6.18909
      H   47    0.21506      0.00000     0.78279    0.00216     0.78494
      C   48   -0.19149      1.99920     4.17773    0.01457     6.19149
      H   49    0.22343      0.00000     0.77533    0.00124     0.77657
      C   50   -0.17367      1.99921     4.15997    0.01449     6.17367
      H   51    0.22292      0.00000     0.77591    0.00117     0.77708
      C   52   -0.19581      1.99920     4.18207    0.01454     6.19581
      H   53    0.22130      0.00000     0.77747    0.00123     0.77870
      C   54   -0.17841      1.99909     4.16396    0.01536     6.17841
      H   55    0.21806      0.00000     0.77999    0.00195     0.78194
     Rh   56   -0.40069     35.98581     9.38625    0.02863    45.40069
      C   57   -0.18488      1.99906     4.16627    0.01955     6.18488
      C   58   -0.14909      1.99907     4.13015    0.01987     6.14909
      C   59   -0.15517      1.99906     4.13682    0.01929     6.15517
      C   60   -0.17580      1.99907     4.15692    0.01981     6.17580
      H   61    0.22467      0.00000     0.77344    0.00190     0.77533
      C   62   -0.42246      1.99936     4.41142    0.01168     6.42246
      H   63    0.23192      0.00000     0.76613    0.00195     0.76808
      C   64   -0.41769      1.99935     4.40577    0.01257     6.41769
      C   65   -0.42442      1.99936     4.41325    0.01181     6.42442
      H   66    0.23192      0.00000     0.76610    0.00198     0.76808
      H   67    0.22616      0.00000     0.77190    0.00194     0.77384
      C   68   -0.41771      1.99935     4.40566    0.01270     6.41771
      H   69    0.21519      0.00000     0.78283    0.00198     0.78481
      H   70    0.22810      0.00000     0.77041    0.00149     0.77190
      H   71    0.23347      0.00000     0.76462    0.00191     0.76653
      H   72    0.21519      0.00000     0.78322    0.00159     0.78481
      H   73    0.22895      0.00000     0.76959    0.00145     0.77105
      H   74    0.21463      0.00000     0.78340    0.00197     0.78537
      H   75    0.23393      0.00000     0.76415    0.00191     0.76607
      H   76    0.21311      0.00000     0.78536    0.00154     0.78689
 =======================================================================
   * Total *    1.00000    129.94736   201.25453    0.79811   332.00000

 Normal termination of Gaussian 16 at Wed Nov  6 00:13:23 2024.
