 Gaussian 16, Revision B.01,
 Gaussian 16:  ES64L-G16RevB.01 20-Dec-2017

 ------------------------------------------
 # nmr=giao b3lyp/genecp pop=nbo scfcyc=200
 ------------------------------------------

 ---------
 MB-90_SPE
 ---------
 Symbolic Z-matrix:
 Charge =  1 Multiplicity = 1

                         Standard orientation:
 ---------------------------------------------------------------------
 Center     Atomic      Atomic             Coordinates (Angstroms)
 Number     Number       Type             X           Y           Z
 ---------------------------------------------------------------------
      1         15           0       -1.415209    0.059961   -0.559340
      2         15           0        1.415591   -0.028130   -0.561190
      3          6           0        0.000501    0.052730   -1.794260
      4          1           0       -0.018099    0.946880   -2.412060
      5          1           0        0.022370   -0.813710   -2.450150
      6          6           0       -2.291599    1.641971   -0.945840
      7          6           0       -2.172398    2.663281    0.002050
      8          1           0       -1.616308    2.475731    0.911530
      9          6           0       -2.743808    3.911881   -0.209050
     10          1           0       -2.639688    4.690011    0.536290
     11          6           0       -3.444768    4.146891   -1.383750
     12          1           0       -3.900608    5.112142   -1.565380
     13          6           0       -3.555278    3.140691   -2.336770
     14          1           0       -4.095388    3.337702   -3.255270
     15          6           0       -2.986049    1.878191   -2.152410
     16          6           0       -3.152539    0.844491   -3.238310
     17          1           0       -2.208519    0.368511   -3.508820
     18          1           0       -3.833779    0.046532   -2.936800
     19          1           0       -3.558419    1.304331   -4.138530
     20          6           0       -2.519090   -1.384359   -0.913780
     21          6           0       -1.995490   -2.480649   -1.608290
     22          1           0       -0.980380   -2.464929   -1.979830
     23          6           0       -2.753670   -3.622029   -1.831880
     24          1           0       -2.326441   -4.454239   -2.376520
     25          6           0       -4.053870   -3.684468   -1.349450
     26          1           0       -4.659441   -4.566168   -1.516680
     27          6           0       -4.572740   -2.611108   -0.637720
     28          1           0       -5.583500   -2.668878   -0.251300
     29          6           0       -3.829510   -1.452978   -0.393730
     30          6           0       -4.480099   -0.338468    0.388840
     31          1           0       -5.349310   -0.714028    0.927830
     32          1           0       -3.806589    0.108122    1.120850
     33          1           0       -4.819439    0.469292   -0.263270
     34          6           0        2.490241    1.461259   -0.796910
     35          6           0        1.941222    2.599430   -1.398260
     36          1           0        0.924652    2.592600   -1.766050
     37          6           0        2.675252    3.770499   -1.529960
     38          1           0        2.228982    4.635519   -2.003580
     39          6           0        3.976062    3.819939   -1.047570
     40          1           0        4.563082    4.724439   -1.144340
     41          6           0        4.519542    2.703179   -0.426700
     42          1           0        5.530532    2.750068   -0.039420
     43          6           0        3.800921    1.514069   -0.275930
     44          6           0        4.476211    0.353169    0.412700
     45          1           0        3.815401   -0.161261    1.111220
     46          1           0        4.824931   -0.394831   -0.302540
     47          1           0        5.342461    0.700548    0.974860
     48          6           0        2.319990   -1.558221   -1.071740
     49          6           0        2.212260   -2.655611   -0.211530
     50          1           0        1.647760   -2.551860    0.706090
     51          6           0        2.805059   -3.873541   -0.520230
     52          1           0        2.709609   -4.711711    0.158170
     53          6           0        3.516029   -4.000311   -1.705530
     54          1           0        3.988929   -4.939951   -1.962300
     55          6           0        3.614120   -2.918121   -2.572770
     56          1           0        4.161410   -3.030931   -3.501180
     57          6           0        3.022890   -1.684311   -2.289800
     58          6           0        3.174071   -0.564371   -3.288960
     59          1           0        2.222511   -0.084681   -3.523590
     60          1           0        3.841151    0.218269   -2.922580
     61          1           0        3.589390   -0.943991   -4.221740
     62         45           0        0.000381   -0.066740    1.354190
     63          6           0       -1.463069    0.408961    3.045990
     64          6           0       -1.433820   -0.954289    2.833630
     65          6           0        1.463361   -0.685540    2.997000
     66          6           0        1.432711    0.691220    2.904950
     67          6           0       -0.756139    1.145570    4.168260
     68          1           0       -2.259519    0.961581    2.561490
     69          1           0       -2.214460   -1.378889    2.211070
     70          6           0       -0.655240   -1.975300    3.625830
     71          6           0        0.757090   -1.519280    4.049810
     72          1           0        2.261300   -1.192171    2.466830
     73          6           0        0.654541    1.638820    3.783780
     74          1           0        2.213401    1.168989    2.322340
     75          1           0       -1.359629    2.009671    4.451140
     76          1           0       -0.710739    0.511440    5.053330
     77          1           0       -1.233160   -2.269119    4.511160
     78          1           0       -0.573150   -2.875760    3.013320
     79          1           0        0.714360   -0.967430    4.988520
     80          1           0        1.359940   -2.406020    4.252560
     81          1           0        0.570542    2.589070    3.252100
     82          1           0        1.233611    1.855210    4.690420
 ---------------------------------------------------------------------

 SCF Done:  E(RB3LYP) =  -2228.91384661     A.U. after   16 cycles

      1  P    Isotropic =   326.0357   Anisotropy =   117.3307

      2  P    Isotropic =   325.7992   Anisotropy =   116.3213

      3  C    Isotropic =   130.4992   Anisotropy =    47.1730

      4  H    Isotropic =    27.6232   Anisotropy =     5.0054

      5  H    Isotropic =    27.5987   Anisotropy =     4.8833

      6  C    Isotropic =    45.2296   Anisotropy =   162.8900

      7  C    Isotropic =    42.4620   Anisotropy =   173.4323

      8  H    Isotropic =    23.1749   Anisotropy =     9.3947

      9  C    Isotropic =    51.9584   Anisotropy =   184.1151

     10  H    Isotropic =    24.2197   Anisotropy =     6.6995

     11  C    Isotropic =    44.6292   Anisotropy =   194.4136

     12  H    Isotropic =    24.0118   Anisotropy =     3.4918

     13  C    Isotropic =    45.2979   Anisotropy =   161.3902

     14  H    Isotropic =    24.3153   Anisotropy =     7.3978

     15  C    Isotropic =    34.1651   Anisotropy =   198.3852

     16  C    Isotropic =   160.7887   Anisotropy =    25.8315

     17  H    Isotropic =    30.1810   Anisotropy =     6.1575

     18  H    Isotropic =    30.2763   Anisotropy =     7.6508

     19  H    Isotropic =    29.8440   Anisotropy =    10.9528

     20  C    Isotropic =    47.2767   Anisotropy =   159.3040

     21  C    Isotropic =    51.0943   Anisotropy =   184.0752

     22  H    Isotropic =    24.7258   Anisotropy =     9.6646

     23  C    Isotropic =    51.1409   Anisotropy =   186.9301

     24  H    Isotropic =    24.4545   Anisotropy =     6.9103

     25  C    Isotropic =    46.6504   Anisotropy =   191.3635

     26  H    Isotropic =    24.2280   Anisotropy =     3.4510

     27  C    Isotropic =    45.6025   Anisotropy =   162.8329

     28  H    Isotropic =    24.4400   Anisotropy =     7.5910

     29  C    Isotropic =    36.0945   Anisotropy =   200.8037

     30  C    Isotropic =   159.7027   Anisotropy =    24.5205

     31  H    Isotropic =    29.8727   Anisotropy =    10.3054

     32  H    Isotropic =    30.6600   Anisotropy =     7.1360

     33  H    Isotropic =    30.3727   Anisotropy =     6.2800

     34  C    Isotropic =    47.0007   Anisotropy =   159.3020

     35  C    Isotropic =    51.1096   Anisotropy =   183.7907

     36  H    Isotropic =    24.7801   Anisotropy =     9.3820

     37  C    Isotropic =    51.1779   Anisotropy =   186.9346

     38  H    Isotropic =    24.4785   Anisotropy =     6.9725

     39  C    Isotropic =    46.7212   Anisotropy =   191.3432

     40  H    Isotropic =    24.2328   Anisotropy =     3.4714

     41  C    Isotropic =    45.6620   Anisotropy =   162.8377

     42  H    Isotropic =    24.4445   Anisotropy =     7.5739

     43  C    Isotropic =    36.0458   Anisotropy =   200.9824

     44  C    Isotropic =   159.6768   Anisotropy =    24.6135

     45  H    Isotropic =    30.6837   Anisotropy =     7.0789

     46  H    Isotropic =    30.3754   Anisotropy =     6.3339

     47  H    Isotropic =    29.8761   Anisotropy =    10.3095

     48  C    Isotropic =    45.1480   Anisotropy =   162.9555

     49  C    Isotropic =    42.6307   Anisotropy =   173.2889

     50  H    Isotropic =    23.1920   Anisotropy =     9.4646

     51  C    Isotropic =    52.0246   Anisotropy =   183.9794

     52  H    Isotropic =    24.2203   Anisotropy =     6.7160

     53  C    Isotropic =    44.6755   Anisotropy =   194.4313

     54  H    Isotropic =    24.0180   Anisotropy =     3.4932

     55  C    Isotropic =    45.3321   Anisotropy =   161.3311

     56  H    Isotropic =    24.3230   Anisotropy =     7.3996

     57  C    Isotropic =    34.3450   Anisotropy =   198.2925

     58  C    Isotropic =   160.8050   Anisotropy =    25.9594

     59  H    Isotropic =    30.2017   Anisotropy =     6.2355

     60  H    Isotropic =    30.2730   Anisotropy =     7.6360

     61  H    Isotropic =    29.8547   Anisotropy =    10.9539

     62  Rh   Isotropic =  -336.6883   Anisotropy =   369.0021

     63  C    Isotropic =    81.5160   Anisotropy =   117.7000

     64  C    Isotropic =    73.8575   Anisotropy =   122.0682

     65  C    Isotropic =    81.6797   Anisotropy =   117.5671

     66  C    Isotropic =    73.8897   Anisotropy =   122.0361

     67  C    Isotropic =   154.0806   Anisotropy =    24.7482

     68  H    Isotropic =    26.7550   Anisotropy =     5.0330

     69  H    Isotropic =    26.8004   Anisotropy =     4.7640

     70  C    Isotropic =   147.7189   Anisotropy =    29.3013

     71  C    Isotropic =   154.0776   Anisotropy =    24.7515

     72  H    Isotropic =    26.7659   Anisotropy =     5.0277

     73  C    Isotropic =   147.6236   Anisotropy =    29.3258

     74  H    Isotropic =    26.7908   Anisotropy =     4.7352

     75  H    Isotropic =    29.7587   Anisotropy =    11.4151

     76  H    Isotropic =    29.7729   Anisotropy =     9.7657

     77  H    Isotropic =    29.2105   Anisotropy =    12.5802

     78  H    Isotropic =    29.1504   Anisotropy =     6.7971

     79  H    Isotropic =    29.7547   Anisotropy =     9.8010

     80  H    Isotropic =    29.7546   Anisotropy =    11.4123

     81  H    Isotropic =    29.1571   Anisotropy =     6.7844

     82  H    Isotropic =    29.2070   Anisotropy =    12.5807

 The electronic state is 1-A.
 Alpha  occ. eigenvalues --  -77.23801 -77.23797 -10.30280 -10.29541 -10.29528
 Alpha  occ. eigenvalues --  -10.29357 -10.29349 -10.29266 -10.29256 -10.29141
 Alpha  occ. eigenvalues --  -10.29139 -10.29116 -10.29107 -10.28840 -10.28837
 Alpha  occ. eigenvalues --  -10.28031 -10.28023 -10.28017 -10.28014 -10.27498
 Alpha  occ. eigenvalues --  -10.27497 -10.27375 -10.27364 -10.27312 -10.27310
 Alpha  occ. eigenvalues --  -10.27138 -10.27130 -10.27085 -10.27079 -10.27078
 Alpha  occ. eigenvalues --  -10.27069 -10.27005 -10.26997 -10.26928 -10.26922
 Alpha  occ. eigenvalues --  -10.26332 -10.26328 -10.26231 -10.26223  -6.69744
 Alpha  occ. eigenvalues --   -6.69741  -4.86042  -4.86038  -4.85959  -4.85955
 Alpha  occ. eigenvalues --   -4.85645  -4.85642  -3.31528  -2.08393  -2.07769
 Alpha  occ. eigenvalues --   -2.04990  -0.96940  -0.96744  -0.96175  -0.96154
 Alpha  occ. eigenvalues --   -0.94481  -0.89562  -0.89198  -0.88053  -0.87973
 Alpha  occ. eigenvalues --   -0.87525  -0.87423  -0.87371  -0.86369  -0.84958
 Alpha  occ. eigenvalues --   -0.84886  -0.83509  -0.80376  -0.79019  -0.78769
 Alpha  occ. eigenvalues --   -0.78759  -0.78609  -0.77851  -0.75105  -0.73146
 Alpha  occ. eigenvalues --   -0.70644  -0.70418  -0.70401  -0.69903  -0.69517
 Alpha  occ. eigenvalues --   -0.69042  -0.68767  -0.66002  -0.65943  -0.65902
 Alpha  occ. eigenvalues --   -0.62628  -0.61392  -0.60885  -0.60350  -0.60056
 Alpha  occ. eigenvalues --   -0.59266  -0.57571  -0.57066  -0.57049  -0.57031
 Alpha  occ. eigenvalues --   -0.56985  -0.56317  -0.55864  -0.55272  -0.54846
 Alpha  occ. eigenvalues --   -0.54742  -0.54041  -0.53615  -0.52992  -0.52908
 Alpha  occ. eigenvalues --   -0.52831  -0.52654  -0.52574  -0.51776  -0.51385
 Alpha  occ. eigenvalues --   -0.51297  -0.51277  -0.51091  -0.50894  -0.50524
 Alpha  occ. eigenvalues --   -0.49804  -0.48891  -0.48635  -0.48331  -0.48227
 Alpha  occ. eigenvalues --   -0.48157  -0.47658  -0.47454  -0.47010  -0.46672
 Alpha  occ. eigenvalues --   -0.46247  -0.46168  -0.45982  -0.45770  -0.45112
 Alpha  occ. eigenvalues --   -0.44808  -0.44691  -0.44629  -0.44553  -0.44017
 Alpha  occ. eigenvalues --   -0.43300  -0.43224  -0.43002  -0.42591  -0.42340
 Alpha  occ. eigenvalues --   -0.41250  -0.38067  -0.37376  -0.36423  -0.35748
 Alpha  occ. eigenvalues --   -0.35603  -0.35469  -0.35090  -0.35017  -0.34853
 Alpha  occ. eigenvalues --   -0.34603  -0.34482  -0.33830  -0.33526  -0.30636
 Alpha virt. eigenvalues --   -0.16480  -0.14924  -0.13469  -0.12924  -0.12615
 Alpha virt. eigenvalues --   -0.11241  -0.11210  -0.11093  -0.10875  -0.10231
 Alpha virt. eigenvalues --   -0.09250  -0.07565  -0.06781  -0.06596  -0.05995

 Mulliken charges:
               1
     1  P    0.287136
     2  P    0.285120
     3  C   -0.671521
     4  H    0.236453
     5  H    0.236246
     6  C   -0.227190
     7  C    0.008638
     8  H    0.176441
     9  C   -0.148975
    10  H    0.123572
    11  C   -0.057550
    12  H    0.135623
    13  C   -0.112202
    14  H    0.119757
    15  C    0.062101
    16  C   -0.444802
    17  H    0.148652
    18  H    0.170907
    19  H    0.152838
    20  C   -0.052907
    21  C   -0.044313
    22  H    0.137405
    23  C   -0.130151
    24  H    0.127373
    25  C   -0.067954
    26  H    0.134489
    27  C   -0.110555
    28  H    0.119565
    29  C    0.018802
    30  C   -0.441735
    31  H    0.155774
    32  H    0.129977
    33  H    0.178300
    34  C   -0.051153
    35  C   -0.043538
    36  H    0.141308
    37  C   -0.133575
    38  H    0.127225
    39  C   -0.066834
    40  H    0.134353
    41  C   -0.111051
    42  H    0.119396
    43  C    0.019005
    44  C   -0.443579
    45  H    0.131545
    46  H    0.178469
    47  H    0.155737
    48  C   -0.224999
    49  C    0.007113
    50  H    0.177995
    51  C   -0.149202
    52  H    0.123601
    53  C   -0.057784
    54  H    0.135643
    55  C   -0.111335
    56  H    0.119870
    57  C    0.062862
    58  C   -0.444233
    59  H    0.148258
    60  H    0.170790
    61  H    0.152874
    62  Rh  -0.513889
    63  C   -0.063843
    64  C   -0.083747
    65  C   -0.062990
    66  C   -0.084642
    67  C   -0.361377
    68  H    0.198578
    69  H    0.199367
    70  C   -0.228027
    71  C   -0.361454
    72  H    0.198740
    73  C   -0.228687
    74  H    0.198967
    75  H    0.168541
    76  H    0.169559
    77  H    0.172614
    78  H    0.133593
    79  H    0.169671
    80  H    0.168445
    81  H    0.133803
    82  H    0.172701
 Sum of Mulliken charges =   1.00000

 Dipole moment (field-independent basis, Debye):
    X=             -0.0084    Y=             -0.0029    Z=             -0.1218  Tot=              0.1221
 Quadrupole moment (field-independent basis, Debye-Ang):
   XX=           -211.7530   YY=           -219.3048   ZZ=           -226.2669
   XY=             -1.8133   XZ=             -0.0690   YZ=              0.1907

 Summary of Natural Population Analysis:

                                       Natural Population
                Natural  -----------------------------------------------
    Atom  No    Charge         Core      Valence    Rydberg      Total
 -----------------------------------------------------------------------
      P    1    1.09744      9.99658     3.85556    0.05043    13.90256
      P    2    1.09870      9.99657     3.85429    0.05044    13.90130
      C    3   -0.98403      1.99941     4.96671    0.01791     6.98403
      H    4    0.26229      0.00000     0.73581    0.00190     0.73771
      H    5    0.26252      0.00000     0.73561    0.00187     0.73748
      C    6   -0.33832      1.99890     4.31640    0.02302     6.33832
      C    7   -0.18301      1.99910     4.16834    0.01556     6.18301
      H    8    0.22032      0.00000     0.77754    0.00214     0.77968
      C    9   -0.20728      1.99918     4.19341    0.01469     6.20728
      H   10    0.22096      0.00000     0.77779    0.00125     0.77904
      C   11   -0.16971      1.99920     4.15598    0.01453     6.16971
      H   12    0.22267      0.00000     0.77612    0.00121     0.77733
      C   13   -0.19415      1.99911     4.18084    0.01419     6.19415
      H   14    0.21753      0.00000     0.78101    0.00146     0.78247
      C   15   -0.00204      1.99905     3.98610    0.01689     6.00204
      C   16   -0.61994      1.99939     4.61289    0.00766     6.61994
      H   17    0.20931      0.00000     0.78846    0.00223     0.79069
      H   18    0.22934      0.00000     0.76869    0.00196     0.77066
      H   19    0.22540      0.00000     0.77328    0.00132     0.77460
      C   20   -0.32883      1.99890     4.30747    0.02246     6.32883
      C   21   -0.19270      1.99910     4.17842    0.01518     6.19270
      H   22    0.20554      0.00000     0.79219    0.00227     0.79446
      C   23   -0.19895      1.99918     4.18500    0.01476     6.19895
      H   24    0.22153      0.00000     0.77723    0.00125     0.77847
      C   25   -0.17624      1.99919     4.16241    0.01463     6.17624
      H   26    0.22273      0.00000     0.77607    0.00121     0.77727
      C   27   -0.19099      1.99911     4.17798    0.01390     6.19099
      H   28    0.21689      0.00000     0.78171    0.00140     0.78311
      C   29   -0.01012      1.99904     3.99529    0.01580     6.01012
      C   30   -0.61730      1.99938     4.61055    0.00737     6.61730
      H   31    0.22624      0.00000     0.77244    0.00132     0.77376
      H   32    0.20842      0.00000     0.78988    0.00170     0.79158
      H   33    0.22872      0.00000     0.76939    0.00189     0.77128
      C   34   -0.32888      1.99890     4.30751    0.02248     6.32888
      C   35   -0.19296      1.99910     4.17866    0.01520     6.19296
      H   36    0.20628      0.00000     0.79144    0.00227     0.79372
      C   37   -0.19899      1.99918     4.18505    0.01475     6.19899
      H   38    0.22148      0.00000     0.77727    0.00125     0.77852
      C   39   -0.17633      1.99919     4.16250    0.01463     6.17633
      H   40    0.22267      0.00000     0.77613    0.00121     0.77733
      C   41   -0.19104      1.99911     4.17803    0.01390     6.19104
      H   42    0.21686      0.00000     0.78173    0.00140     0.78314
      C   43   -0.01024      1.99904     3.99539    0.01581     6.01024
      C   44   -0.61743      1.99938     4.61069    0.00736     6.61743
      H   45    0.20855      0.00000     0.78975    0.00170     0.79145
      H   46    0.22869      0.00000     0.76942    0.00189     0.77131
      H   47    0.22623      0.00000     0.77245    0.00132     0.77377
      C   48   -0.33840      1.99890     4.31653    0.02298     6.33840
      C   49   -0.18322      1.99910     4.16856    0.01556     6.18322
      H   50    0.22014      0.00000     0.77773    0.00213     0.77986
      C   51   -0.20717      1.99918     4.19331    0.01468     6.20717
      H   52    0.22095      0.00000     0.77780    0.00125     0.77905
      C   53   -0.16962      1.99920     4.15589    0.01453     6.16962
      H   54    0.22268      0.00000     0.77612    0.00121     0.77732
      C   55   -0.19402      1.99911     4.18072    0.01419     6.19402
      H   56    0.21751      0.00000     0.78103    0.00146     0.78249
      C   57   -0.00184      1.99905     3.98592    0.01687     6.00184
      C   58   -0.61985      1.99939     4.61280    0.00766     6.61985
      H   59    0.20933      0.00000     0.78844    0.00223     0.79067
      H   60    0.22921      0.00000     0.76882    0.00196     0.77079
      H   61    0.22539      0.00000     0.77328    0.00132     0.77461
     Rh   62   -0.35521     35.98601     9.34072    0.02848    45.35521
      C   63   -0.18508      1.99907     4.16629    0.01972     6.18508
      C   64   -0.15558      1.99908     4.13679    0.01970     6.15558
      C   65   -0.18544      1.99907     4.16665    0.01972     6.18544
      C   66   -0.15536      1.99908     4.13657    0.01971     6.15536
      C   67   -0.42387      1.99936     4.41254    0.01198     6.42387
      H   68    0.22138      0.00000     0.77627    0.00234     0.77862
      H   69    0.22941      0.00000     0.76834    0.00225     0.77059
      C   70   -0.41794      1.99935     4.40593    0.01266     6.41794
      C   71   -0.42382      1.99936     4.41249    0.01198     6.42382
      H   72    0.22158      0.00000     0.77608    0.00234     0.77842
      C   73   -0.41786      1.99935     4.40585    0.01266     6.41786
      H   74    0.22917      0.00000     0.76858    0.00225     0.77083
      H   75    0.22776      0.00000     0.77073    0.00152     0.77224
      H   76    0.21546      0.00000     0.78255    0.00199     0.78454
      H   77    0.23407      0.00000     0.76405    0.00189     0.76593
      H   78    0.21762      0.00000     0.78076    0.00162     0.78238
      H   79    0.21549      0.00000     0.78252    0.00199     0.78451
      H   80    0.22767      0.00000     0.77082    0.00152     0.77233
      H   81    0.21754      0.00000     0.78084    0.00162     0.78246
      H   82    0.23408      0.00000     0.76403    0.00189     0.76592
 =======================================================================
   * Total *    1.00000    129.94798   207.28324    0.76878   338.00000

 Normal termination of Gaussian 16 at Tue Jan 21 17:14:31 2025.
