 Gaussian 16, Revision B.01,
 Gaussian 16:  ES64L-G16RevB.01 20-Dec-2017

 ------------------------------------------
 # nmr=giao b3lyp/genecp pop=nbo scfcyc=200
 ------------------------------------------

 --------
 MB-9_SPE
 --------
 Symbolic Z-matrix:
 Charge =  1 Multiplicity = 1

                         Standard orientation:
 ---------------------------------------------------------------------
 Center     Atomic      Atomic             Coordinates (Angstroms)
 Number     Number       Type             X           Y           Z
 ---------------------------------------------------------------------
      1         15           0        0.023879    2.225621   -0.309241
      2         15           0       -1.545512   -0.102299   -0.000371
      3          6           0       -1.774551    1.736361   -0.356091
      4          1           0       -2.196491    1.904631   -1.345791
      5          1           0       -2.397881    2.261561    0.366309
      6          6           0        0.353329    3.133651   -1.882851
      7          1           0        0.199329    2.469191   -2.731971
      8          1           0        1.389509    3.473491   -1.895901
      9          1           0       -0.303821    4.000151   -1.973421
     10          6           0        0.195059    3.541681    0.974139
     11          1           0       -0.047291    3.141501    1.956909
     12          1           0       -0.462991    4.383061    0.750829
     13          1           0        1.226209    3.896431    0.990959
     14          6           0       -2.442952   -0.978009   -1.461421
     15          6           0       -3.851502   -0.427049   -1.735911
     16          1           0       -3.855522    0.646821   -1.927071
     17          1           0       -4.549552   -0.630859   -0.927861
     18          1           0       -4.244252   -0.910609   -2.634481
     19          6           0       -2.528282   -2.490689   -1.201951
     20          1           0       -1.567072   -2.926189   -0.924371
     21          1           0       -2.859742   -2.989089   -2.116321
     22          1           0       -3.251382   -2.733289   -0.424131
     23          6           0       -1.567292   -0.727999   -2.704431
     24          1           0       -1.508012    0.330781   -2.963811
     25          1           0       -2.013232   -1.241569   -3.559871
     26          1           0       -0.551662   -1.101949   -2.576521
     27          6           0       -2.387002   -0.387819    1.705099
     28          6           0       -3.905252   -0.162799    1.677029
     29          1           0       -4.182792    0.797041    1.237659
     30          1           0       -4.281612   -0.169459    2.703579
     31          1           0       -4.428452   -0.952129    1.139299
     32          6           0       -2.080442   -1.809859    2.203939
     33          1           0       -1.009562   -1.973139    2.321329
     34          1           0       -2.478822   -2.585419    1.552989
     35          1           0       -2.539032   -1.943009    3.187029
     36          6           0       -1.744102    0.609701    2.687119
     37          1           0       -0.654262    0.536711    2.685469
     38          1           0       -2.092332    0.380831    3.697229
     39          1           0       -2.027671    1.642251    2.479989
     40         45           0        0.883238    0.080671   -0.005491
     41          6           0        3.017248    0.463041   -0.635151
     42          6           0        2.900558    0.685101    0.726379
     43          6           0        1.654908   -1.948689    0.800099
     44          6           0        1.519098   -2.036419   -0.564531
     45          6           0        3.631938   -0.766299   -1.279691
     46          1           0        2.952658    1.332831   -1.279681
     47          1           0        2.788049    1.714711    1.051419
     48          6           0        3.280028   -0.264799    1.834959
     49          6           0        2.957588   -1.746259    1.547879
     50          1           0        0.824458   -2.304899    1.397179
     51          6           0        2.609098   -1.877999   -1.594931
     52          1           0        0.607678   -2.487229   -0.940831
     53          1           0        4.111778   -0.465250   -2.212161
     54          1           0        4.429748   -1.151860   -0.645211
     55          1           0        4.347148   -0.155220    2.065359
     56          1           0        2.748538    0.048621    2.736319
     57          1           0        3.773068   -2.213269    0.996459
     58          1           0        2.896668   -2.277349    2.499159
     59          1           0        2.133188   -1.663269   -2.554191
     60          1           0        3.129288   -2.834599   -1.728751
 ---------------------------------------------------------------------

 SCF Done:  E(RB3LYP) =  -1540.38567035     A.U. after   15 cycles

      1  P    Isotropic =   341.0826   Anisotropy =    43.7855

      2  P    Isotropic =   287.0898   Anisotropy =   140.0061

      3  C    Isotropic =   142.5226   Anisotropy =    54.6093

      4  H    Isotropic =    28.9934   Anisotropy =     5.7434

      5  H    Isotropic =    29.0433   Anisotropy =     6.7797

      6  C    Isotropic =   166.6957   Anisotropy =    31.1251

      7  H    Isotropic =    30.4343   Anisotropy =     7.4331

      8  H    Isotropic =    30.7140   Anisotropy =     9.4893

      9  H    Isotropic =    30.4797   Anisotropy =    11.3613

     10  C    Isotropic =   167.7517   Anisotropy =    30.0554

     11  H    Isotropic =    30.3649   Anisotropy =     7.0510

     12  H    Isotropic =    30.5625   Anisotropy =    11.3408

     13  H    Isotropic =    30.7005   Anisotropy =     9.6153

     14  C    Isotropic =   135.1431   Anisotropy =    33.3675

     15  C    Isotropic =   158.1355   Anisotropy =    39.1633

     16  H    Isotropic =    30.8025   Anisotropy =     6.8938

     17  H    Isotropic =    30.5132   Anisotropy =     8.0045

     18  H    Isotropic =    30.8048   Anisotropy =    10.8995

     19  C    Isotropic =   156.0467   Anisotropy =    34.5645

     20  H    Isotropic =    30.7669   Anisotropy =     5.3519

     21  H    Isotropic =    30.6347   Anisotropy =    10.3177

     22  H    Isotropic =    30.4901   Anisotropy =     7.6556

     23  C    Isotropic =   151.9590   Anisotropy =    42.1657

     24  H    Isotropic =    30.6428   Anisotropy =     5.8288

     25  H    Isotropic =    30.7798   Anisotropy =    10.0807

     26  H    Isotropic =    30.0587   Anisotropy =     8.0058

     27  C    Isotropic =   135.1461   Anisotropy =    33.5034

     28  C    Isotropic =   157.4057   Anisotropy =    34.4902

     29  H    Isotropic =    30.7804   Anisotropy =     7.0431

     30  H    Isotropic =    30.7380   Anisotropy =    10.8385

     31  H    Isotropic =    30.5579   Anisotropy =     8.1643

     32  C    Isotropic =   155.5721   Anisotropy =    38.8992

     33  H    Isotropic =    30.6945   Anisotropy =     6.7154

     34  H    Isotropic =    30.4071   Anisotropy =     6.7113

     35  H    Isotropic =    30.7284   Anisotropy =    10.3724

     36  C    Isotropic =   151.5929   Anisotropy =    40.4086

     37  H    Isotropic =    29.8452   Anisotropy =     6.8368

     38  H    Isotropic =    30.7333   Anisotropy =     9.7782

     39  H    Isotropic =    30.6845   Anisotropy =     6.1979

     40  Rh   Isotropic =  -329.5018   Anisotropy =   379.9578

     41  C    Isotropic =    84.0162   Anisotropy =   114.1543

     42  C    Isotropic =    81.4774   Anisotropy =   109.8091

     43  C    Isotropic =    74.1778   Anisotropy =   128.7729

     44  C    Isotropic =    72.7055   Anisotropy =   121.8597

     45  C    Isotropic =   154.3021   Anisotropy =    24.5187

     46  H    Isotropic =    27.4572   Anisotropy =     7.3646

     47  H    Isotropic =    26.9596   Anisotropy =     5.2985

     48  C    Isotropic =   147.0054   Anisotropy =    29.9644

     49  C    Isotropic =   154.4712   Anisotropy =    24.4439

     50  H    Isotropic =    26.6645   Anisotropy =     5.2983

     51  C    Isotropic =   147.9749   Anisotropy =    28.7726

     52  H    Isotropic =    26.0170   Anisotropy =     3.2169

     53  H    Isotropic =    29.8439   Anisotropy =    11.6026

     54  H    Isotropic =    29.7960   Anisotropy =     9.3632

     55  H    Isotropic =    29.0624   Anisotropy =    12.5571

     56  H    Isotropic =    29.1202   Anisotropy =     7.5624

     57  H    Isotropic =    29.8426   Anisotropy =     9.2522

     58  H    Isotropic =    29.8520   Anisotropy =    11.2062

     59  H    Isotropic =    29.1211   Anisotropy =     7.2184

     60  H    Isotropic =    29.1220   Anisotropy =    12.3315

 The electronic state is 1-A.
 Alpha  occ. eigenvalues --  -77.24640 -77.23521 -10.32006 -10.31996 -10.31078
 Alpha  occ. eigenvalues --  -10.29971 -10.29952 -10.29878 -10.29873 -10.29748
 Alpha  occ. eigenvalues --  -10.29715 -10.28301 -10.28253 -10.28028 -10.28013
 Alpha  occ. eigenvalues --  -10.27761 -10.27659 -10.27556 -10.27389 -10.27292
 Alpha  occ. eigenvalues --  -10.27233  -6.70675  -6.69504  -4.86963  -4.86890
 Alpha  occ. eigenvalues --   -4.86569  -4.85813  -4.85677  -4.85402  -3.32270
 Alpha  occ. eigenvalues --   -2.09144  -2.08506  -2.05721  -0.95302  -0.94452
 Alpha  occ. eigenvalues --   -0.92486  -0.90247  -0.90002  -0.88805  -0.84215
 Alpha  occ. eigenvalues --   -0.82425  -0.81192  -0.80654  -0.80554  -0.80099
 Alpha  occ. eigenvalues --   -0.79821  -0.78635  -0.73885  -0.71352  -0.67881
 Alpha  occ. eigenvalues --   -0.66971  -0.66706  -0.63621  -0.63240  -0.61040
 Alpha  occ. eigenvalues --   -0.59437  -0.58189  -0.57849  -0.57114  -0.56509
 Alpha  occ. eigenvalues --   -0.56262  -0.55975  -0.55575  -0.55217  -0.54655
 Alpha  occ. eigenvalues --   -0.54468  -0.54366  -0.53582  -0.53345  -0.53148
 Alpha  occ. eigenvalues --   -0.52109  -0.51394  -0.50688  -0.49955  -0.49767
 Alpha  occ. eigenvalues --   -0.49351  -0.49025  -0.48839  -0.48471  -0.47711
 Alpha  occ. eigenvalues --   -0.47280  -0.47079  -0.46761  -0.46196  -0.46017
 Alpha  occ. eigenvalues --   -0.45287  -0.44859  -0.44124  -0.43774  -0.43423
 Alpha  occ. eigenvalues --   -0.42970  -0.41328  -0.41249  -0.37663  -0.37146
 Alpha  occ. eigenvalues --   -0.35616  -0.35356  -0.34586  -0.31522
 Alpha virt. eigenvalues --   -0.16905  -0.14749  -0.10258  -0.09650  -0.09095
 Alpha virt. eigenvalues --   -0.08532  -0.07946  -0.07333  -0.07058  -0.06620
 Alpha virt. eigenvalues --   -0.05528  -0.04664  -0.04428  -0.04291  -0.04072

 Mulliken charges:
               1
     1  P    0.378337
     2  P    0.381864
     3  C   -0.622427
     4  H    0.208218
     5  H    0.210605
     6  C   -0.424722
     7  H    0.160182
     8  H    0.162042
     9  H    0.164808
    10  C   -0.435334
    11  H    0.166842
    12  H    0.165054
    13  H    0.163326
    14  C   -0.074954
    15  C   -0.352573
    16  H    0.130059
    17  H    0.150866
    18  H    0.153059
    19  C   -0.424549
    20  H    0.147474
    21  H    0.157190
    22  H    0.149312
    23  C   -0.372306
    24  H    0.121459
    25  H    0.161790
    26  H    0.142545
    27  C   -0.012511
    28  C   -0.380850
    29  H    0.139078
    30  H    0.154294
    31  H    0.142380
    32  C   -0.404023
    33  H    0.123583
    34  H    0.155330
    35  H    0.158298
    36  C   -0.441708
    37  H    0.162337
    38  H    0.163458
    39  H    0.133172
    40  Rh  -0.485841
    41  C   -0.017593
    42  C   -0.070317
    43  C   -0.020193
    44  C   -0.119857
    45  C   -0.359418
    46  H    0.176103
    47  H    0.173506
    48  C   -0.228264
    49  C   -0.347225
    50  H    0.188014
    51  C   -0.215688
    52  H    0.171563
    53  H    0.169949
    54  H    0.169408
    55  H    0.172633
    56  H    0.133913
    57  H    0.170610
    58  H    0.170593
    59  H    0.132746
    60  H    0.174352
 Sum of Mulliken charges =   1.00000

 Dipole moment (field-independent basis, Debye):
    X=             -0.9661    Y=              2.1780    Z=             -0.3351  Tot=              2.4061
 Quadrupole moment (field-independent basis, Debye-Ang):
   XX=           -133.9846   YY=           -140.9385   ZZ=           -149.7076
   XY=             -0.3776   XZ=             -0.0682   YZ=             -0.9567

 Summary of Natural Population Analysis:

                                       Natural Population
                Natural  -----------------------------------------------
    Atom  No    Charge         Core      Valence    Rydberg      Total
 -----------------------------------------------------------------------
      P    1    1.12865      9.99680     3.82664    0.04792    13.87135
      P    2    1.07482      9.99686     3.88227    0.04606    13.92518
      C    3   -1.01047      1.99942     4.99256    0.01849     7.01047
      H    4    0.25698      0.00000     0.74081    0.00221     0.74302
      H    5    0.25609      0.00000     0.74156    0.00235     0.74391
      C    6   -0.89868      1.99943     4.88958    0.00967     6.89868
      H    7    0.24252      0.00000     0.75621    0.00127     0.75748
      H    8    0.24280      0.00000     0.75610    0.00110     0.75720
      H    9    0.23901      0.00000     0.75918    0.00180     0.76099
      C   10   -0.90011      1.99943     4.89094    0.00975     6.90011
      H   11    0.24357      0.00000     0.75512    0.00130     0.75643
      H   12    0.23909      0.00000     0.75905    0.00186     0.76091
      H   13    0.24268      0.00000     0.75621    0.00111     0.75732
      C   14   -0.25973      1.99942     4.24353    0.01679     6.25973
      C   15   -0.60656      1.99935     4.59830    0.00890     6.60656
      H   16    0.20368      0.00000     0.79464    0.00168     0.79632
      H   17    0.21398      0.00000     0.78438    0.00164     0.78602
      H   18    0.22362      0.00000     0.77466    0.00172     0.77638
      C   19   -0.60389      1.99935     4.59619    0.00835     6.60389
      H   20    0.20701      0.00000     0.79152    0.00147     0.79299
      H   21    0.22392      0.00000     0.77429    0.00179     0.77608
      H   22    0.21003      0.00000     0.78828    0.00169     0.78997
      C   23   -0.59936      1.99936     4.59159    0.00841     6.59936
      H   24    0.20032      0.00000     0.79796    0.00172     0.79968
      H   25    0.22452      0.00000     0.77367    0.00181     0.77548
      H   26    0.21692      0.00000     0.78132    0.00175     0.78308
      C   27   -0.26016      1.99942     4.24341    0.01733     6.26016
      C   28   -0.60677      1.99935     4.59847    0.00895     6.60677
      H   29    0.20692      0.00000     0.79131    0.00176     0.79308
      H   30    0.22383      0.00000     0.77445    0.00172     0.77617
      H   31    0.20967      0.00000     0.78865    0.00168     0.79033
      C   32   -0.60158      1.99935     4.59402    0.00821     6.60158
      H   33    0.20751      0.00000     0.79102    0.00147     0.79249
      H   34    0.21206      0.00000     0.78631    0.00163     0.78794
      H   35    0.22234      0.00000     0.77591    0.00175     0.77766
      C   36   -0.60436      1.99936     4.59648    0.00852     6.60436
      H   37    0.21949      0.00000     0.77905    0.00146     0.78051
      H   38    0.22701      0.00000     0.77119    0.00180     0.77299
      H   39    0.20084      0.00000     0.79746    0.00171     0.79916
     Rh   40   -0.39051     35.98576     9.37916    0.02559    45.39051
      C   41   -0.17502      1.99907     4.15638    0.01956     6.17502
      C   42   -0.16123      1.99908     4.14230    0.01984     6.16123
      C   43   -0.17275      1.99907     4.15389    0.01979     6.17275
      C   44   -0.16031      1.99908     4.14080    0.02043     6.16031
      C   45   -0.42293      1.99936     4.41152    0.01205     6.42293
      H   46    0.21985      0.00000     0.77824    0.00192     0.78015
      H   47    0.21905      0.00000     0.77903    0.00193     0.78095
      C   48   -0.41688      1.99935     4.40478    0.01276     6.41688
      C   49   -0.42528      1.99936     4.41393    0.01199     6.42528
      H   50    0.22216      0.00000     0.77557    0.00227     0.77784
      C   51   -0.41993      1.99935     4.40774    0.01284     6.41993
      H   52    0.22133      0.00000     0.77639    0.00227     0.77867
      H   53    0.22924      0.00000     0.76934    0.00143     0.77076
      H   54    0.21623      0.00000     0.78186    0.00191     0.78377
      H   55    0.23482      0.00000     0.76337    0.00181     0.76518
      H   56    0.21634      0.00000     0.78208    0.00158     0.78366
      H   57    0.21625      0.00000     0.78184    0.00191     0.78375
      H   58    0.23001      0.00000     0.76857    0.00142     0.76999
      H   59    0.21553      0.00000     0.78270    0.00176     0.78447
      H   60    0.23583      0.00000     0.76235    0.00182     0.76417
 =======================================================================
   * Total *    1.00000     93.96638   131.59615    0.43748   226.00000

 Normal termination of Gaussian 16 at Tue Jan 21 01:24:20 2025.
