 Gaussian 16, Revision B.01,
 Gaussian 16:  ES64L-G16RevB.01 20-Dec-2017

 ------------------------------------------
 # nmr=giao b3lyp/genecp pop=nbo scfcyc=200
 ------------------------------------------

 ---------
 MB-93_SPE
 ---------
 Symbolic Z-matrix:
 Charge =  1 Multiplicity = 1

                         Standard orientation:
 ---------------------------------------------------------------------
 Center     Atomic      Atomic             Coordinates (Angstroms)
 Number     Number       Type             X           Y           Z
 ---------------------------------------------------------------------
      1         15           0        1.351209    0.415803   -0.235090
      2         15           0       -1.331601    0.446086   -0.233550
      3          6           0        0.022906    1.540760   -0.879450
      4          1           0        0.023626    1.684250   -1.958890
      5          1           0        0.034684    2.506330   -0.369760
      6         45           0       -0.002028   -0.987020    0.997300
      7          6           0        1.439456   -2.561537    1.866600
      8          6           0        1.467953   -1.445647    2.671640
      9          6           0       -1.473516   -1.663014    2.646820
     10          6           0       -1.500534   -2.586134    1.627960
     11          6           0        0.684649   -3.844539    2.154500
     12          1           0        2.195516   -2.625415    1.090920
     13          1           0        2.266381   -0.730615    2.502100
     14          6           0        0.696723   -1.226299    3.949080
     15          6           0       -0.731776   -1.813532    3.961140
     16          1           0       -2.220978   -0.877646    2.617530
     17          6           0       -0.737101   -3.883762    1.551450
     18          1           0       -2.289014   -2.484076    0.888900
     19          1           0        1.253831   -4.676257    1.736720
     20          1           0        0.647499   -4.015409    3.229800
     21          1           0        1.268894   -1.632847    4.792390
     22          1           0        0.641770   -0.149369    4.119970
     23          1           0       -0.708863   -2.864232    4.247950
     24          1           0       -1.303887   -1.302173    4.736810
     25          1           0       -0.670810   -4.164802    0.498340
     26          1           0       -1.320099   -4.678064    2.033900
     27          6           0        2.882893   -1.177403   -1.763350
     28          6           0        2.565805   -2.113324   -2.738030
     29          6           0        4.019133   -1.308861   -0.973840
     30          6           0        3.400977   -3.210342   -2.918580
     31          1           0        1.683264   -1.970746   -3.347300
     32          6           0        4.842456   -2.417119   -1.160920
     33          1           0        4.271651   -0.552450   -0.242160
     34          6           0        4.537048   -3.367450   -2.129120
     35          1           0        3.163859   -3.941433   -3.681030
     36          1           0        5.732776   -2.525067   -0.554460
     37          1           0        5.186140   -4.220918   -2.275600
     38          6           0        2.919704    2.599467    0.174720
     39          6           0        2.892201    3.581317    1.156070
     40          6           0        3.421553    2.852848   -1.095660
     41          6           0        3.372488    4.850778    0.854030
     42          1           0        2.507592    3.343936    2.139240
     43          6           0        3.893290    4.131379   -1.383670
     44          1           0        3.454545    2.072018   -1.842580
     45          6           0        3.871227    5.129039   -0.415340
     46          1           0        3.358866    5.621048    1.614560
     47          1           0        4.288619    4.339620   -2.369720
     48          1           0        4.245495    6.117760   -0.646600
     49          6           0       -2.831147    2.671213    0.225910
     50          6           0       -2.826719    3.615763    1.243810
     51          6           0       -3.279077    2.980452   -1.052390
     52          6           0       -3.275202    4.903322    0.971790
     53          1           0       -2.483638    3.335304    2.230960
     54          6           0       -3.719320    4.276801   -1.309690
     55          1           0       -3.296466    2.228822   -1.829260
     56          6           0       -3.719733    5.237251   -0.304400
     57          1           0       -3.279104    5.644432    1.760890
     58          1           0       -4.072551    4.528100   -2.301680
     59          1           0       -4.069365    6.240070   -0.512290
     60          6           0       -2.942728   -1.064897   -1.765040
     61          6           0       -2.642565   -2.042317   -2.703880
     62          6           0       -4.110738   -1.115470   -1.013270
     63          6           0       -3.527923   -3.099209   -2.885730
     64          1           0       -1.733646   -1.962464   -3.285170
     65          6           0       -4.984585   -2.184082   -1.201080
     66          1           0       -4.345479   -0.328761   -0.308300
     67          6           0       -4.697053   -3.175102   -2.133450
     68          1           0       -3.304191   -3.862148   -3.620530
     69          1           0       -5.899135   -2.229464   -0.623490
     70          1           0       -5.384881   -3.997513   -2.280780
     71          8           0        2.465747    1.320926    0.554510
     72          8           0        2.042180   -0.059005   -1.654850
     73          8           0       -2.410344    1.374234    0.577710
     74          8           0       -2.051360    0.013305   -1.653860
 ---------------------------------------------------------------------

 SCF Done:  E(RB3LYP) =  -2372.65599988     A.U. after   15 cycles

      1  P    Isotropic =   169.9730   Anisotropy =   199.3909

      2  P    Isotropic =   172.0914   Anisotropy =   198.0182

      3  C    Isotropic =   111.4044   Anisotropy =    52.1704

      4  H    Isotropic =    27.9030   Anisotropy =     5.7377

      5  H    Isotropic =    28.0770   Anisotropy =     8.6815

      6  Rh   Isotropic =  -307.8408   Anisotropy =   363.8959

      7  C    Isotropic =    73.6158   Anisotropy =   131.4347

      8  C    Isotropic =    69.0476   Anisotropy =   130.2263

      9  C    Isotropic =    69.2489   Anisotropy =   137.0881

     10  C    Isotropic =    71.8883   Anisotropy =   126.1438

     11  C    Isotropic =   154.7897   Anisotropy =    23.6301

     12  H    Isotropic =    27.6322   Anisotropy =     8.0578

     13  H    Isotropic =    25.5890   Anisotropy =     3.8780

     14  C    Isotropic =   147.5667   Anisotropy =    30.2625

     15  C    Isotropic =   153.8324   Anisotropy =    25.4682

     16  H    Isotropic =    26.3071   Anisotropy =     6.3544

     17  C    Isotropic =   149.2531   Anisotropy =    29.8581

     18  H    Isotropic =    26.9993   Anisotropy =     7.6856

     19  H    Isotropic =    30.4748   Anisotropy =    10.5507

     20  H    Isotropic =    30.0516   Anisotropy =     9.2880

     21  H    Isotropic =    29.1496   Anisotropy =    12.3578

     22  H    Isotropic =    28.9934   Anisotropy =     7.7970

     23  H    Isotropic =    29.8169   Anisotropy =     8.8685

     24  H    Isotropic =    29.8516   Anisotropy =    11.4886

     25  H    Isotropic =    30.0212   Anisotropy =     6.8160

     26  H    Isotropic =    29.6039   Anisotropy =    11.6136

     27  C    Isotropic =    21.6360   Anisotropy =   118.4023

     28  C    Isotropic =    58.1978   Anisotropy =   155.6273

     29  C    Isotropic =    61.7038   Anisotropy =   154.8257

     30  C    Isotropic =    47.2151   Anisotropy =   189.8077

     31  H    Isotropic =    24.3318   Anisotropy =     7.4132

     32  C    Isotropic =    48.0776   Anisotropy =   189.0167

     33  H    Isotropic =    24.5744   Anisotropy =     8.6181

     34  C    Isotropic =    51.2420   Anisotropy =   190.4257

     35  H    Isotropic =    24.0878   Anisotropy =     5.2263

     36  H    Isotropic =    24.3116   Anisotropy =     6.1436

     37  H    Isotropic =    24.3022   Anisotropy =     3.5711

     38  C    Isotropic =    23.7860   Anisotropy =   107.3633

     39  C    Isotropic =    58.7789   Anisotropy =   153.8431

     40  C    Isotropic =    60.2636   Anisotropy =   155.5578

     41  C    Isotropic =    47.5224   Anisotropy =   189.3648

     42  H    Isotropic =    24.6247   Anisotropy =     8.0408

     43  C    Isotropic =    47.6014   Anisotropy =   189.0344

     44  H    Isotropic =    24.3977   Anisotropy =    10.2364

     45  C    Isotropic =    50.6730   Anisotropy =   191.1329

     46  H    Isotropic =    24.2618   Anisotropy =     5.3321

     47  H    Isotropic =    24.3657   Anisotropy =     6.3069

     48  H    Isotropic =    24.4074   Anisotropy =     3.5183

     49  C    Isotropic =    23.6494   Anisotropy =   107.5915

     50  C    Isotropic =    58.7726   Anisotropy =   153.7804

     51  C    Isotropic =    60.6252   Anisotropy =   155.5138

     52  C    Isotropic =    47.4700   Anisotropy =   189.4515

     53  H    Isotropic =    24.6198   Anisotropy =     8.1304

     54  C    Isotropic =    47.6978   Anisotropy =   188.9958

     55  H    Isotropic =    24.3883   Anisotropy =    10.2556

     56  C    Isotropic =    50.8309   Anisotropy =   191.0313

     57  H    Isotropic =    24.2487   Anisotropy =     5.2846

     58  H    Isotropic =    24.3744   Anisotropy =     6.3282

     59  H    Isotropic =    24.4058   Anisotropy =     3.4840

     60  C    Isotropic =    21.6864   Anisotropy =   117.9013

     61  C    Isotropic =    58.0642   Anisotropy =   155.5326

     62  C    Isotropic =    60.9479   Anisotropy =   155.8133

     63  C    Isotropic =    47.2315   Anisotropy =   189.8334

     64  H    Isotropic =    24.3287   Anisotropy =     7.3366

     65  C    Isotropic =    47.9440   Anisotropy =   189.2434

     66  H    Isotropic =    24.5477   Anisotropy =     8.7274

     67  C    Isotropic =    51.1682   Anisotropy =   190.9744

     68  H    Isotropic =    24.0778   Anisotropy =     5.2995

     69  H    Isotropic =    24.2818   Anisotropy =     6.0619

     70  H    Isotropic =    24.2719   Anisotropy =     3.5111

     71  O    Isotropic =   143.9619   Anisotropy =    82.2956

     72  O    Isotropic =   116.8561   Anisotropy =    91.1659

     73  O    Isotropic =   143.7390   Anisotropy =    85.5819

     74  O    Isotropic =   117.2439   Anisotropy =    89.3634

 The electronic state is 1-A.
 Alpha  occ. eigenvalues --  -77.31655 -77.31636 -19.28050 -19.28015 -19.27988
 Alpha  occ. eigenvalues --  -19.27931 -10.34179 -10.34177 -10.34037 -10.34036
 Alpha  occ. eigenvalues --  -10.30970 -10.30386 -10.30287 -10.30126 -10.29956
 Alpha  occ. eigenvalues --  -10.28519 -10.28410 -10.28293 -10.28189 -10.27724
 Alpha  occ. eigenvalues --  -10.27719 -10.27535 -10.27493 -10.27465 -10.27458
 Alpha  occ. eigenvalues --  -10.27409 -10.27402 -10.27396 -10.27375 -10.27331
 Alpha  occ. eigenvalues --  -10.27291 -10.27098 -10.27097 -10.27090 -10.27078
 Alpha  occ. eigenvalues --  -10.26831 -10.26797 -10.26509 -10.26486  -6.76708
 Alpha  occ. eigenvalues --   -6.76683  -4.93144  -4.93118  -4.93007  -4.92985
 Alpha  occ. eigenvalues --   -4.92516  -4.92490  -3.33623  -2.10754  -2.09833
 Alpha  occ. eigenvalues --   -2.06871  -1.19032  -1.18876  -1.15960  -1.15910
 Alpha  occ. eigenvalues --   -0.96065  -0.95909  -0.95579  -0.95536  -0.95499
 Alpha  occ. eigenvalues --   -0.90370  -0.89724  -0.89006  -0.85950  -0.85253
 Alpha  occ. eigenvalues --   -0.85197  -0.84943  -0.84913  -0.84491  -0.84403
 Alpha  occ. eigenvalues --   -0.83916  -0.81393  -0.78875  -0.77111  -0.75037
 Alpha  occ. eigenvalues --   -0.71948  -0.71861  -0.71614  -0.71520  -0.71457
 Alpha  occ. eigenvalues --   -0.71270  -0.71217  -0.67695  -0.67578  -0.66775
 Alpha  occ. eigenvalues --   -0.65341  -0.65159  -0.63430  -0.63132  -0.60984
 Alpha  occ. eigenvalues --   -0.60781  -0.60058  -0.59847  -0.59563  -0.58411
 Alpha  occ. eigenvalues --   -0.58159  -0.57643  -0.57280  -0.57194  -0.57105
 Alpha  occ. eigenvalues --   -0.56744  -0.56334  -0.56275  -0.55478  -0.54585
 Alpha  occ. eigenvalues --   -0.54374  -0.54012  -0.53740  -0.53517  -0.53483
 Alpha  occ. eigenvalues --   -0.53178  -0.52815  -0.52643  -0.52277  -0.52262
 Alpha  occ. eigenvalues --   -0.52007  -0.50788  -0.49783  -0.49526  -0.49066
 Alpha  occ. eigenvalues --   -0.48866  -0.47561  -0.47220  -0.46961  -0.46742
 Alpha  occ. eigenvalues --   -0.46390  -0.46331  -0.46320  -0.46199  -0.46124
 Alpha  occ. eigenvalues --   -0.46059  -0.45284  -0.44628  -0.44503  -0.44422
 Alpha  occ. eigenvalues --   -0.44151  -0.43989  -0.43700  -0.42623  -0.42378
 Alpha  occ. eigenvalues --   -0.42243  -0.38844  -0.38339  -0.37551  -0.37088
 Alpha  occ. eigenvalues --   -0.35828  -0.35793  -0.35711  -0.35490  -0.35437
 Alpha  occ. eigenvalues --   -0.34473  -0.34425  -0.34331  -0.34272  -0.32485
 Alpha virt. eigenvalues --   -0.18191  -0.16096  -0.12211  -0.11579  -0.11304
 Alpha virt. eigenvalues --   -0.11023  -0.10933  -0.10799  -0.10493  -0.10435
 Alpha virt. eigenvalues --   -0.10206  -0.08998  -0.07784  -0.07337  -0.06373

 Mulliken charges:
               1
     1  P    0.630301
     2  P    0.632677
     3  C   -0.546301
     4  H    0.227608
     5  H    0.249443
     6  Rh  -0.571004
     7  C   -0.008703
     8  C   -0.106279
     9  C   -0.006018
    10  C   -0.102769
    11  C   -0.352545
    12  H    0.220562
    13  H    0.201744
    14  C   -0.222380
    15  C   -0.351392
    16  H    0.190825
    17  C   -0.230274
    18  H    0.225693
    19  H    0.175947
    20  H    0.168325
    21  H    0.179122
    22  H    0.138843
    23  H    0.169940
    24  H    0.175149
    25  H    0.142743
    26  H    0.179506
    27  C    0.138920
    28  C   -0.154868
    29  C   -0.170933
    30  C   -0.104147
    31  H    0.142278
    32  C   -0.089987
    33  H    0.150575
    34  C   -0.109537
    35  H    0.135083
    36  H    0.137216
    37  H    0.137564
    38  C    0.042980
    39  C   -0.126718
    40  C   -0.082605
    41  C   -0.115035
    42  H    0.137215
    43  C   -0.124730
    44  H    0.165106
    45  C   -0.083118
    46  H    0.135252
    47  H    0.135982
    48  H    0.138527
    49  C    0.039427
    50  C   -0.127893
    51  C   -0.085207
    52  C   -0.114255
    53  H    0.138481
    54  C   -0.124076
    55  H    0.168497
    56  C   -0.084260
    57  H    0.135248
    58  H    0.135792
    59  H    0.138305
    60  C    0.115854
    61  C   -0.149538
    62  C   -0.152947
    63  C   -0.109396
    64  H    0.142919
    65  C   -0.091128
    66  H    0.147985
    67  C   -0.105825
    68  H    0.135051
    69  H    0.137632
    70  H    0.137871
    71  O   -0.319069
    72  O   -0.320281
    73  O   -0.311746
    74  O   -0.323222
 Sum of Mulliken charges =   1.00000

 Dipole moment (field-independent basis, Debye):
    X=             -0.0468    Y=             -1.2860    Z=              1.7272  Tot=              2.1538
 Quadrupole moment (field-independent basis, Debye-Ang):
   XX=           -214.9360   YY=           -189.7043   ZZ=           -225.7037
   XY=              0.2967   XZ=             -0.2216   YZ=              1.3984

 Summary of Natural Population Analysis:

                                       Natural Population
                Natural  -----------------------------------------------
    Atom  No    Charge         Core      Valence    Rydberg      Total
 -----------------------------------------------------------------------
      P    1    1.70258      9.99568     3.21379    0.08796    13.29742
      P    2    1.69787      9.99572     3.21856    0.08784    13.30213
      C    3   -1.08553      1.99944     5.07091    0.01518     7.08553
      H    4    0.29001      0.00000     0.70804    0.00194     0.70999
      H    5    0.28475      0.00000     0.71361    0.00164     0.71525
     Rh    6   -0.53592     35.98421     9.52134    0.03038    45.53592
      C    7   -0.17259      1.99906     4.15329    0.02023     6.17259
      C    8   -0.14029      1.99906     4.12074    0.02049     6.14029
      C    9   -0.15036      1.99906     4.13128    0.02001     6.15036
      C   10   -0.16168      1.99909     4.14116    0.02142     6.16168
      C   11   -0.42367      1.99936     4.41261    0.01170     6.42367
      H   12    0.23835      0.00000     0.75931    0.00234     0.76165
      H   13    0.23767      0.00000     0.76059    0.00175     0.76233
      C   14   -0.42497      1.99935     4.41320    0.01241     6.42497
      C   15   -0.42565      1.99936     4.41445    0.01184     6.42565
      H   16    0.23856      0.00000     0.75994    0.00150     0.76144
      C   17   -0.42596      1.99935     4.41360    0.01300     6.42596
      H   18    0.24054      0.00000     0.75720    0.00226     0.75946
      H   19    0.23322      0.00000     0.76532    0.00146     0.76678
      H   20    0.21254      0.00000     0.78543    0.00203     0.78746
      H   21    0.23844      0.00000     0.75973    0.00183     0.76156
      H   22    0.22326      0.00000     0.77524    0.00151     0.77674
      H   23    0.21374      0.00000     0.78432    0.00195     0.78626
      H   24    0.23267      0.00000     0.76589    0.00144     0.76733
      H   25    0.22497      0.00000     0.77348    0.00155     0.77503
      H   26    0.23909      0.00000     0.75913    0.00178     0.76091
      C   27    0.24851      1.99868     3.72988    0.02293     5.75149
      C   28   -0.23611      1.99906     4.22188    0.01517     6.23611
      C   29   -0.27060      1.99905     4.25735    0.01420     6.27060
      C   30   -0.18025      1.99922     4.16629    0.01474     6.18025
      H   31    0.22516      0.00000     0.77324    0.00161     0.77484
      C   32   -0.18193      1.99922     4.16764    0.01507     6.18193
      H   33    0.22867      0.00000     0.76957    0.00176     0.77133
      C   34   -0.20729      1.99921     4.19324    0.01484     6.20729
      H   35    0.22163      0.00000     0.77722    0.00115     0.77837
      H   36    0.22210      0.00000     0.77671    0.00119     0.77790
      H   37    0.22306      0.00000     0.77579    0.00115     0.77694
      C   38    0.24085      1.99867     3.73720    0.02328     5.75915
      C   39   -0.24047      1.99906     4.22592    0.01549     6.24047
      C   40   -0.26363      1.99905     4.25001    0.01458     6.26363
      C   41   -0.18045      1.99922     4.16645    0.01478     6.18045
      H   42    0.22511      0.00000     0.77337    0.00152     0.77489
      C   43   -0.17840      1.99922     4.16422    0.01497     6.17840
      H   44    0.23191      0.00000     0.76621    0.00188     0.76809
      C   45   -0.20286      1.99921     4.18891    0.01474     6.20286
      H   46    0.22192      0.00000     0.77693    0.00114     0.77808
      H   47    0.22228      0.00000     0.77656    0.00117     0.77772
      H   48    0.22309      0.00000     0.77576    0.00115     0.77691
      C   49    0.24166      1.99867     3.73645    0.02322     5.75834
      C   50   -0.23976      1.99906     4.22519    0.01551     6.23976
      C   51   -0.26641      1.99905     4.25281    0.01455     6.26641
      C   52   -0.18031      1.99922     4.16633    0.01477     6.18031
      H   53    0.22552      0.00000     0.77296    0.00151     0.77448
      C   54   -0.17842      1.99922     4.16420    0.01500     6.17842
      H   55    0.23197      0.00000     0.76612    0.00192     0.76803
      C   56   -0.20341      1.99921     4.18945    0.01475     6.20341
      H   57    0.22187      0.00000     0.77699    0.00114     0.77813
      H   58    0.22215      0.00000     0.77668    0.00117     0.77785
      H   59    0.22304      0.00000     0.77581    0.00115     0.77696
      C   60    0.24658      1.99868     3.73167    0.02307     5.75342
      C   61   -0.23715      1.99906     4.22286    0.01523     6.23715
      C   62   -0.26908      1.99905     4.25577    0.01426     6.26908
      C   63   -0.18105      1.99922     4.16705    0.01478     6.18105
      H   64    0.22520      0.00000     0.77319    0.00161     0.77480
      C   65   -0.18170      1.99922     4.16744    0.01504     6.18170
      H   66    0.22959      0.00000     0.76868    0.00173     0.77041
      C   67   -0.20669      1.99921     4.19265    0.01483     6.20669
      H   68    0.22169      0.00000     0.77716    0.00115     0.77831
      H   69    0.22245      0.00000     0.77637    0.00119     0.77755
      H   70    0.22323      0.00000     0.77563    0.00115     0.77677
      O   71   -0.74985      1.99978     6.73651    0.01356     8.74985
      O   72   -0.74326      1.99979     6.72816    0.01531     8.74326
      O   73   -0.74787      1.99978     6.73431    0.01379     8.74787
      O   74   -0.74392      1.99979     6.72887    0.01526     8.74392
 =======================================================================
   * Total *    1.00000    129.94561   207.20181    0.85258   338.00000

 Normal termination of Gaussian 16 at Tue Jan 21 17:32:57 2025.
