 Gaussian 16, Revision B.01,
 Gaussian 16:  ES64L-G16RevB.01 20-Dec-2017

 ------------------------------------------
 # nmr=giao b3lyp/genecp pop=nbo scfcyc=200
 ------------------------------------------

 ---------
 MS-19_SPE
 ---------
 Symbolic Z-matrix:
 Charge =  1 Multiplicity = 1

                         Standard orientation:
 ---------------------------------------------------------------------
 Center     Atomic      Atomic             Coordinates (Angstroms)
 Number     Number       Type             X           Y           Z
 ---------------------------------------------------------------------
      1         15           0       -1.220912    0.737778   -0.154290
      2         15           0        1.316001   -0.502537   -0.071730
      3          6           0        0.557707    1.149372   -0.659300
      4          6           0       -2.316323    1.468166   -1.442600
      5          6           0       -3.693193    1.236283   -1.328890
      6          6           0       -4.570974    1.728371   -2.285680
      7          6           0       -4.086335    2.453662   -3.371080
      8          6           0       -2.722326    2.690685   -3.489040
      9          6           0       -1.838375    2.200307   -2.531280
     10          6           0       -1.711253    1.576517    1.406180
     11          6           0       -1.644042    0.864417    2.606330
     12          6           0       -2.023373    1.467316    3.801160
     13          6           0       -2.484716    2.778875    3.801370
     14          6           0       -2.564337    3.489075    2.605850
     15          6           0       -2.178476    2.894346    1.412360
     16          6           0        2.548472   -0.940045   -1.367020
     17          6           0        2.115023   -1.675505   -2.475020
     18          6           0        2.995924   -1.970244   -3.509770
     19          6           0        4.316453   -1.538381   -3.442740
     20          6           0        4.753001   -0.804480   -2.343700
     21          6           0        3.875041   -0.501032   -1.310020
     22          6           0        2.258950   -0.321905    1.494990
     23          6           0        2.014518    0.705714    2.410150
     24          6           0        2.677698    0.717076    3.634120
     25          6           0        3.576040   -0.291992    3.960680
     26          6           0        3.814882   -1.323122    3.056500
     27          6           0        3.158992   -1.342583    1.832310
     28          1           0        0.538228    0.942761   -1.733530
     29          1           0       -4.088002    0.688162   -0.481520
     30          1           0       -5.633443    1.546579   -2.183480
     31          1           0       -4.770866    2.836271   -4.117400
     32          1           0       -2.339447    3.262416   -4.324980
     33          1           0       -0.783715    2.414669   -2.642770
     34          1           0       -1.295800   -0.161462    2.602410
     35          1           0       -1.967572    0.909357    4.727450
     36          1           0       -2.789577    3.246115    4.729460
     37          1           0       -2.928369    4.508835    2.604010
     38          1           0       -2.245227    3.454896    0.489690
     39          1           0        1.087364   -2.014627   -2.527560
     40          1           0        2.652655   -2.540884   -4.363520
     41          1           0        5.004583   -1.772680   -4.245150
     42          1           0        5.779131   -0.462908   -2.292120
     43          1           0        4.225340    0.074719   -0.464000
     44          1           0        1.327887    1.506533    2.174860
     45          1           0        2.488577    1.522715    4.332560
     46          1           0        4.089400   -0.276501    4.913830
     47          1           0        4.513944   -2.112651    3.302220
     48          1           0        3.363274   -2.147753    1.137230
     49         45           0       -0.777357   -1.575691    0.030990
     50          6           0       -0.171273   -3.765030   -0.263620
     51          6           0       -0.165133   -3.468730    1.083210
     52          6           0       -2.837856   -2.376015    0.624460
     53          6           0       -2.716486   -2.406905   -0.748810
     54          6           0       -1.266571   -4.517232   -0.996620
     55          1           0        0.779847   -3.704578   -0.780240
     56          1           0        0.790896   -3.218478    1.532110
     57          6           0       -1.256243   -3.766602    2.081960
     58          6           0       -2.692103   -3.569145    1.549860
     59          1           0       -3.326457   -1.509716    1.057190
     60          6           0       -2.354193   -3.600924   -1.597820
     61          1           0       -3.141547   -1.578106   -1.305390
     62          1           0       -0.811490   -5.088831   -1.807210
     63          1           0       -1.715270   -5.252693   -0.329150
     64          1           0       -1.138021   -4.790682    2.457950
     65          1           0       -1.101054   -3.115612    2.945070
     66          1           0       -3.036991   -4.470266    1.043290
     67          1           0       -3.359404   -3.430786    2.402100
     68          1           0       -2.011844   -3.225584   -2.564630
     69          1           0       -3.257182   -4.187156   -1.809890
     70          6           0        1.205265    2.480763   -0.451730
     71          6           0        1.699691    4.518154    0.438280
     72          1           0        2.100060    4.802695    1.412040
     73          1           0        0.947949    5.266822    0.168580
     74          6           0        2.819321    4.450136   -0.622890
     75          1           0        3.786911    4.208988   -0.185630
     76          1           0        2.905479    5.369716   -1.196600
     77          7           0        1.014923    3.232292    0.546800
     78         16           0        2.328104    3.069685   -1.742630
 ---------------------------------------------------------------------

 SCF Done:  E(RB3LYP) =  -2640.73854210     A.U. after   17 cycles

      1  P    Isotropic =   287.7988   Anisotropy =    54.3784

      2  P    Isotropic =   282.9505   Anisotropy =    78.3850

      3  C    Isotropic =   111.9856   Anisotropy =    47.8826

      4  C    Isotropic =    44.5978   Anisotropy =   170.1363

      5  C    Isotropic =    47.2930   Anisotropy =   186.9521

      6  C    Isotropic =    48.2614   Anisotropy =   191.4468

      7  C    Isotropic =    46.3649   Anisotropy =   196.3859

      8  C    Isotropic =    48.9442   Anisotropy =   190.1400

      9  C    Isotropic =    49.8538   Anisotropy =   185.0224

     10  C    Isotropic =    46.1629   Anisotropy =   165.9393

     11  C    Isotropic =    40.3949   Anisotropy =   181.5178

     12  C    Isotropic =    50.9145   Anisotropy =   184.9573

     13  C    Isotropic =    44.9803   Anisotropy =   197.7795

     14  C    Isotropic =    49.9462   Anisotropy =   187.2149

     15  C    Isotropic =    41.0121   Anisotropy =   197.0025

     16  C    Isotropic =    44.2792   Anisotropy =   173.3643

     17  C    Isotropic =    44.1939   Anisotropy =   179.5699

     18  C    Isotropic =    48.8660   Anisotropy =   188.1751

     19  C    Isotropic =    44.4556   Anisotropy =   198.6266

     20  C    Isotropic =    48.9006   Anisotropy =   189.3801

     21  C    Isotropic =    44.3664   Anisotropy =   194.6914

     22  C    Isotropic =    47.0409   Anisotropy =   158.0137

     23  C    Isotropic =    45.1382   Anisotropy =   199.3441

     24  C    Isotropic =    49.6155   Anisotropy =   190.1708

     25  C    Isotropic =    46.6510   Anisotropy =   196.3927

     26  C    Isotropic =    49.2772   Anisotropy =   189.9075

     27  C    Isotropic =    47.7006   Anisotropy =   188.2028

     28  H    Isotropic =    26.8744   Anisotropy =     4.6905

     29  H    Isotropic =    24.8905   Anisotropy =    11.1822

     30  H    Isotropic =    24.2214   Anisotropy =     6.5497

     31  H    Isotropic =    24.0742   Anisotropy =     3.3790

     32  H    Isotropic =    24.1347   Anisotropy =     6.8637

     33  H    Isotropic =    24.3118   Anisotropy =    10.5265

     34  H    Isotropic =    23.0940   Anisotropy =     8.8953

     35  H    Isotropic =    24.2089   Anisotropy =     6.9201

     36  H    Isotropic =    24.0002   Anisotropy =     3.6207

     37  H    Isotropic =    24.3516   Anisotropy =     6.2144

     38  H    Isotropic =    24.8177   Anisotropy =    11.7583

     39  H    Isotropic =    23.4455   Anisotropy =    10.0610

     40  H    Isotropic =    24.0166   Anisotropy =     7.0199

     41  H    Isotropic =    23.9433   Anisotropy =     3.7192

     42  H    Isotropic =    24.2276   Anisotropy =     6.3704

     43  H    Isotropic =    24.3830   Anisotropy =    11.4354

     44  H    Isotropic =    23.8891   Anisotropy =     7.1052

     45  H    Isotropic =    24.4430   Anisotropy =     7.5548

     46  H    Isotropic =    24.1021   Anisotropy =     3.7384

     47  H    Isotropic =    24.2299   Anisotropy =     6.0808

     48  H    Isotropic =    24.7476   Anisotropy =    11.2365

     49  Rh   Isotropic =  -304.2004   Anisotropy =   336.8972

     50  C    Isotropic =    79.2889   Anisotropy =   120.7283

     51  C    Isotropic =    73.5576   Anisotropy =   121.2247

     52  C    Isotropic =    80.3414   Anisotropy =   120.8489

     53  C    Isotropic =    72.3565   Anisotropy =   123.6262

     54  C    Isotropic =   153.9799   Anisotropy =    24.7565

     55  H    Isotropic =    26.9169   Anisotropy =     5.6796

     56  H    Isotropic =    26.6528   Anisotropy =     4.2252

     57  C    Isotropic =   147.9248   Anisotropy =    28.7810

     58  C    Isotropic =   153.9343   Anisotropy =    24.9479

     59  H    Isotropic =    26.8630   Anisotropy =     5.6496

     60  C    Isotropic =   147.9236   Anisotropy =    29.4551

     61  H    Isotropic =    26.4445   Anisotropy =     5.0860

     62  H    Isotropic =    29.7540   Anisotropy =    11.5093

     63  H    Isotropic =    29.6975   Anisotropy =     9.7840

     64  H    Isotropic =    29.1932   Anisotropy =    12.6215

     65  H    Isotropic =    29.2661   Anisotropy =     7.0759

     66  H    Isotropic =    29.6985   Anisotropy =     9.9898

     67  H    Isotropic =    29.8251   Anisotropy =    11.3288

     68  H    Isotropic =    29.0775   Anisotropy =     7.2458

     69  H    Isotropic =    29.1312   Anisotropy =    12.6912

     70  C    Isotropic =    12.9256   Anisotropy =    83.9566

     71  C    Isotropic =   115.4712   Anisotropy =    73.7521

     72  H    Isotropic =    27.4570   Anisotropy =     6.1524

     73  H    Isotropic =    27.9309   Anisotropy =     7.5277

     74  C    Isotropic =   142.4027   Anisotropy =    48.2482

     75  H    Isotropic =    28.9213   Anisotropy =    10.1748

     76  H    Isotropic =    28.7436   Anisotropy =    11.2887

     77  N    Isotropic =  -100.3558   Anisotropy =   409.6952

     78  S    Isotropic =   296.6479   Anisotropy =   581.0298

 The electronic state is 1-A.
 Alpha  occ. eigenvalues --  -88.98835 -77.24313 -77.23986 -14.40891 -10.34760
 Alpha  occ. eigenvalues --  -10.32218 -10.30091 -10.29898 -10.29597 -10.29546
 Alpha  occ. eigenvalues --  -10.29447 -10.29034 -10.29028 -10.28993 -10.28778
 Alpha  occ. eigenvalues --  -10.28713 -10.28251 -10.28247 -10.28231 -10.28058
 Alpha  occ. eigenvalues --  -10.28052 -10.27784 -10.27615 -10.27530 -10.27483
 Alpha  occ. eigenvalues --  -10.27465 -10.27453 -10.27425 -10.27421 -10.27417
 Alpha  occ. eigenvalues --  -10.27337 -10.27301 -10.27253 -10.27213 -10.27212
 Alpha  occ. eigenvalues --  -10.27168 -10.27152 -10.27072 -10.27000 -10.26876
 Alpha  occ. eigenvalues --   -8.04219  -6.70222  -6.69914  -6.00692  -6.00341
 Alpha  occ. eigenvalues --   -5.99740  -4.86535  -4.86429  -4.86222  -4.86117
 Alpha  occ. eigenvalues --   -4.86116  -4.85817  -3.31506  -2.08397  -2.07763
 Alpha  occ. eigenvalues --   -2.04955  -1.04930  -0.96677  -0.96478  -0.95844
 Alpha  occ. eigenvalues --   -0.95696  -0.94357  -0.90734  -0.89091  -0.87930
 Alpha  occ. eigenvalues --   -0.87687  -0.87143  -0.86075  -0.85173  -0.85144
 Alpha  occ. eigenvalues --   -0.84929  -0.84757  -0.84656  -0.84519  -0.81533
 Alpha  occ. eigenvalues --   -0.80242  -0.77741  -0.75638  -0.74039  -0.71187
 Alpha  occ. eigenvalues --   -0.71067  -0.70933  -0.70745  -0.70569  -0.70467
 Alpha  occ. eigenvalues --   -0.70037  -0.69931  -0.67935  -0.66897  -0.65772
 Alpha  occ. eigenvalues --   -0.63464  -0.62548  -0.62288  -0.61936  -0.60306
 Alpha  occ. eigenvalues --   -0.59936  -0.59782  -0.57881  -0.57022  -0.56960
 Alpha  occ. eigenvalues --   -0.56460  -0.56186  -0.56015  -0.55882  -0.55747
 Alpha  occ. eigenvalues --   -0.55321  -0.55213  -0.55007  -0.54521  -0.53553
 Alpha  occ. eigenvalues --   -0.53481  -0.52758  -0.52636  -0.52584  -0.52462
 Alpha  occ. eigenvalues --   -0.52301  -0.52231  -0.52143  -0.51278  -0.50079
 Alpha  occ. eigenvalues --   -0.49847  -0.49383  -0.48780  -0.48376  -0.47933
 Alpha  occ. eigenvalues --   -0.47748  -0.47569  -0.47123  -0.46936  -0.46252
 Alpha  occ. eigenvalues --   -0.45909  -0.45808  -0.45504  -0.45046  -0.44932
 Alpha  occ. eigenvalues --   -0.44669  -0.44521  -0.43562  -0.43323  -0.43219
 Alpha  occ. eigenvalues --   -0.43108  -0.43035  -0.42710  -0.41377  -0.40813
 Alpha  occ. eigenvalues --   -0.38122  -0.37625  -0.37284  -0.36544  -0.36136
 Alpha  occ. eigenvalues --   -0.36030  -0.35901  -0.35658  -0.35275  -0.35093
 Alpha  occ. eigenvalues --   -0.34869  -0.34353  -0.33976  -0.33579  -0.32573
 Alpha  occ. eigenvalues --   -0.30658
 Alpha virt. eigenvalues --   -0.16294  -0.14879  -0.14016  -0.13458  -0.12480
 Alpha virt. eigenvalues --   -0.12126  -0.11715  -0.11534  -0.10794  -0.10176
 Alpha virt. eigenvalues --   -0.09726  -0.09308  -0.09145  -0.07360  -0.06267

 Mulliken charges:
               1
     1  P    0.441923
     2  P    0.437496
     3  C   -0.537439
     4  C   -0.173773
     5  C   -0.109817
     6  C   -0.092309
     7  C   -0.087057
     8  C   -0.119010
     9  C   -0.030430
    10  C   -0.265683
    11  C   -0.033273
    12  C   -0.101469
    13  C   -0.095146
    14  C   -0.094649
    15  C    0.008580
    16  C   -0.263942
    17  C   -0.086132
    18  C   -0.101822
    19  C   -0.085743
    20  C   -0.091375
    21  C   -0.039827
    22  C   -0.070725
    23  C   -0.102875
    24  C   -0.135184
    25  C   -0.096692
    26  C   -0.085625
    27  C   -0.153923
    28  H    0.240120
    29  H    0.163307
    30  H    0.133129
    31  H    0.139175
    32  H    0.134120
    33  H    0.116677
    34  H    0.184600
    35  H    0.128986
    36  H    0.134861
    37  H    0.132070
    38  H    0.140947
    39  H    0.186147
    40  H    0.130649
    41  H    0.138951
    42  H    0.134395
    43  H    0.155381
    44  H    0.214039
    45  H    0.130824
    46  H    0.135333
    47  H    0.134515
    48  H    0.167523
    49  Rh  -0.723558
    50  C   -0.051085
    51  C   -0.090773
    52  C   -0.036168
    53  C   -0.090811
    54  C   -0.348290
    55  H    0.207047
    56  H    0.206296
    57  C   -0.232362
    58  C   -0.358279
    59  H    0.189237
    60  C   -0.224968
    61  H    0.206891
    62  H    0.168598
    63  H    0.167451
    64  H    0.172516
    65  H    0.137036
    66  H    0.168369
    67  H    0.170216
    68  H    0.132256
    69  H    0.172596
    70  C   -0.055797
    71  C   -0.239603
    72  H    0.155508
    73  H    0.158691
    74  C   -0.290538
    75  H    0.181793
    76  H    0.173773
    77  N   -0.052634
    78  S    0.016761
 Sum of Mulliken charges =   1.00000

 Dipole moment (field-independent basis, Debye):
    X=              0.0950    Y=             -0.0062    Z=              0.0945  Tot=              0.1341
 Quadrupole moment (field-independent basis, Debye-Ang):
   XX=           -219.8893   YY=           -217.4195   ZZ=           -231.8701
   XY=              2.2246   XZ=              2.6428   YZ=              2.1269

 Summary of Natural Population Analysis:

                                       Natural Population
                Natural  -----------------------------------------------
    Atom  No    Charge         Core      Valence    Rydberg      Total
 -----------------------------------------------------------------------
      P    1    1.14400      9.99637     3.80666    0.05297    13.85600
      P    2    1.15268      9.99633     3.79893    0.05205    13.84732
      C    3   -0.80322      1.99922     4.77586    0.02814     6.80322
      C    4   -0.34168      1.99899     4.31970    0.02299     6.34168
      C    5   -0.19689      1.99909     4.18254    0.01526     6.19689
      C    6   -0.18925      1.99920     4.17551    0.01455     6.18925
      C    7   -0.18063      1.99920     4.16685    0.01457     6.18063
      C    8   -0.18806      1.99920     4.17426    0.01460     6.18806
      C    9   -0.19924      1.99909     4.18475    0.01541     6.19924
      C   10   -0.34731      1.99897     4.32344    0.02490     6.34731
      C   11   -0.18147      1.99909     4.16717    0.01521     6.18147
      C   12   -0.20301      1.99919     4.18921    0.01461     6.20301
      C   13   -0.17254      1.99921     4.15882    0.01452     6.17254
      C   14   -0.19588      1.99919     4.18187    0.01482     6.19588
      C   15   -0.16425      1.99909     4.14821    0.01695     6.16425
      C   16   -0.35722      1.99899     4.33452    0.02371     6.35722
      C   17   -0.19191      1.99909     4.17749    0.01533     6.19191
      C   18   -0.19656      1.99920     4.18275    0.01461     6.19656
      C   19   -0.17240      1.99921     4.15872    0.01447     6.17240
      C   20   -0.19087      1.99920     4.17717    0.01450     6.19087
      C   21   -0.17915      1.99909     4.16395    0.01611     6.17915
      C   22   -0.35302      1.99899     4.33016    0.02388     6.35302
      C   23   -0.19839      1.99909     4.18239    0.01691     6.19839
      C   24   -0.19269      1.99920     4.17817    0.01532     6.19269
      C   25   -0.18126      1.99920     4.16724    0.01482     6.18126
      C   26   -0.19433      1.99919     4.18037    0.01477     6.19433
      C   27   -0.20137      1.99910     4.18713    0.01515     6.20137
      H   28    0.27276      0.00000     0.72437    0.00287     0.72724
      H   29    0.21545      0.00000     0.78265    0.00190     0.78455
      H   30    0.22293      0.00000     0.77585    0.00122     0.77707
      H   31    0.22337      0.00000     0.77546    0.00117     0.77663
      H   32    0.22290      0.00000     0.77587    0.00122     0.77710
      H   33    0.21286      0.00000     0.78469    0.00245     0.78714
      H   34    0.22229      0.00000     0.77547    0.00223     0.77771
      H   35    0.21964      0.00000     0.77910    0.00126     0.78036
      H   36    0.22097      0.00000     0.77785    0.00118     0.77903
      H   37    0.22112      0.00000     0.77762    0.00127     0.77888
      H   38    0.22029      0.00000     0.77732    0.00239     0.77971
      H   39    0.22055      0.00000     0.77755    0.00190     0.77945
      H   40    0.22140      0.00000     0.77737    0.00123     0.77860
      H   41    0.22292      0.00000     0.77591    0.00117     0.77708
      H   42    0.22295      0.00000     0.77582    0.00123     0.77705
      H   43    0.22415      0.00000     0.77395    0.00190     0.77585
      H   44    0.24053      0.00000     0.75637    0.00310     0.75947
      H   45    0.22037      0.00000     0.77825    0.00138     0.77963
      H   46    0.22176      0.00000     0.77710    0.00114     0.77824
      H   47    0.22229      0.00000     0.77649    0.00122     0.77771
      H   48    0.21870      0.00000     0.77951    0.00180     0.78130
     Rh   49   -0.40122     35.98558     9.38721    0.02842    45.40122
      C   50   -0.17869      1.99906     4.16016    0.01947     6.17869
      C   51   -0.15439      1.99907     4.13562    0.01970     6.15439
      C   52   -0.17740      1.99906     4.15882    0.01952     6.17740
      C   53   -0.15684      1.99907     4.13796    0.01981     6.15684
      C   54   -0.42362      1.99936     4.41245    0.01181     6.42362
      H   55    0.22705      0.00000     0.77079    0.00216     0.77295
      H   56    0.22923      0.00000     0.76866    0.00211     0.77077
      C   57   -0.41836      1.99935     4.40643    0.01258     6.41836
      C   58   -0.42372      1.99936     4.41251    0.01184     6.42372
      H   59    0.22613      0.00000     0.77194    0.00193     0.77387
      C   60   -0.41842      1.99935     4.40644    0.01264     6.41842
      H   61    0.23106      0.00000     0.76664    0.00230     0.76894
      H   62    0.22795      0.00000     0.77054    0.00151     0.77205
      H   63    0.21494      0.00000     0.78305    0.00201     0.78506
      H   64    0.23438      0.00000     0.76371    0.00191     0.76562
      H   65    0.21605      0.00000     0.78242    0.00153     0.78395
      H   66    0.21486      0.00000     0.78315    0.00199     0.78514
      H   67    0.22880      0.00000     0.76972    0.00147     0.77120
      H   68    0.21653      0.00000     0.78196    0.00151     0.78347
      H   69    0.23400      0.00000     0.76409    0.00191     0.76600
      C   70    0.11162      1.99910     3.85022    0.03906     5.88838
      C   71   -0.25083      1.99938     4.23590    0.01555     6.25083
      H   72    0.21881      0.00000     0.77971    0.00148     0.78119
      H   73    0.20860      0.00000     0.78934    0.00206     0.79140
      C   74   -0.51042      1.99936     4.49932    0.01174     6.51042
      H   75    0.21610      0.00000     0.78222    0.00168     0.78390
      H   76    0.23567      0.00000     0.76306    0.00127     0.76433
      N   77   -0.41121      1.99928     5.39241    0.01953     7.41121
      S   78    0.19906      9.99917     5.77540    0.02637    15.80094
 =======================================================================
   * Total *    1.00000    139.94654   209.19025    0.86322   350.00000

 Normal termination of Gaussian 16 at Wed Jan 22 03:40:28 2025.
