 Gaussian 16, Revision B.01,
 Gaussian 16:  ES64L-G16RevB.01 20-Dec-2017

 ------------------------------------------
 # nmr=giao b3lyp/genecp pop=nbo scfcyc=200
 ------------------------------------------

 ---------
 MS-11_SPE
 ---------
 Symbolic Z-matrix:
 Charge =  1 Multiplicity = 1

                         Standard orientation:
 ---------------------------------------------------------------------
 Center     Atomic      Atomic             Coordinates (Angstroms)
 Number     Number       Type             X           Y           Z
 ---------------------------------------------------------------------
      1         15           0       -1.252889    0.966350   -0.377261
      2          6           0       -2.780509    0.577491   -1.347901
      3          6           0       -2.930560   -0.685569   -1.932141
      4          6           0       -4.083320   -1.003979   -2.639171
      5          6           0       -5.110550   -0.071258   -2.755301
      6          6           0       -4.980449    1.177181   -2.158071
      7          6           0       -3.822379    1.501251   -1.457011
      8          1           0       -3.738649    2.472731   -0.990261
      9          1           0       -5.780849    1.902352   -2.235241
     10          1           0       -6.011360   -0.321238   -3.301271
     11          1           0       -4.184950   -1.982249   -3.092381
     12          1           0       -2.150030   -1.429469   -1.826031
     13          6           0        0.208731    1.067250   -1.586421
     14         15           0        1.359780   -0.007421   -0.518551
     15          6           0        2.210270   -1.241731   -1.596121
     16          6           0        3.568310   -1.156341   -1.914591
     17          6           0        4.162080   -2.125141   -2.718391
     18          6           0        3.410749   -3.184561   -3.213341
     19          6           0        2.059529   -3.282371   -2.893341
     20          6           0        1.465640   -2.323921   -2.082121
     21          1           0        0.420120   -2.424190   -1.816521
     22          1           0        1.470879   -4.110551   -3.267811
     23          1           0        3.876299   -3.935501   -3.838991
     24          1           0        5.216070   -2.049412   -2.954561
     25          1           0        4.170880   -0.343171   -1.534801
     26          6           0        2.664611    1.163959    0.050279
     27          6           0        3.270431    2.056629   -0.842671
     28          6           0        4.252111    2.935369   -0.401341
     29          6           0        4.639231    2.935478    0.936389
     30          6           0        4.039291    2.056869    1.830629
     31          6           0        3.054501    1.177289    1.390639
     32          1           0        2.581221    0.509699    2.097609
     33          1           0        4.332511    2.057648    2.872899
     34          1           0        5.404112    3.620948    1.278829
     35          1           0        4.715602    3.619038   -1.101541
     36          1           0        2.986031    2.067809   -1.888191
     37          1           0        0.590051    2.086750   -1.549701
     38         45           0       -0.313650   -0.723390    0.975919
     39          6           0       -1.834320   -1.061870    2.651909
     40          6           0       -2.264210   -1.734819    1.529059
     41          6           0        0.442059   -2.832680    1.462999
     42          6           0        0.935470   -1.958840    2.406939
     43          6           0       -1.165810   -1.692030    3.859119
     44          1           0       -2.240640   -0.069689    2.811749
     45          1           0       -3.003930   -1.242829    0.907759
     46          6           0       -2.086681   -3.204169    1.238249
     47          6           0       -0.721991   -3.784920    1.664689
     48          1           0        1.090029   -3.059480    0.624479
     49          6           0        0.376380   -1.701280    3.784129
     50          1           0        1.950760   -1.606071    2.258069
     51          1           0       -1.463810   -1.135020    4.748859
     52          1           0       -1.544420   -2.704150    4.000119
     53          1           0       -2.895791   -3.772169    1.714409
     54          1           0       -2.218731   -3.348619    0.163879
     55          1           0       -0.754491   -4.103390    2.706399
     56          1           0       -0.532461   -4.688100    1.082169
     57          1           0        0.755420   -0.734490    4.123539
     58          1           0        0.776150   -2.440230    4.489669
     59          7           0       -1.398899    2.540130    0.246039
     60          6           0       -1.370788    3.733570   -0.617791
     61          1           0       -2.346388    4.231971   -0.575251
     62          1           0       -1.247219    3.410240   -1.652511
     63          6           0       -1.843209    2.737100    1.638949
     64          1           0       -2.383948    3.686241    1.672119
     65          1           0       -2.579599    1.971931    1.899709
     66          6           0       -0.278488    4.740080   -0.261501
     67          1           0        0.712452    4.284260   -0.297711
     68          1           0       -0.301688    5.574510   -0.965921
     69          1           0       -0.423428    5.152260    0.737869
     70          6           0       -0.718999    2.742430    2.671309
     71          1           0       -1.128039    2.896300    3.673049
     72          1           0       -0.185469    1.789250    2.662549
     73          1           0        0.002762    3.534470    2.472219
     74          6           0       -0.008709    0.662680   -3.039991
     75          1           0       -0.738089    1.323190   -3.512081
     76          1           0        0.926811    0.738760   -3.596861
     77          1           0       -0.371540   -0.357510   -3.150281
 ---------------------------------------------------------------------

 SCF Done:  E(RB3LYP) =  -2092.48154512     A.U. after   16 cycles

      1  P    Isotropic =   260.6986   Anisotropy =   144.7718

      2  C    Isotropic =    44.2091   Anisotropy =   152.7013

      3  C    Isotropic =    47.6425   Anisotropy =   185.2954

      4  C    Isotropic =    49.2806   Anisotropy =   188.7019

      5  C    Isotropic =    46.1098   Anisotropy =   195.9108

      6  C    Isotropic =    48.7371   Anisotropy =   189.7935

      7  C    Isotropic =    48.3024   Anisotropy =   187.6473

      8  H    Isotropic =    24.4991   Anisotropy =    11.4847

      9  H    Isotropic =    24.1340   Anisotropy =     6.1409

     10  H    Isotropic =    24.0249   Anisotropy =     4.1144

     11  H    Isotropic =    23.9371   Anisotropy =     7.3131

     12  H    Isotropic =    23.8107   Anisotropy =     9.2906

     13  C    Isotropic =   113.8417   Anisotropy =    53.3758

     14  P    Isotropic =   307.7726   Anisotropy =    96.4271

     15  C    Isotropic =    48.9567   Anisotropy =   166.3526

     16  C    Isotropic =    45.3327   Anisotropy =   192.6605

     17  C    Isotropic =    48.5702   Anisotropy =   189.3276

     18  C    Isotropic =    45.9192   Anisotropy =   196.2091

     19  C    Isotropic =    49.8268   Anisotropy =   186.3994

     20  C    Isotropic =    44.5870   Anisotropy =   182.4653

     21  H    Isotropic =    23.6189   Anisotropy =     9.7967

     22  H    Isotropic =    23.9875   Anisotropy =     7.3561

     23  H    Isotropic =    24.0809   Anisotropy =     4.0999

     24  H    Isotropic =    24.2861   Anisotropy =     6.6884

     25  H    Isotropic =    24.7535   Anisotropy =    13.3425

     26  C    Isotropic =    44.0207   Anisotropy =   175.5259

     27  C    Isotropic =    46.4254   Anisotropy =   187.2958

     28  C    Isotropic =    48.1855   Anisotropy =   190.8680

     29  C    Isotropic =    45.0308   Anisotropy =   198.9210

     30  C    Isotropic =    48.4544   Anisotropy =   189.7786

     31  C    Isotropic =    42.8625   Anisotropy =   182.2265

     32  H    Isotropic =    23.6724   Anisotropy =     9.9354

     33  H    Isotropic =    23.9512   Anisotropy =     6.7237

     34  H    Isotropic =    23.8760   Anisotropy =     3.5488

     35  H    Isotropic =    23.9271   Anisotropy =     5.7715

     36  H    Isotropic =    24.2317   Anisotropy =    11.3464

     37  H    Isotropic =    27.7474   Anisotropy =     3.6238

     38  Rh   Isotropic =  -313.9410   Anisotropy =   351.2550

     39  C    Isotropic =    78.1845   Anisotropy =   121.5977

     40  C    Isotropic =    72.4621   Anisotropy =   123.6290

     41  C    Isotropic =    72.0696   Anisotropy =   131.6289

     42  C    Isotropic =    78.8078   Anisotropy =   113.2759

     43  C    Isotropic =   154.2309   Anisotropy =    24.7368

     44  H    Isotropic =    27.0888   Anisotropy =     6.0599

     45  H    Isotropic =    26.9131   Anisotropy =     3.3887

     46  C    Isotropic =   147.9794   Anisotropy =    28.1750

     47  C    Isotropic =   153.7346   Anisotropy =    25.7232

     48  H    Isotropic =    26.9924   Anisotropy =     5.0698

     49  C    Isotropic =   148.0905   Anisotropy =    28.4894

     50  H    Isotropic =    26.3882   Anisotropy =     5.0273

     51  H    Isotropic =    29.7954   Anisotropy =    11.5531

     52  H    Isotropic =    29.7172   Anisotropy =     9.6959

     53  H    Isotropic =    29.2132   Anisotropy =    12.5647

     54  H    Isotropic =    29.0365   Anisotropy =     7.3108

     55  H    Isotropic =    29.6721   Anisotropy =     9.7725

     56  H    Isotropic =    29.7984   Anisotropy =    11.1572

     57  H    Isotropic =    28.9091   Anisotropy =     7.9183

     58  H    Isotropic =    29.0158   Anisotropy =    12.8572

     59  N    Isotropic =   194.0341   Anisotropy =    28.5976

     60  C    Isotropic =   131.0587   Anisotropy =    51.5493

     61  H    Isotropic =    28.6265   Anisotropy =     9.8770

     62  H    Isotropic =    29.1252   Anisotropy =     5.8147

     63  C    Isotropic =   133.6199   Anisotropy =    55.5984

     64  H    Isotropic =    29.1149   Anisotropy =     8.9445

     65  H    Isotropic =    29.0602   Anisotropy =     5.1905

     66  C    Isotropic =   166.2138   Anisotropy =    28.2044

     67  H    Isotropic =    31.6668   Anisotropy =     8.8852

     68  H    Isotropic =    30.9970   Anisotropy =    12.4223

     69  H    Isotropic =    30.7725   Anisotropy =     6.8651

     70  C    Isotropic =   163.3459   Anisotropy =    29.4392

     71  H    Isotropic =    30.7854   Anisotropy =    11.2443

     72  H    Isotropic =    29.6140   Anisotropy =     7.7269

     73  H    Isotropic =    30.8688   Anisotropy =     5.3170

     74  C    Isotropic =   168.6410   Anisotropy =     9.5048

     75  H    Isotropic =    31.1688   Anisotropy =     8.8403

     76  H    Isotropic =    31.1060   Anisotropy =     9.2844

     77  H    Isotropic =    30.3989   Anisotropy =     4.9339

 The electronic state is 1-A.
 Alpha  occ. eigenvalues --  -77.25070 -77.23647 -14.42646 -10.30722 -10.30652
 Alpha  occ. eigenvalues --  -10.30389 -10.29795 -10.29671 -10.29162 -10.29133
 Alpha  occ. eigenvalues --  -10.29110 -10.29035 -10.28901 -10.28737 -10.28604
 Alpha  occ. eigenvalues --  -10.28440 -10.28300 -10.28122 -10.28094 -10.27966
 Alpha  occ. eigenvalues --  -10.27905 -10.27826 -10.27703 -10.27690 -10.27664
 Alpha  occ. eigenvalues --  -10.27577 -10.27540 -10.27466 -10.27441 -10.27440
 Alpha  occ. eigenvalues --  -10.27429 -10.27405 -10.27384 -10.25506 -10.25248
 Alpha  occ. eigenvalues --   -6.70724  -6.69608  -4.87069  -4.86938  -4.86640
 Alpha  occ. eigenvalues --   -4.85873  -4.85841  -4.85521  -3.31679  -2.08570
 Alpha  occ. eigenvalues --   -2.07869  -2.05165  -1.02377  -0.96983  -0.96247
 Alpha  occ. eigenvalues --   -0.96201  -0.94591  -0.90353  -0.89311  -0.88162
 Alpha  occ. eigenvalues --   -0.86921  -0.86557  -0.85644  -0.85557  -0.85277
 Alpha  occ. eigenvalues --   -0.85142  -0.85021  -0.82893  -0.80508  -0.78177
 Alpha  occ. eigenvalues --   -0.77970  -0.75409  -0.73146  -0.71735  -0.71359
 Alpha  occ. eigenvalues --   -0.71007  -0.70979  -0.70714  -0.70385  -0.69890
 Alpha  occ. eigenvalues --   -0.66832  -0.65999  -0.65723  -0.62691  -0.62627
 Alpha  occ. eigenvalues --   -0.61669  -0.61248  -0.60132  -0.59398  -0.57621
 Alpha  occ. eigenvalues --   -0.57191  -0.56584  -0.56389  -0.56323  -0.56164
 Alpha  occ. eigenvalues --   -0.55893  -0.55512  -0.55120  -0.54558  -0.54059
 Alpha  occ. eigenvalues --   -0.53838  -0.53336  -0.53075  -0.52833  -0.52687
 Alpha  occ. eigenvalues --   -0.52618  -0.52520  -0.52366  -0.51893  -0.51327
 Alpha  occ. eigenvalues --   -0.50203  -0.49004  -0.48676  -0.48381  -0.48242
 Alpha  occ. eigenvalues --   -0.47991  -0.47908  -0.47457  -0.47345  -0.47320
 Alpha  occ. eigenvalues --   -0.46432  -0.46165  -0.46146  -0.45501  -0.45448
 Alpha  occ. eigenvalues --   -0.45020  -0.44839  -0.44446  -0.43968  -0.43567
 Alpha  occ. eigenvalues --   -0.43384  -0.43191  -0.42479  -0.42318  -0.41510
 Alpha  occ. eigenvalues --   -0.38020  -0.37573  -0.36675  -0.36369  -0.35924
 Alpha  occ. eigenvalues --   -0.35916  -0.35683  -0.35227  -0.34939  -0.34875
 Alpha  occ. eigenvalues --   -0.33950  -0.33202  -0.30830
 Alpha virt. eigenvalues --   -0.16480  -0.14683  -0.13952  -0.13019  -0.12038
 Alpha virt. eigenvalues --   -0.11495  -0.11404  -0.11032  -0.09541  -0.08220
 Alpha virt. eigenvalues --   -0.07359  -0.06948  -0.06555  -0.05767  -0.04958

 Mulliken charges:
               1
     1  P    0.357640
     2  C   -0.207227
     3  C   -0.053834
     4  C   -0.113828
     5  C   -0.088884
     6  C   -0.108659
     7  C   -0.000107
     8  H    0.131028
     9  H    0.133728
    10  H    0.138027
    11  H    0.129617
    12  H    0.149973
    13  C   -0.473683
    14  P    0.275616
    15  C   -0.212484
    16  C   -0.010581
    17  C   -0.110596
    18  C   -0.082623
    19  C   -0.113549
    20  C   -0.063138
    21  H    0.175160
    22  H    0.129992
    23  H    0.139148
    24  H    0.134553
    25  H    0.170751
    26  C   -0.215415
    27  C   -0.122795
    28  C   -0.063941
    29  C   -0.099776
    30  C   -0.116238
    31  C   -0.029350
    32  H    0.135326
    33  H    0.131688
    34  H    0.140758
    35  H    0.136669
    36  H    0.150955
    37  H    0.222075
    38  Rh  -0.519918
    39  C    0.002571
    40  C   -0.113065
    41  C   -0.029064
    42  C   -0.097751
    43  C   -0.354211
    44  H    0.178513
    45  H    0.221035
    46  C   -0.239902
    47  C   -0.355023
    48  H    0.223927
    49  C   -0.229281
    50  H    0.182488
    51  H    0.170221
    52  H    0.167679
    53  H    0.173834
    54  H    0.128540
    55  H    0.169763
    56  H    0.168732
    57  H    0.136570
    58  H    0.173670
    59  N   -0.345707
    60  C   -0.169771
    61  H    0.153498
    62  H    0.151848
    63  C   -0.151581
    64  H    0.154877
    65  H    0.143223
    66  C   -0.373604
    67  H    0.137244
    68  H    0.146354
    69  H    0.135649
    70  C   -0.357752
    71  H    0.144121
    72  H    0.121733
    73  H    0.136371
    74  C   -0.321919
    75  H    0.156326
    76  H    0.154804
    77  H    0.128965
 Sum of Mulliken charges =   1.00000

 Dipole moment (field-independent basis, Debye):
    X=              0.0045    Y=              0.5546    Z=             -0.3278  Tot=              0.6443
 Quadrupole moment (field-independent basis, Debye-Ang):
   XX=           -192.9552   YY=           -198.9817   ZZ=           -209.7957
   XY=              3.1837   XZ=              0.5646   YZ=              2.1152

 Summary of Natural Population Analysis:

                                       Natural Population
                Natural  -----------------------------------------------
    Atom  No    Charge         Core      Valence    Rydberg      Total
 -----------------------------------------------------------------------
      P    1    1.33329      9.99624     3.61043    0.06004    13.66671
      C    2   -0.37129      1.99898     4.34582    0.02650     6.37129
      C    3   -0.19809      1.99909     4.18317    0.01583     6.19809
      C    4   -0.19562      1.99919     4.18166    0.01477     6.19562
      C    5   -0.18002      1.99920     4.16612    0.01470     6.18002
      C    6   -0.19068      1.99920     4.17676    0.01472     6.19068
      C    7   -0.19317      1.99910     4.17802    0.01605     6.19317
      H    8    0.21489      0.00000     0.78273    0.00239     0.78511
      H    9    0.22238      0.00000     0.77639    0.00123     0.77762
      H   10    0.22309      0.00000     0.77573    0.00117     0.77691
      H   11    0.22016      0.00000     0.77857    0.00127     0.77984
      H   12    0.21100      0.00000     0.78665    0.00235     0.78900
      C   13   -0.74975      1.99941     4.72880    0.02155     6.74975
      P   14    1.10216      9.99650     3.85065    0.05069    13.89784
      C   15   -0.34253      1.99898     4.31938    0.02417     6.34253
      C   16   -0.19068      1.99910     4.17591    0.01567     6.19068
      C   17   -0.18942      1.99920     4.17564    0.01458     6.18942
      C   18   -0.17705      1.99920     4.16321    0.01463     6.17705
      C   19   -0.19617      1.99919     4.18228    0.01470     6.19617
      C   20   -0.19729      1.99910     4.18246    0.01574     6.19729
      H   21    0.21357      0.00000     0.78431    0.00211     0.78643
      H   22    0.22060      0.00000     0.77816    0.00124     0.77940
      H   23    0.22332      0.00000     0.77551    0.00117     0.77668
      H   24    0.22318      0.00000     0.77560    0.00122     0.77682
      H   25    0.22444      0.00000     0.77374    0.00181     0.77556
      C   26   -0.34098      1.99899     4.31795    0.02404     6.34098
      C   27   -0.20313      1.99909     4.18808    0.01595     6.20313
      C   28   -0.19377      1.99919     4.17978    0.01480     6.19377
      C   29   -0.17580      1.99921     4.16206    0.01454     6.17580
      C   30   -0.19313      1.99920     4.17946    0.01447     6.19313
      C   31   -0.17812      1.99910     4.16346    0.01556     6.17812
      H   32    0.21554      0.00000     0.78236    0.00210     0.78446
      H   33    0.22230      0.00000     0.77648    0.00123     0.77770
      H   34    0.22394      0.00000     0.77489    0.00117     0.77606
      H   35    0.22359      0.00000     0.77516    0.00124     0.77641
      H   36    0.21317      0.00000     0.78455    0.00228     0.78683
      H   37    0.25241      0.00000     0.74543    0.00215     0.74759
     Rh   38   -0.40304     35.98650     9.38817    0.02836    45.40304
      C   39   -0.18586      1.99909     4.16708    0.01969     6.18586
      C   40   -0.15746      1.99910     4.13834    0.02003     6.15746
      C   41   -0.15794      1.99908     4.13902    0.01984     6.15794
      C   42   -0.18282      1.99909     4.16379    0.01994     6.18282
      C   43   -0.42253      1.99936     4.41132    0.01186     6.42253
      H   44    0.22371      0.00000     0.77420    0.00209     0.77629
      H   45    0.23259      0.00000     0.76547    0.00194     0.76741
      C   46   -0.41675      1.99935     4.40466    0.01274     6.41675
      C   47   -0.42544      1.99936     4.41410    0.01198     6.42544
      H   48    0.23075      0.00000     0.76698    0.00227     0.76925
      C   49   -0.41707      1.99935     4.40494    0.01278     6.41707
      H   50    0.22314      0.00000     0.77472    0.00214     0.77686
      H   51    0.22910      0.00000     0.76940    0.00150     0.77090
      H   52    0.21571      0.00000     0.78235    0.00195     0.78429
      H   53    0.23419      0.00000     0.76392    0.00189     0.76581
      H   54    0.21340      0.00000     0.78477    0.00183     0.78660
      H   55    0.21647      0.00000     0.78160    0.00194     0.78353
      H   56    0.22832      0.00000     0.77022    0.00146     0.77168
      H   57    0.21491      0.00000     0.78344    0.00166     0.78509
      H   58    0.23425      0.00000     0.76386    0.00189     0.76575
      N   59   -0.74519      1.99954     5.72260    0.02304     7.74519
      C   60   -0.20374      1.99937     4.18934    0.01503     6.20374
      H   61    0.18630      0.00000     0.81110    0.00260     0.81370
      H   62    0.19413      0.00000     0.80304    0.00283     0.80587
      C   63   -0.20005      1.99936     4.18599    0.01470     6.20005
      H   64    0.20181      0.00000     0.79604    0.00215     0.79819
      H   65    0.18866      0.00000     0.80874    0.00260     0.81134
      C   66   -0.60444      1.99945     4.59831    0.00668     6.60444
      H   67    0.20517      0.00000     0.79328    0.00155     0.79483
      H   68    0.21886      0.00000     0.77999    0.00115     0.78114
      H   69    0.20715      0.00000     0.79146    0.00139     0.79285
      C   70   -0.59323      1.99945     4.58713    0.00666     6.59323
      H   71    0.21331      0.00000     0.78545    0.00125     0.78669
      H   72    0.20883      0.00000     0.78956    0.00160     0.79117
      H   73    0.21059      0.00000     0.78792    0.00149     0.78941
      C   74   -0.60775      1.99940     4.59841    0.00994     6.60775
      H   75    0.22566      0.00000     0.77274    0.00161     0.77434
      H   76    0.22478      0.00000     0.77365    0.00157     0.77522
      H   77    0.21520      0.00000     0.78309    0.00171     0.78480
 =======================================================================
   * Total *    1.00000    121.95331   191.30752    0.73916   314.00000

 Normal termination of Gaussian 16 at Wed Jan 22 02:55:38 2025.
