 Gaussian 16, Revision B.01,
 Gaussian 16:  ES64L-G16RevB.01 20-Dec-2017

 ------------------------------------------
 # nmr=giao b3lyp/genecp pop=nbo scfcyc=200
 ------------------------------------------

 --------
 MS-1_SPE
 --------
 Symbolic Z-matrix:
 Charge =  1 Multiplicity = 1

                         Standard orientation:
 ---------------------------------------------------------------------
 Center     Atomic      Atomic             Coordinates (Angstroms)
 Number     Number       Type             X           Y           Z
 ---------------------------------------------------------------------
      1         15           0        0.331580    1.879371    1.127530
      2         15           0       -1.253299    0.342050   -0.568860
      3          6           0       -1.383830    1.993109    0.358180
      4          1           0       -2.138510    1.986499    1.144640
      5         45           0        0.983071   -0.091339    0.040290
      6          6           0        1.321313   -2.264649   -0.618320
      7          6           0        1.536782   -1.436169   -1.696930
      8          6           0        3.257581    0.079522    0.123540
      9          6           0        2.820322   -0.580148    1.252870
     10          1           0        0.334783   -2.707199   -0.535340
     11          6           0        2.399653   -2.904088    0.235940
     12          1           0        0.717652   -1.319809   -2.399290
     13          6           0        2.864752   -0.928768   -2.201400
     14          6           0        3.881761   -0.573617   -1.095700
     15          1           0        3.425700    1.147252    0.212670
     16          1           0        2.709821    0.007612    2.158870
     17          6           0        2.788842   -2.071598    1.477200
     18          1           0        3.278233   -3.108028   -0.375330
     19          1           0        2.039713   -3.876868    0.574710
     20          1           0        3.303922   -1.666508   -2.884520
     21          1           0        2.672481   -0.041118   -2.808050
     22          1           0        4.619631    0.112313   -1.514800
     23          1           0        4.437382   -1.459897   -0.790900
     24          1           0        3.761943   -2.407297    1.856780
     25          1           0        2.074533   -2.270308    2.279340
     26          6           0       -1.670131    3.068959   -0.707080
     27          1           0       -2.753111    3.204989   -0.767810
     28          1           0       -1.252901    4.040620   -0.436580
     29          6           0       -1.142870    2.584530   -2.068150
     30          1           0       -0.053340    2.665790   -2.105600
     31          1           0       -1.534741    3.196329   -2.882120
     32          6           0       -1.556470    1.114869   -2.241530
     33          1           0       -0.986629    0.601560   -3.014170
     34          1           0       -2.614239    1.031209   -2.494390
     35          6           0       -2.670428   -0.736941   -0.123460
     36          6           0       -2.429688   -1.843671    0.696510
     37          6           0       -3.980019   -0.463042   -0.534760
     38          6           0       -3.478707   -2.665002    1.096210
     39          1           0       -1.420288   -2.059471    1.024280
     40          6           0       -5.024578   -1.287603   -0.135630
     41          1           0       -4.199079    0.389938   -1.164420
     42          6           0       -4.775747   -2.389523    0.678410
     43          1           0       -3.281667   -3.520502    1.729860
     44          1           0       -6.033978   -1.070143   -0.461180
     45          1           0       -5.592347   -3.030813    0.984870
     46          6           0        0.024040    1.832370    2.948380
     47          1           0       -0.580299    0.960410    3.195580
     48          1           0        0.973710    1.754871    3.478490
     49          1           0       -0.493360    2.736270    3.274400
     50          6           0        1.211579    3.484721    0.888040
     51          1           0        0.650479    4.309951    1.328590
     52          1           0        2.185369    3.424042    1.375840
     53          1           0        1.371779    3.677691   -0.171500
 ---------------------------------------------------------------------

 SCF Done:  E(RB3LYP) =  -1573.67570608     A.U. after   15 cycles

      1  P    Isotropic =   338.3758   Anisotropy =    64.6236

      2  P    Isotropic =   303.3105   Anisotropy =   110.8235

      3  C    Isotropic =   113.0697   Anisotropy =    52.8591

      4  H    Isotropic =    28.6540   Anisotropy =     5.2362

      5  Rh   Isotropic =  -304.6743   Anisotropy =   366.6483

      6  C    Isotropic =    77.1882   Anisotropy =   123.4047

      7  C    Isotropic =    72.8962   Anisotropy =   121.3979

      8  C    Isotropic =    77.5831   Anisotropy =   122.9084

      9  C    Isotropic =    76.5306   Anisotropy =   116.1698

     10  H    Isotropic =    26.8055   Anisotropy =     6.7125

     11  C    Isotropic =   154.3137   Anisotropy =    24.4175

     12  H    Isotropic =    26.4477   Anisotropy =     4.5898

     13  C    Isotropic =   147.7027   Anisotropy =    29.2451

     14  C    Isotropic =   153.8118   Anisotropy =    25.1004

     15  H    Isotropic =    26.9431   Anisotropy =     7.1696

     16  H    Isotropic =    26.5557   Anisotropy =     5.3244

     17  C    Isotropic =   147.7775   Anisotropy =    29.6385

     18  H    Isotropic =    29.7384   Anisotropy =     9.1608

     19  H    Isotropic =    29.7574   Anisotropy =    11.5602

     20  H    Isotropic =    29.0861   Anisotropy =    12.3329

     21  H    Isotropic =    29.1367   Anisotropy =     7.7818

     22  H    Isotropic =    29.8227   Anisotropy =    11.4931

     23  H    Isotropic =    29.7309   Anisotropy =     9.1036

     24  H    Isotropic =    28.9905   Anisotropy =    12.3781

     25  H    Isotropic =    29.0113   Anisotropy =     8.1475

     26  C    Isotropic =   150.2912   Anisotropy =    20.2983

     27  H    Isotropic =    29.7490   Anisotropy =    12.4949

     28  H    Isotropic =    29.6204   Anisotropy =     9.0898

     29  C    Isotropic =   152.4906   Anisotropy =    22.7338

     30  H    Isotropic =    29.5662   Anisotropy =     6.4861

     31  H    Isotropic =    29.3651   Anisotropy =    12.4319

     32  C    Isotropic =   151.1922   Anisotropy =    28.1446

     33  H    Isotropic =    29.4072   Anisotropy =     7.2994

     34  H    Isotropic =    29.4649   Anisotropy =    11.3194

     35  C    Isotropic =    47.8304   Anisotropy =   170.7584

     36  C    Isotropic =    43.5167   Anisotropy =   175.6922

     37  C    Isotropic =    50.0371   Anisotropy =   184.6443

     38  C    Isotropic =    48.7469   Anisotropy =   188.5474

     39  H    Isotropic =    23.8262   Anisotropy =    10.6661

     40  C    Isotropic =    47.8063   Anisotropy =   191.2358

     41  H    Isotropic =    24.3268   Anisotropy =    12.3076

     42  C    Isotropic =    44.1334   Anisotropy =   199.4077

     43  H    Isotropic =    24.0939   Anisotropy =     6.9707

     44  H    Isotropic =    24.0663   Anisotropy =     5.8646

     45  H    Isotropic =    23.9469   Anisotropy =     4.3569

     46  C    Isotropic =   165.7009   Anisotropy =    31.3318

     47  H    Isotropic =    30.4362   Anisotropy =     7.5591

     48  H    Isotropic =    30.5935   Anisotropy =     9.6576

     49  H    Isotropic =    30.5746   Anisotropy =    11.1600

     50  C    Isotropic =   172.5042   Anisotropy =    24.5404

     51  H    Isotropic =    30.6300   Anisotropy =    11.5668

     52  H    Isotropic =    30.7589   Anisotropy =     9.3172

     53  H    Isotropic =    30.6422   Anisotropy =     7.7879

 The electronic state is 1-A.
 Alpha  occ. eigenvalues --  -77.24423 -77.23974 -10.31437 -10.30537 -10.30136
 Alpha  occ. eigenvalues --  -10.30094 -10.30051 -10.29980 -10.29924 -10.29863
 Alpha  occ. eigenvalues --  -10.29719 -10.29703 -10.29362 -10.29315 -10.29183
 Alpha  occ. eigenvalues --  -10.28396 -10.28373 -10.28372 -10.28348 -10.28308
 Alpha  occ. eigenvalues --  -10.28141 -10.28091  -6.70461  -6.70043  -4.86744
 Alpha  occ. eigenvalues --   -4.86679  -4.86356  -4.86318  -4.86251  -4.85942
 Alpha  occ. eigenvalues --   -3.32483  -2.09391  -2.08718  -2.05920  -0.97390
 Alpha  occ. eigenvalues --   -0.95402  -0.95110  -0.90141  -0.89016  -0.88867
 Alpha  occ. eigenvalues --   -0.87090  -0.86124  -0.84026  -0.82429  -0.81311
 Alpha  occ. eigenvalues --   -0.80777  -0.78728  -0.72801  -0.72169  -0.71436
 Alpha  occ. eigenvalues --   -0.70971  -0.67586  -0.66770  -0.65627  -0.63404
 Alpha  occ. eigenvalues --   -0.62943  -0.61011  -0.59766  -0.59168  -0.57905
 Alpha  occ. eigenvalues --   -0.57113  -0.56877  -0.56554  -0.55892  -0.55611
 Alpha  occ. eigenvalues --   -0.54484  -0.54063  -0.53620  -0.53496  -0.53448
 Alpha  occ. eigenvalues --   -0.53221  -0.52647  -0.52490  -0.49922  -0.49377
 Alpha  occ. eigenvalues --   -0.49037  -0.48621  -0.48246  -0.47672  -0.47258
 Alpha  occ. eigenvalues --   -0.46852  -0.46482  -0.46368  -0.45879  -0.44707
 Alpha  occ. eigenvalues --   -0.44253  -0.44020  -0.43174  -0.42722  -0.42094
 Alpha  occ. eigenvalues --   -0.37878  -0.37463  -0.36848  -0.36581  -0.36010
 Alpha  occ. eigenvalues --   -0.35622  -0.34782  -0.31743
 Alpha virt. eigenvalues --   -0.17365  -0.14924  -0.14134  -0.12437  -0.10353
 Alpha virt. eigenvalues --   -0.09648  -0.08556  -0.08324  -0.07354  -0.07298
 Alpha virt. eigenvalues --   -0.06445  -0.05776  -0.05259  -0.04959  -0.04546

 Mulliken charges:
               1
     1  P    0.339452
     2  P    0.344979
     3  C   -0.431860
     4  H    0.241569
     5  Rh  -0.527640
     6  C   -0.028908
     7  C   -0.093926
     8  C   -0.017460
     9  C   -0.081427
    10  H    0.188419
    11  C   -0.342194
    12  H    0.175554
    13  C   -0.217361
    14  C   -0.351470
    15  H    0.176279
    16  H    0.170256
    17  C   -0.224567
    18  H    0.168345
    19  H    0.171364
    20  H    0.174263
    21  H    0.131063
    22  H    0.171555
    23  H    0.167984
    24  H    0.176063
    25  H    0.131807
    26  C   -0.255744
    27  H    0.163777
    28  H    0.168509
    29  C   -0.272876
    30  H    0.139453
    31  H    0.178303
    32  C   -0.367895
    33  H    0.180662
    34  H    0.172794
    35  C   -0.146550
    36  C   -0.059518
    37  C   -0.058854
    38  C   -0.105042
    39  H    0.167769
    40  C   -0.095928
    41  H    0.134950
    42  C   -0.094692
    43  H    0.135119
    44  H    0.138526
    45  H    0.144260
    46  C   -0.432426
    47  H    0.162125
    48  H    0.162038
    49  H    0.163458
    50  C   -0.427698
    51  H    0.164818
    52  H    0.168543
    53  H    0.159982
 Sum of Mulliken charges =   1.00000

 Dipole moment (field-independent basis, Debye):
    X=             -0.4534    Y=              2.3191    Z=              0.6553  Tot=              2.4522
 Quadrupole moment (field-independent basis, Debye-Ang):
   XX=           -124.6342   YY=           -135.7315   ZZ=           -149.6286
   XY=             -0.4620   XZ=              1.5978   YZ=             -1.1872

 Summary of Natural Population Analysis:

                                       Natural Population
                Natural  -----------------------------------------------
    Atom  No    Charge         Core      Valence    Rydberg      Total
 -----------------------------------------------------------------------
      P    1    1.12320      9.99672     3.83176    0.04832    13.87680
      P    2    1.09389      9.99662     3.85997    0.04952    13.90611
      C    3   -0.74399      1.99944     4.72621    0.01834     6.74399
      H    4    0.25631      0.00000     0.74194    0.00175     0.74369
     Rh    5   -0.44919     35.98575     9.43757    0.02586    45.44919
      C    6   -0.17381      1.99905     4.15472    0.02003     6.17381
      C    7   -0.15024      1.99906     4.13095    0.02022     6.15024
      C    8   -0.16303      1.99905     4.14411    0.01987     6.16303
      C    9   -0.15872      1.99906     4.13953    0.02012     6.15872
      H   10    0.22697      0.00000     0.77083    0.00220     0.77303
      C   11   -0.42479      1.99936     4.41355    0.01188     6.42479
      H   12    0.22282      0.00000     0.77514    0.00204     0.77718
      C   13   -0.42201      1.99936     4.41016    0.01249     6.42201
      C   14   -0.42493      1.99936     4.41357    0.01200     6.42493
      H   15    0.22239      0.00000     0.77576    0.00185     0.77761
      H   16    0.22182      0.00000     0.77637    0.00182     0.77818
      C   17   -0.42179      1.99936     4.40993    0.01250     6.42179
      H   18    0.21545      0.00000     0.78261    0.00194     0.78455
      H   19    0.23006      0.00000     0.76854    0.00140     0.76994
      H   20    0.23618      0.00000     0.76204    0.00178     0.76382
      H   21    0.21852      0.00000     0.77998    0.00150     0.78148
      H   22    0.23014      0.00000     0.76847    0.00139     0.76986
      H   23    0.21576      0.00000     0.78231    0.00193     0.78424
      H   24    0.23601      0.00000     0.76219    0.00179     0.76399
      H   25    0.21914      0.00000     0.77937    0.00150     0.78086
      C   26   -0.40413      1.99940     4.39303    0.01170     6.40413
      H   27    0.21979      0.00000     0.77844    0.00177     0.78021
      H   28    0.22352      0.00000     0.77462    0.00186     0.77648
      C   29   -0.39583      1.99943     4.38688    0.00952     6.39583
      H   30    0.20411      0.00000     0.79423    0.00166     0.79589
      H   31    0.23301      0.00000     0.76559    0.00139     0.76699
      C   32   -0.66154      1.99940     4.64972    0.01242     6.66154
      H   33    0.24232      0.00000     0.75644    0.00124     0.75768
      H   34    0.23154      0.00000     0.76657    0.00189     0.76846
      C   35   -0.35107      1.99899     4.33062    0.02146     6.35107
      C   36   -0.18513      1.99910     4.17095    0.01508     6.18513
      C   37   -0.18841      1.99910     4.17365    0.01567     6.18841
      C   38   -0.19299      1.99920     4.17917    0.01462     6.19299
      H   39    0.21840      0.00000     0.77978    0.00181     0.78160
      C   40   -0.18787      1.99920     4.17404    0.01463     6.18787
      H   41    0.20779      0.00000     0.78976    0.00246     0.79221
      C   42   -0.17132      1.99921     4.15755    0.01456     6.17132
      H   43    0.22311      0.00000     0.77567    0.00122     0.77689
      H   44    0.22487      0.00000     0.77390    0.00123     0.77513
      H   45    0.22525      0.00000     0.77360    0.00115     0.77475
      C   46   -0.89582      1.99943     4.88675    0.00964     6.89582
      H   47    0.24457      0.00000     0.75431    0.00112     0.75543
      H   48    0.24141      0.00000     0.75746    0.00112     0.75859
      H   49    0.23753      0.00000     0.76062    0.00184     0.76247
      C   50   -0.90710      1.99942     4.89772    0.00996     6.90710
      H   51    0.23966      0.00000     0.75844    0.00190     0.76034
      H   52    0.24574      0.00000     0.75318    0.00108     0.75426
      H   53    0.24243      0.00000     0.75620    0.00137     0.75757
 =======================================================================
   * Total *    1.00000     95.96407   127.56650    0.46943   224.00000

 Normal termination of Gaussian 16 at Wed Jan 22 01:45:33 2025.
