 Gaussian 16, Revision B.01,
 Gaussian 16:  ES64L-G16RevB.01 20-Dec-2017

 ------------------------------------------
 # nmr=giao b3lyp/genecp pop=nbo scfcyc=200
 ------------------------------------------

 ---------
 MS-29_SPE
 ---------
 Symbolic Z-matrix:
 Charge =  1 Multiplicity = 1

                         Standard orientation:
 ---------------------------------------------------------------------
 Center     Atomic      Atomic             Coordinates (Angstroms)
 Number     Number       Type             X           Y           Z
 ---------------------------------------------------------------------
      1         15           0       -0.032909   -1.398871   -0.158870
      2         15           0       -0.019341    1.408749   -0.149600
      3          7           0        2.906460    0.003622   -2.348380
      4          6           0       -0.169548   -2.731721   -1.423940
      5          6           0       -0.906427   -3.873392   -1.083250
      6          1           0       -1.333957   -3.974582   -0.092450
      7          6           0       -1.077676   -4.899742   -2.002590
      8          1           0       -1.645865   -5.779152   -1.726490
      9          6           0       -0.518816   -4.797781   -3.274030
     10          1           0       -0.653135   -5.597541   -3.991290
     11          6           0        0.217963   -3.670451   -3.615980
     12          1           0        0.664883   -3.590750   -4.599000
     13          6           0        0.394602   -2.637640   -2.698230
     14          1           0        0.991631   -1.781560   -2.984780
     15          6           0        0.920822   -2.178450    1.208740
     16          6           0        1.960962   -3.076739    0.943680
     17          1           0        2.218613   -3.328689   -0.076870
     18          6           0        2.659543   -3.663079    1.991510
     19          1           0        3.459294   -4.361368    1.778590
     20          6           0        2.327833   -3.362349    3.310370
     21          1           0        2.870333   -3.826648    4.124380
     22          6           0        1.292022   -2.475090    3.580910
     23          1           0        1.024392   -2.247730    4.605170
     24          6           0        0.587912   -1.888380    2.534130
     25          1           0       -0.227559   -1.208401    2.744980
     26          6           0        0.913688    2.144650    1.255720
     27          6           0        0.488788    1.905730    2.564840
     28          1           0       -0.382261    1.286429    2.739070
     29          6           0        1.168678    2.470770    3.639340
     30          1           0        0.828978    2.285030    4.650570
     31          6           0        2.273437    3.283771    3.412180
     32          1           0        2.798337    3.730791    4.247160
     33          6           0        2.696947    3.534481    2.109020
     34          1           0        3.550437    4.176232    1.929590
     35          6           0        2.021368    2.971341    1.033900
     36          1           0        2.349757    3.186551    0.025300
     37          6           0       -0.101252    2.773109   -1.385930
     38          6           0        0.444128    2.677690   -2.668210
     39          1           0        0.998589    1.801210   -2.977440
     40          6           0        0.307087    3.735839   -3.563610
     41          1           0        0.740087    3.655030   -4.552740
     42          6           0       -0.372184    4.889469   -3.191680
     43          1           0       -0.475725    5.708869   -3.891680
     44          6           0       -0.912694    4.992218   -1.912400
     45          1           0       -1.435955    5.891618   -1.612930
     46          6           0       -0.780143    3.941119   -1.014840
     47          1           0       -1.191963    4.042238   -0.017280
     48          6           0        0.970020    0.002760   -0.944120
     49          1           0        0.567710    0.009440   -1.959780
     50          6           0        2.465760   -0.007889   -1.079920
     51          6           0        3.332250   -0.026218    0.010810
     52          1           0        2.939490   -0.032558    1.018440
     53          6           0        4.712560   -0.033007   -0.197450
     54          6           0        5.155990   -0.017197   -1.518850
     55          1           0        6.214310   -0.015446   -1.748720
     56          6           0        4.224340   -0.000737   -2.549260
     57          1           0        4.549070    0.012073   -3.584100
     58         45           0       -1.864300    0.010308    0.334180
     59          6           0       -3.599199   -1.442394    0.040750
     60          6           0       -3.225679   -1.455663    1.368310
     61          6           0       -3.406571    1.454866    1.190680
     62          6           0       -3.502441    1.463786   -0.185740
     63          6           0       -4.807369   -0.721535   -0.526030
     64          1           0       -3.168098   -2.201223   -0.602230
     65          1           0       -2.561368   -2.251773    1.690040
     66          6           0       -3.884179   -0.701334    2.497800
     67          6           0       -4.345751    0.727806    2.135750
     68          1           0       -2.799212    2.231177    1.644240
     69          6           0       -4.493031    0.702066   -1.030750
     70          1           0       -2.988452    2.258827   -0.714830
     71          1           0       -5.197109   -1.305785   -1.361180
     72          1           0       -5.602069   -0.695625    0.219170
     73          1           0       -4.734849   -1.278315    2.881540
     74          1           0       -3.169519   -0.647383    3.322320
     75          1           0       -5.348051    0.705055    1.708540
     76          1           0       -4.427301    1.306966    3.057050
     77          1           0       -4.084601    0.640986   -2.041580
     78          1           0       -5.422061    1.279485   -1.117970
     79          6           0        5.673730   -0.079656    0.957620
     80          1           0        5.850991   -1.114436    1.264530
     81          1           0        6.638210    0.352805    0.691000
     82          1           0        5.281220    0.454614    1.823600
 ---------------------------------------------------------------------

 SCF Done:  E(RB3LYP) =  -2358.10837838     A.U. after   16 cycles

      1  P    Isotropic =   290.5719   Anisotropy =    56.9190

      2  P    Isotropic =   289.1431   Anisotropy =    58.5863

      3  N    Isotropic =   -83.7697   Anisotropy =   503.3925

      4  C    Isotropic =    43.7285   Anisotropy =   167.5937

      5  C    Isotropic =    47.6355   Anisotropy =   184.8885

      6  H    Isotropic =    25.0169   Anisotropy =    11.3265

      7  C    Isotropic =    48.6057   Anisotropy =   190.2962

      8  H    Isotropic =    24.3151   Anisotropy =     6.8269

      9  C    Isotropic =    46.7029   Anisotropy =   195.5546

     10  H    Isotropic =    24.1301   Anisotropy =     3.6511

     11  C    Isotropic =    48.7781   Anisotropy =   189.5217

     12  H    Isotropic =    24.0382   Anisotropy =     6.8572

     13  C    Isotropic =    48.2109   Anisotropy =   188.3084

     14  H    Isotropic =    23.1802   Anisotropy =    11.4503

     15  C    Isotropic =    46.1859   Anisotropy =   171.1082

     16  C    Isotropic =    42.4798   Anisotropy =   197.1751

     17  H    Isotropic =    25.4965   Anisotropy =    10.4549

     18  C    Isotropic =    49.7794   Anisotropy =   189.1795

     19  H    Isotropic =    24.6594   Anisotropy =     6.0945

     20  C    Isotropic =    45.2993   Anisotropy =   198.0551

     21  H    Isotropic =    24.1628   Anisotropy =     3.6588

     22  C    Isotropic =    50.3199   Anisotropy =   186.3146

     23  H    Isotropic =    24.0960   Anisotropy =     7.0071

     24  C    Isotropic =    41.7559   Anisotropy =   179.7105

     25  H    Isotropic =    23.1496   Anisotropy =     9.3276

     26  C    Isotropic =    46.1970   Anisotropy =   172.2541

     27  C    Isotropic =    40.9812   Anisotropy =   178.6224

     28  H    Isotropic =    22.9383   Anisotropy =     9.7655

     29  C    Isotropic =    50.4241   Anisotropy =   185.8582

     30  H    Isotropic =    24.0463   Anisotropy =     6.9187

     31  C    Isotropic =    45.2263   Anisotropy =   198.2076

     32  H    Isotropic =    24.1284   Anisotropy =     3.6377

     33  C    Isotropic =    49.7794   Anisotropy =   188.9969

     34  H    Isotropic =    24.6526   Anisotropy =     6.1281

     35  C    Isotropic =    42.1607   Anisotropy =   197.5388

     36  H    Isotropic =    25.5085   Anisotropy =    10.1495

     37  C    Isotropic =    43.5422   Anisotropy =   168.0066

     38  C    Isotropic =    48.2591   Anisotropy =   188.6338

     39  H    Isotropic =    23.1766   Anisotropy =    11.4595

     40  C    Isotropic =    48.9122   Anisotropy =   189.2781

     41  H    Isotropic =    24.0515   Anisotropy =     6.8809

     42  C    Isotropic =    46.6997   Anisotropy =   195.5226

     43  H    Isotropic =    24.1392   Anisotropy =     3.6324

     44  C    Isotropic =    48.5478   Anisotropy =   190.4741

     45  H    Isotropic =    24.3210   Anisotropy =     6.7820

     46  C    Isotropic =    47.6289   Anisotropy =   185.7556

     47  H    Isotropic =    25.0374   Anisotropy =    11.3927

     48  C    Isotropic =   115.4458   Anisotropy =    72.5647

     49  H    Isotropic =    25.0004   Anisotropy =     7.3556

     50  C    Isotropic =    26.2421   Anisotropy =   164.6265

     51  C    Isotropic =    50.6041   Anisotropy =   168.9135

     52  H    Isotropic =    26.9748   Anisotropy =     8.4154

     53  C    Isotropic =    28.3915   Anisotropy =   223.3646

     54  C    Isotropic =    54.5832   Anisotropy =   161.2056

     55  H    Isotropic =    24.7500   Anisotropy =     5.7167

     56  C    Isotropic =    28.7084   Anisotropy =   169.9883

     57  H    Isotropic =    23.0935   Anisotropy =     5.3117

     58  Rh   Isotropic =  -299.4554   Anisotropy =   332.0482

     59  C    Isotropic =    73.9170   Anisotropy =   129.4641

     60  C    Isotropic =    79.5528   Anisotropy =   113.1444

     61  C    Isotropic =    81.8514   Anisotropy =   117.7036

     62  C    Isotropic =    70.8268   Anisotropy =   126.7988

     63  C    Isotropic =   153.9537   Anisotropy =    25.0347

     64  H    Isotropic =    26.9587   Anisotropy =     6.7656

     65  H    Isotropic =    26.1077   Anisotropy =     4.2649

     66  C    Isotropic =   147.3893   Anisotropy =    29.4081

     67  C    Isotropic =   153.7733   Anisotropy =    25.3537

     68  H    Isotropic =    26.6912   Anisotropy =     6.5805

     69  C    Isotropic =   148.0081   Anisotropy =    29.4929

     70  H    Isotropic =    26.5316   Anisotropy =     5.3746

     71  H    Isotropic =    30.0075   Anisotropy =    11.2078

     72  H    Isotropic =    29.7725   Anisotropy =     9.6474

     73  H    Isotropic =    28.8886   Anisotropy =    12.7527

     74  H    Isotropic =    28.7547   Anisotropy =     8.1275

     75  H    Isotropic =    29.6095   Anisotropy =     9.7679

     76  H    Isotropic =    29.6231   Anisotropy =    11.6265

     77  H    Isotropic =    29.3861   Anisotropy =     6.8422

     78  H    Isotropic =    29.3187   Anisotropy =    12.6135

     79  C    Isotropic =   162.8963   Anisotropy =    39.8158

     80  H    Isotropic =    30.0336   Anisotropy =     7.6791

     81  H    Isotropic =    30.0098   Anisotropy =    10.2797

     82  H    Isotropic =    30.6662   Anisotropy =     4.9612

 The electronic state is 1-A.
 Alpha  occ. eigenvalues --  -77.23647 -77.23645 -14.40586 -10.31634 -10.30836
 Alpha  occ. eigenvalues --  -10.29728 -10.29379 -10.29373 -10.29195 -10.29170
 Alpha  occ. eigenvalues --  -10.29118 -10.28869 -10.28786 -10.28678 -10.28621
 Alpha  occ. eigenvalues --  -10.28314 -10.28306 -10.28124 -10.28116 -10.27897
 Alpha  occ. eigenvalues --  -10.27861 -10.27656 -10.27653 -10.27614 -10.27590
 Alpha  occ. eigenvalues --  -10.27545 -10.27537 -10.27455 -10.27449 -10.27442
 Alpha  occ. eigenvalues --  -10.27274 -10.27150 -10.27136 -10.27117 -10.27087
 Alpha  occ. eigenvalues --  -10.27007 -10.26978 -10.26970 -10.26948 -10.26920
 Alpha  occ. eigenvalues --  -10.26892 -10.25770  -6.69591  -6.69587  -4.85882
 Alpha  occ. eigenvalues --   -4.85878  -4.85803  -4.85799  -4.85499  -4.85495
 Alpha  occ. eigenvalues --   -3.31345  -2.08236  -2.07593  -2.04795  -1.04400
 Alpha  occ. eigenvalues --   -0.96664  -0.96469  -0.95779  -0.95735  -0.94225
 Alpha  occ. eigenvalues --   -0.91544  -0.90603  -0.88942  -0.87784  -0.87078
 Alpha  occ. eigenvalues --   -0.86552  -0.85274  -0.85166  -0.84820  -0.84740
 Alpha  occ. eigenvalues --   -0.84654  -0.84622  -0.82346  -0.80212  -0.80101
 Alpha  occ. eigenvalues --   -0.77589  -0.75442  -0.74795  -0.71672  -0.71185
 Alpha  occ. eigenvalues --   -0.70988  -0.70646  -0.70533  -0.70302  -0.70104
 Alpha  occ. eigenvalues --   -0.69972  -0.69095  -0.66817  -0.65655  -0.65508
 Alpha  occ. eigenvalues --   -0.62437  -0.62176  -0.61979  -0.61714  -0.60059
 Alpha  occ. eigenvalues --   -0.59790  -0.59463  -0.58884  -0.56887  -0.56708
 Alpha  occ. eigenvalues --   -0.56129  -0.56043  -0.56025  -0.55778  -0.55432
 Alpha  occ. eigenvalues --   -0.55297  -0.55176  -0.54531  -0.54360  -0.53522
 Alpha  occ. eigenvalues --   -0.53402  -0.52858  -0.52694  -0.52622  -0.52387
 Alpha  occ. eigenvalues --   -0.52365  -0.52257  -0.52031  -0.51834  -0.51183
 Alpha  occ. eigenvalues --   -0.49958  -0.49709  -0.48989  -0.48628  -0.47931
 Alpha  occ. eigenvalues --   -0.47888  -0.47859  -0.47445  -0.47243  -0.46979
 Alpha  occ. eigenvalues --   -0.46924  -0.46030  -0.45790  -0.45689  -0.45324
 Alpha  occ. eigenvalues --   -0.45124  -0.44937  -0.44763  -0.44498  -0.43789
 Alpha  occ. eigenvalues --   -0.43349  -0.43215  -0.43006  -0.42866  -0.42365
 Alpha  occ. eigenvalues --   -0.41189  -0.37943  -0.37309  -0.37260  -0.36857
 Alpha  occ. eigenvalues --   -0.36342  -0.36218  -0.35976  -0.35917  -0.35427
 Alpha  occ. eigenvalues --   -0.35351  -0.35126  -0.34871  -0.34558  -0.34252
 Alpha  occ. eigenvalues --   -0.34131  -0.33628  -0.30524
 Alpha virt. eigenvalues --   -0.16097  -0.14726  -0.13845  -0.13660  -0.12325
 Alpha virt. eigenvalues --   -0.12252  -0.11722  -0.11641  -0.11352  -0.10849
 Alpha virt. eigenvalues --   -0.10523  -0.09808  -0.09039  -0.07572  -0.06291

 Mulliken charges:
               1
     1  P    0.379233
     2  P    0.400836
     3  N   -0.079588
     4  C   -0.175808
     5  C   -0.106965
     6  H    0.160216
     7  C   -0.099582
     8  H    0.131039
     9  C   -0.081645
    10  H    0.137394
    11  C   -0.129394
    12  H    0.131403
    13  C   -0.041287
    14  H    0.168513
    15  C   -0.318682
    16  C    0.033587
    17  H    0.153247
    18  C   -0.109102
    19  H    0.134063
    20  C   -0.080683
    21  H    0.138589
    22  C   -0.130448
    23  H    0.127668
    24  C    0.005959
    25  H    0.146990
    26  C   -0.332254
    27  C   -0.009579
    28  H    0.167894
    29  C   -0.126413
    30  H    0.128075
    31  C   -0.086181
    32  H    0.138259
    33  C   -0.098940
    34  H    0.134559
    35  C    0.023871
    36  H    0.152652
    37  C   -0.180325
    38  C   -0.048069
    39  H    0.167555
    40  C   -0.129391
    41  H    0.131496
    42  C   -0.084336
    43  H    0.137381
    44  C   -0.095507
    45  H    0.131400
    46  C   -0.097531
    47  H    0.158829
    48  C   -0.734757
    49  H    0.287210
    50  C    0.099034
    51  C   -0.000046
    52  H    0.188726
    53  C   -0.021513
    54  C   -0.034158
    55  H    0.144306
    56  C   -0.123506
    57  H    0.116185
    58  Rh  -0.681258
    59  C   -0.030556
    60  C   -0.098171
    61  C   -0.027376
    62  C   -0.100942
    63  C   -0.350654
    64  H    0.213924
    65  H    0.191392
    66  C   -0.227438
    67  C   -0.351966
    68  H    0.183844
    69  C   -0.226912
    70  H    0.221379
    71  H    0.170206
    72  H    0.166409
    73  H    0.171782
    74  H    0.130672
    75  H    0.169392
    76  H    0.168141
    77  H    0.137607
    78  H    0.170635
    79  C   -0.452051
    80  H    0.160017
    81  H    0.146927
    82  H    0.144516
 Sum of Mulliken charges =   1.00000

 Dipole moment (field-independent basis, Debye):
    X=              0.5272    Y=             -0.0769    Z=              1.6134  Tot=              1.6991
 Quadrupole moment (field-independent basis, Debye-Ang):
   XX=           -215.0539   YY=           -228.9876   ZZ=           -235.3885
   XY=             -0.2423   XZ=              0.8951   YZ=              0.4206

 Summary of Natural Population Analysis:

                                       Natural Population
                Natural  -----------------------------------------------
    Atom  No    Charge         Core      Valence    Rydberg      Total
 -----------------------------------------------------------------------
      P    1    1.13566      9.99637     3.81669    0.05128    13.86434
      P    2    1.13485      9.99637     3.81752    0.05125    13.86515
      N    3   -0.44389      1.99944     5.42574    0.01872     7.44389
      C    4   -0.33960      1.99900     4.31741    0.02319     6.33960
      C    5   -0.19911      1.99909     4.18467    0.01534     6.19911
      H    6    0.21358      0.00000     0.78459    0.00184     0.78642
      C    7   -0.19134      1.99919     4.17756    0.01458     6.19134
      H    8    0.22188      0.00000     0.77689    0.00123     0.77812
      C    9   -0.18139      1.99920     4.16760    0.01459     6.18139
      H   10    0.22235      0.00000     0.77648    0.00118     0.77765
      C   11   -0.18802      1.99920     4.17428    0.01454     6.18802
      H   12    0.22194      0.00000     0.77684    0.00122     0.77806
      C   13   -0.20169      1.99908     4.18718    0.01543     6.20169
      H   14    0.22770      0.00000     0.76984    0.00247     0.77230
      C   15   -0.35308      1.99898     4.32988    0.02422     6.35308
      C   16   -0.17895      1.99909     4.16355    0.01631     6.17895
      H   17    0.22381      0.00000     0.77388    0.00230     0.77619
      C   18   -0.19576      1.99919     4.18160    0.01497     6.19576
      H   19    0.22251      0.00000     0.77623    0.00126     0.77749
      C   20   -0.17506      1.99921     4.16130    0.01455     6.17506
      H   21    0.22218      0.00000     0.77665    0.00117     0.77782
      C   22   -0.20037      1.99919     4.18653    0.01464     6.20037
      H   23    0.22016      0.00000     0.77858    0.00126     0.77984
      C   24   -0.18448      1.99909     4.17009    0.01530     6.18448
      H   25    0.21750      0.00000     0.78023    0.00227     0.78250
      C   26   -0.35309      1.99898     4.32989    0.02422     6.35309
      C   27   -0.18315      1.99909     4.16871    0.01536     6.18315
      H   28    0.21859      0.00000     0.77940    0.00201     0.78141
      C   29   -0.20127      1.99919     4.18744    0.01463     6.20127
      H   30    0.22000      0.00000     0.77874    0.00126     0.78000
      C   31   -0.17485      1.99921     4.16109    0.01456     6.17485
      H   32    0.22220      0.00000     0.77663    0.00117     0.77780
      C   33   -0.19633      1.99919     4.18218    0.01496     6.19633
      H   34    0.22282      0.00000     0.77592    0.00126     0.77718
      C   35   -0.17834      1.99909     4.16293    0.01633     6.17834
      H   36    0.22371      0.00000     0.77399    0.00230     0.77629
      C   37   -0.34062      1.99899     4.31856    0.02306     6.34062
      C   38   -0.20138      1.99909     4.18685    0.01544     6.20138
      H   39    0.22764      0.00000     0.76990    0.00245     0.77236
      C   40   -0.18801      1.99920     4.17426    0.01455     6.18801
      H   41    0.22188      0.00000     0.77690    0.00122     0.77812
      C   42   -0.18139      1.99920     4.16759    0.01460     6.18139
      H   43    0.22233      0.00000     0.77650    0.00118     0.77767
      C   44   -0.19113      1.99919     4.17733    0.01461     6.19113
      H   45    0.22196      0.00000     0.77680    0.00123     0.77804
      C   46   -0.20045      1.99909     4.18608    0.01528     6.20045
      H   47    0.21466      0.00000     0.78352    0.00181     0.78534
      C   48   -0.77997      1.99928     4.75504    0.02565     6.77997
      H   49    0.28092      0.00000     0.71597    0.00311     0.71908
      C   50    0.15686      1.99905     3.81431    0.02979     5.84314
      C   51   -0.23211      1.99896     4.21807    0.01508     6.23211
      H   52    0.22269      0.00000     0.77416    0.00315     0.77731
      C   53    0.03765      1.99914     3.94891    0.01430     5.96235
      C   54   -0.23774      1.99907     4.22582    0.01285     6.23774
      H   55    0.22226      0.00000     0.77640    0.00134     0.77774
      C   56    0.04663      1.99925     3.93163    0.02249     5.95337
      H   57    0.20021      0.00000     0.79828    0.00151     0.79979
     Rh   58   -0.39701     35.98562     9.38153    0.02986    45.39701
      C   59   -0.16296      1.99906     4.14462    0.01928     6.16296
      C   60   -0.16981      1.99907     4.15073    0.02000     6.16981
      C   61   -0.18322      1.99906     4.16459    0.01957     6.18322
      C   62   -0.15061      1.99907     4.13174    0.01980     6.15061
      C   63   -0.42359      1.99936     4.41242    0.01181     6.42359
      H   64    0.23113      0.00000     0.76650    0.00237     0.76887
      H   65    0.22517      0.00000     0.77287    0.00195     0.77483
      C   66   -0.41853      1.99936     4.40684    0.01233     6.41853
      C   67   -0.42286      1.99936     4.41175    0.01175     6.42286
      H   68    0.22465      0.00000     0.77335    0.00200     0.77535
      C   69   -0.41906      1.99935     4.40714    0.01256     6.41906
      H   70    0.23198      0.00000     0.76572    0.00230     0.76802
      H   71    0.22963      0.00000     0.76886    0.00150     0.77037
      H   72    0.21342      0.00000     0.78456    0.00202     0.78658
      H   73    0.23347      0.00000     0.76461    0.00193     0.76653
      H   74    0.21510      0.00000     0.78340    0.00149     0.78490
      H   75    0.21531      0.00000     0.78271    0.00197     0.78469
      H   76    0.22750      0.00000     0.77100    0.00150     0.77250
      H   77    0.22002      0.00000     0.77849    0.00150     0.77998
      H   78    0.23333      0.00000     0.76473    0.00194     0.76667
      C   79   -0.62169      1.99940     4.61487    0.00742     6.62169
      H   80    0.22939      0.00000     0.76924    0.00137     0.77061
      H   81    0.22330      0.00000     0.77552    0.00118     0.77670
      H   82    0.22137      0.00000     0.77740    0.00123     0.77863
 =======================================================================
   * Total *    1.00000    135.94468   217.18678    0.86854   354.00000

 Normal termination of Gaussian 16 at Wed Jan 22 04:27:55 2025.
