 Gaussian 16, Revision B.01,
 Gaussian 16:  ES64L-G16RevB.01 20-Dec-2017

 ------------------------------------------
 # nmr=giao b3lyp/genecp pop=nbo scfcyc=200
 ------------------------------------------

 ---------
 MS-20_SPE
 ---------
 Symbolic Z-matrix:
 Charge =  1 Multiplicity = 1

                         Standard orientation:
 ---------------------------------------------------------------------
 Center     Atomic      Atomic             Coordinates (Angstroms)
 Number     Number       Type             X           Y           Z
 ---------------------------------------------------------------------
      1         15           0        1.402220   -0.214994   -0.126190
      2         15           0       -1.417670   -0.202285   -0.153750
      3          6           0        0.005007   -1.301610   -0.782660
      4          6           0        2.775090   -0.320318   -1.349350
      5          6           0        3.949662    0.389238   -1.067480
      6          6           0        5.003652    0.391925   -1.971590
      7          6           0        4.897690   -0.308645   -3.170250
      8          6           0        3.736058   -1.015561   -3.456160
      9          6           0        2.676168   -1.021878   -2.552980
     10          6           0        2.100358   -0.900306    1.427980
     11          6           0        1.709050   -0.343705    2.648500
     12          6           0        2.227479   -0.836497    3.841290
     13          6           0        3.145665   -1.880400    3.820550
     14          6           0        3.544554   -2.433691    2.606300
     15          6           0        3.025325   -1.949169    1.413480
     16          6           0       -2.682940   -0.299181   -1.487980
     17          6           0       -2.597567    0.595058   -2.559440
     18          6           0       -3.490487    0.503821   -3.621610
     19          6           0       -4.476420   -0.477306   -3.619140
     20          6           0       -4.565213   -1.371066   -2.555810
     21          6           0       -3.672593   -1.287058   -1.493740
     22          6           0       -2.231512   -0.861343    1.356310
     23          6           0       -1.632384   -1.789795    2.210920
     24          6           0       -2.269416   -2.151463    3.395400
     25          6           0       -3.492804   -1.590489    3.741070
     26          6           0       -4.090061   -0.659807    2.894840
     27          6           0       -3.463440   -0.292769    1.711440
     28          1           0       -0.031492   -1.024510   -1.839310
     29          1           0        4.053874    0.925998   -0.131840
     30          1           0        5.908324    0.939672   -1.739540
     31          1           0        5.719540   -0.306108   -3.874900
     32          1           0        3.650366   -1.568891   -4.382890
     33          1           0        1.788996   -1.590305   -2.799350
     34          1           0        0.999343    0.474667    2.661660
     35          1           0        1.919920   -0.400176    4.783290
     36          1           0        3.556014   -2.259551    4.748160
     37          1           0        4.261961   -3.244463    2.589270
     38          1           0        3.345074   -2.383890    0.475940
     39          1           0       -1.830765    1.360426   -2.563560
     40          1           0       -3.419285    1.201311   -4.446720
     41          1           0       -5.175311   -0.545264   -4.443270
     42          1           0       -5.331086   -2.136463   -2.552800
     43          1           0       -3.753125   -1.985548   -0.671160
     44          1           0       -0.692176   -2.256238    1.952660
     45          1           0       -1.802668   -2.880214    4.046290
     46          1           0       -3.982715   -1.877897    4.662890
     47          1           0       -5.045200   -0.220724    3.154350
     48          1           0       -3.947168    0.424382    1.059010
     49         45           0       -0.002894    1.669530    0.108330
     50          6           0       -1.471108    3.399025   -0.191140
     51          6           0       -1.422699    3.072095    1.147730
     52          6           0        1.478391    3.242716    0.851530
     53          6           0        1.430691    3.278766   -0.526700
     54          6           0       -0.767035    4.577893   -0.837470
     55          1           0       -2.274380    2.959477   -0.771290
     56          1           0       -2.200601    2.417447    1.527550
     57          6           0       -0.621217    3.765202    2.221790
     58          6           0        0.787914    4.219758    1.784360
     59          1           0        2.268579    2.651193    1.301170
     60          6           0        0.639324    4.240748   -1.378610
     61          1           0        2.201530    2.737133   -1.065260
     62          1           0       -1.379154    4.934205   -1.667680
     63          1           0       -0.714132    5.405342   -0.130160
     64          1           0       -1.186615    4.625004    2.602720
     65          1           0       -0.530339    3.075362    3.063640
     66          1           0        0.742287    5.203188    1.317100
     67          1           0        1.403495    4.341136    2.677140
     68          1           0        0.543943    3.798749   -2.372740
     69          1           0        1.214187    5.164886   -1.518460
     70          6           0        0.014252   -2.790700   -0.730250
     71          8           0       -0.301539   -3.383179   -1.919900
     72          6           0        0.177846   -4.924170   -0.195540
     73          1           0       -0.547496   -5.455628    0.421980
     74          1           0        1.140504   -5.423483   -0.073940
     75          6           0       -0.261664   -4.820519   -1.676040
     76          1           0       -1.257205   -5.218796   -1.866520
     77          1           0        0.445225   -5.258741   -2.378360
     78          7           0        0.288330   -3.528531    0.261600
 ---------------------------------------------------------------------

 SCF Done:  E(RB3LYP) =  -2317.77227944     A.U. after   16 cycles

      1  P    Isotropic =   289.8572   Anisotropy =    51.1521

      2  P    Isotropic =   285.9715   Anisotropy =    80.8478

      3  C    Isotropic =   118.1891   Anisotropy =    47.6016

      4  C    Isotropic =    44.6330   Anisotropy =   170.6234

      5  C    Isotropic =    47.3300   Anisotropy =   188.1271

      6  C    Isotropic =    48.1641   Anisotropy =   191.7808

      7  C    Isotropic =    46.4053   Anisotropy =   196.4879

      8  C    Isotropic =    48.9052   Anisotropy =   189.8905

      9  C    Isotropic =    50.1608   Anisotropy =   186.0522

     10  C    Isotropic =    47.7495   Anisotropy =   165.9396

     11  C    Isotropic =    40.1339   Anisotropy =   181.8668

     12  C    Isotropic =    50.6919   Anisotropy =   185.8266

     13  C    Isotropic =    44.6150   Anisotropy =   198.2096

     14  C    Isotropic =    49.8340   Anisotropy =   187.5007

     15  C    Isotropic =    41.2542   Anisotropy =   196.5711

     16  C    Isotropic =    43.8071   Anisotropy =   175.7219

     17  C    Isotropic =    44.7430   Anisotropy =   179.4739

     18  C    Isotropic =    48.7519   Anisotropy =   188.6642

     19  C    Isotropic =    44.4535   Anisotropy =   197.4963

     20  C    Isotropic =    48.7295   Anisotropy =   189.4212

     21  C    Isotropic =    45.7405   Anisotropy =   191.9136

     22  C    Isotropic =    47.5495   Anisotropy =   157.1438

     23  C    Isotropic =    44.4972   Anisotropy =   200.9436

     24  C    Isotropic =    49.5836   Anisotropy =   190.5927

     25  C    Isotropic =    46.6365   Anisotropy =   196.4802

     26  C    Isotropic =    49.5891   Anisotropy =   189.5600

     27  C    Isotropic =    47.9166   Anisotropy =   187.7041

     28  H    Isotropic =    26.7993   Anisotropy =     4.6052

     29  H    Isotropic =    24.8894   Anisotropy =    11.3673

     30  H    Isotropic =    24.2270   Anisotropy =     6.5636

     31  H    Isotropic =    24.0717   Anisotropy =     3.3950

     32  H    Isotropic =    24.1226   Anisotropy =     6.7190

     33  H    Isotropic =    24.2149   Anisotropy =    10.8958

     34  H    Isotropic =    23.1558   Anisotropy =     8.7938

     35  H    Isotropic =    24.2128   Anisotropy =     6.8410

     36  H    Isotropic =    23.9744   Anisotropy =     3.6205

     37  H    Isotropic =    24.3064   Anisotropy =     6.1996

     38  H    Isotropic =    24.7923   Anisotropy =    11.4554

     39  H    Isotropic =    23.4821   Anisotropy =    10.1843

     40  H    Isotropic =    24.0191   Anisotropy =     7.0042

     41  H    Isotropic =    23.9760   Anisotropy =     3.7377

     42  H    Isotropic =    24.2965   Anisotropy =     6.3927

     43  H    Isotropic =    24.5931   Anisotropy =    12.0998

     44  H    Isotropic =    23.4966   Anisotropy =     6.8109

     45  H    Isotropic =    24.4654   Anisotropy =     7.4501

     46  H    Isotropic =    24.1168   Anisotropy =     3.6865

     47  H    Isotropic =    24.2571   Anisotropy =     6.0732

     48  H    Isotropic =    24.8166   Anisotropy =    11.0472

     49  Rh   Isotropic =  -305.2566   Anisotropy =   337.2536

     50  C    Isotropic =    79.0438   Anisotropy =   120.9815

     51  C    Isotropic =    73.6236   Anisotropy =   121.0280

     52  C    Isotropic =    80.8395   Anisotropy =   119.8888

     53  C    Isotropic =    72.4555   Anisotropy =   123.6297

     54  C    Isotropic =   153.9631   Anisotropy =    24.9431

     55  H    Isotropic =    26.8157   Anisotropy =     5.8585

     56  H    Isotropic =    26.5688   Anisotropy =     4.4041

     57  C    Isotropic =   147.9131   Anisotropy =    28.8221

     58  C    Isotropic =   153.9684   Anisotropy =    24.9469

     59  H    Isotropic =    26.8889   Anisotropy =     5.8229

     60  C    Isotropic =   147.8658   Anisotropy =    29.6293

     61  H    Isotropic =    26.5897   Anisotropy =     5.0199

     62  H    Isotropic =    29.7616   Anisotropy =    11.5249

     63  H    Isotropic =    29.7409   Anisotropy =     9.6655

     64  H    Isotropic =    29.1893   Anisotropy =    12.5859

     65  H    Isotropic =    29.2604   Anisotropy =     7.1308

     66  H    Isotropic =    29.7480   Anisotropy =     9.8722

     67  H    Isotropic =    29.8296   Anisotropy =    11.3533

     68  H    Isotropic =    29.0997   Anisotropy =     7.2295

     69  H    Isotropic =    29.1683   Anisotropy =    12.5809

     70  C    Isotropic =    17.5967   Anisotropy =    73.3840

     71  O    Isotropic =   123.3624   Anisotropy =   213.4834

     72  C    Isotropic =   125.3750   Anisotropy =    66.7085

     73  H    Isotropic =    28.0424   Anisotropy =     8.0492

     74  H    Isotropic =    28.0588   Anisotropy =     8.2174

     75  C    Isotropic =   114.5946   Anisotropy =    85.2583

     76  H    Isotropic =    27.9738   Anisotropy =     8.8447

     77  H    Isotropic =    27.7982   Anisotropy =     9.3430

     78  N    Isotropic =   -12.2196   Anisotropy =   308.7965

 The electronic state is 1-A.
 Alpha  occ. eigenvalues --  -77.24315 -77.24081 -19.26048 -14.39905 -10.36768
 Alpha  occ. eigenvalues --  -10.32189 -10.32051 -10.29668 -10.29651 -10.29459
 Alpha  occ. eigenvalues --  -10.29393 -10.29066 -10.29040 -10.29002 -10.28776
 Alpha  occ. eigenvalues --  -10.28760 -10.28314 -10.28275 -10.28262 -10.28099
 Alpha  occ. eigenvalues --  -10.27948 -10.27842 -10.27717 -10.27521 -10.27508
 Alpha  occ. eigenvalues --  -10.27495 -10.27449 -10.27446 -10.27426 -10.27400
 Alpha  occ. eigenvalues --  -10.27369 -10.27237 -10.27226 -10.27210 -10.27193
 Alpha  occ. eigenvalues --  -10.27113 -10.27019 -10.27009 -10.26921 -10.26855
 Alpha  occ. eigenvalues --   -6.70222  -6.70014  -4.86539  -4.86426  -4.86326
 Alpha  occ. eigenvalues --   -4.86215  -4.86113  -4.85913  -3.31541  -2.08435
 Alpha  occ. eigenvalues --   -2.07799  -2.04984  -1.18692  -1.00740  -0.96708
 Alpha  occ. eigenvalues --   -0.96495  -0.95774  -0.95709  -0.94366  -0.91260
 Alpha  occ. eigenvalues --   -0.89098  -0.87934  -0.87179  -0.86835  -0.85250
 Alpha  occ. eigenvalues --   -0.85196  -0.84894  -0.84683  -0.84590  -0.84571
 Alpha  occ. eigenvalues --   -0.82907  -0.80262  -0.77743  -0.75672  -0.74629
 Alpha  occ. eigenvalues --   -0.73520  -0.71133  -0.71054  -0.70790  -0.70511
 Alpha  occ. eigenvalues --   -0.70462  -0.70019  -0.69963  -0.68615  -0.66908
 Alpha  occ. eigenvalues --   -0.65781  -0.64304  -0.62564  -0.62352  -0.61986
 Alpha  occ. eigenvalues --   -0.61415  -0.60327  -0.59918  -0.59819  -0.59023
 Alpha  occ. eigenvalues --   -0.56994  -0.56520  -0.56214  -0.56134  -0.55943
 Alpha  occ. eigenvalues --   -0.55775  -0.55345  -0.55305  -0.55131  -0.54588
 Alpha  occ. eigenvalues --   -0.54536  -0.53553  -0.52909  -0.52767  -0.52665
 Alpha  occ. eigenvalues --   -0.52494  -0.52470  -0.52191  -0.52058  -0.51893
 Alpha  occ. eigenvalues --   -0.51279  -0.50238  -0.49696  -0.49471  -0.48636
 Alpha  occ. eigenvalues --   -0.48088  -0.47877  -0.47610  -0.47220  -0.47024
 Alpha  occ. eigenvalues --   -0.46797  -0.46079  -0.45905  -0.45786  -0.45564
 Alpha  occ. eigenvalues --   -0.45088  -0.44968  -0.44615  -0.44566  -0.43640
 Alpha  occ. eigenvalues --   -0.43343  -0.43192  -0.43153  -0.42826  -0.42717
 Alpha  occ. eigenvalues --   -0.41395  -0.38161  -0.38134  -0.37502  -0.36710
 Alpha  occ. eigenvalues --   -0.36197  -0.36056  -0.36021  -0.35654  -0.35449
 Alpha  occ. eigenvalues --   -0.35357  -0.34984  -0.34540  -0.34363  -0.34051
 Alpha  occ. eigenvalues --   -0.33635  -0.30689
 Alpha virt. eigenvalues --   -0.16274  -0.14897  -0.13788  -0.13421  -0.12482
 Alpha virt. eigenvalues --   -0.12116  -0.11584  -0.11103  -0.10795  -0.10111
 Alpha virt. eigenvalues --   -0.09162  -0.09094  -0.07427  -0.06666  -0.06127

 Mulliken charges:
               1
     1  P    0.429848
     2  P    0.415257
     3  C   -0.566009
     4  C   -0.159801
     5  C   -0.101593
     6  C   -0.089781
     7  C   -0.090339
     8  C   -0.116040
     9  C   -0.069585
    10  C   -0.296992
    11  C   -0.022262
    12  C   -0.104701
    13  C   -0.094251
    14  C   -0.092238
    15  C    0.021467
    16  C   -0.242912
    17  C   -0.081731
    18  C   -0.103113
    19  C   -0.083390
    20  C   -0.096532
    21  C   -0.049904
    22  C   -0.084551
    23  C   -0.085346
    24  C   -0.133723
    25  C   -0.095674
    26  C   -0.088914
    27  C   -0.154528
    28  H    0.265162
    29  H    0.158835
    30  H    0.134108
    31  H    0.139158
    32  H    0.133326
    33  H    0.145069
    34  H    0.180733
    35  H    0.129327
    36  H    0.135293
    37  H    0.132365
    38  H    0.136225
    39  H    0.182446
    40  H    0.130442
    41  H    0.139132
    42  H    0.134548
    43  H    0.157701
    44  H    0.208135
    45  H    0.131280
    46  H    0.134576
    47  H    0.133460
    48  H    0.165749
    49  Rh  -0.707441
    50  C   -0.049168
    51  C   -0.088770
    52  C   -0.038850
    53  C   -0.089416
    54  C   -0.346151
    55  H    0.203890
    56  H    0.200189
    57  C   -0.231623
    58  C   -0.355487
    59  H    0.187815
    60  C   -0.225025
    61  H    0.208663
    62  H    0.168378
    63  H    0.167442
    64  H    0.172419
    65  H    0.137191
    66  H    0.168164
    67  H    0.169910
    68  H    0.131688
    69  H    0.172153
    70  C    0.123649
    71  O   -0.215979
    72  C   -0.243646
    73  H    0.154926
    74  H    0.155438
    75  C   -0.094254
    76  H    0.148881
    77  H    0.148865
    78  N   -0.103587
 Sum of Mulliken charges =   1.00000

 Dipole moment (field-independent basis, Debye):
    X=             -0.0042    Y=             -0.3773    Z=             -0.7012  Tot=              0.7963
 Quadrupole moment (field-independent basis, Debye-Ang):
   XX=           -213.2439   YY=           -209.6829   ZZ=           -223.6163
   XY=              0.0248   XZ=             -0.8307   YZ=              1.8838

 Summary of Natural Population Analysis:

                                       Natural Population
                Natural  -----------------------------------------------
    Atom  No    Charge         Core      Valence    Rydberg      Total
 -----------------------------------------------------------------------
      P    1    1.14920      9.99638     3.80252    0.05191    13.85080
      P    2    1.14950      9.99637     3.80263    0.05150    13.85050
      C    3   -0.80687      1.99920     4.78247    0.02519     6.80687
      C    4   -0.34257      1.99900     4.32044    0.02313     6.34257
      C    5   -0.19708      1.99909     4.18275    0.01525     6.19708
      C    6   -0.18891      1.99920     4.17513    0.01459     6.18891
      C    7   -0.18087      1.99920     4.16705    0.01461     6.18087
      C    8   -0.18848      1.99920     4.17463    0.01465     6.18848
      C    9   -0.20062      1.99909     4.18626    0.01528     6.20062
      C   10   -0.35342      1.99897     4.32961    0.02483     6.35342
      C   11   -0.17876      1.99909     4.16439    0.01528     6.17876
      C   12   -0.20240      1.99919     4.18860    0.01460     6.20240
      C   13   -0.17115      1.99921     4.15746    0.01449     6.17115
      C   14   -0.19516      1.99919     4.18149    0.01448     6.19516
      C   15   -0.16323      1.99909     4.14803    0.01611     6.16323
      C   16   -0.35170      1.99899     4.32903    0.02369     6.35170
      C   17   -0.19197      1.99909     4.17762    0.01526     6.19197
      C   18   -0.19468      1.99920     4.18088    0.01460     6.19468
      C   19   -0.17356      1.99921     4.15986    0.01450     6.17356
      C   20   -0.19034      1.99920     4.17666    0.01449     6.19034
      C   21   -0.18350      1.99909     4.16854    0.01587     6.18350
      C   22   -0.35426      1.99898     4.33122    0.02405     6.35426
      C   23   -0.19725      1.99909     4.18216    0.01600     6.19725
      C   24   -0.19226      1.99920     4.17781    0.01525     6.19226
      C   25   -0.18126      1.99920     4.16727    0.01478     6.18126
      C   26   -0.19562      1.99919     4.18165    0.01478     6.19562
      C   27   -0.20204      1.99909     4.18775    0.01520     6.20204
      H   28    0.28199      0.00000     0.71533    0.00268     0.71801
      H   29    0.21656      0.00000     0.78160    0.00184     0.78344
      H   30    0.22315      0.00000     0.77562    0.00122     0.77685
      H   31    0.22339      0.00000     0.77544    0.00117     0.77661
      H   32    0.22230      0.00000     0.77648    0.00122     0.77770
      H   33    0.21535      0.00000     0.78266    0.00199     0.78465
      H   34    0.22243      0.00000     0.77540    0.00217     0.77757
      H   35    0.22005      0.00000     0.77870    0.00126     0.77995
      H   36    0.22118      0.00000     0.77764    0.00118     0.77882
      H   37    0.22125      0.00000     0.77751    0.00124     0.77875
      H   38    0.21975      0.00000     0.77827    0.00198     0.78025
      H   39    0.21959      0.00000     0.77850    0.00192     0.78041
      H   40    0.22136      0.00000     0.77741    0.00123     0.77864
      H   41    0.22289      0.00000     0.77593    0.00117     0.77711
      H   42    0.22263      0.00000     0.77615    0.00123     0.77737
      H   43    0.22295      0.00000     0.77519    0.00186     0.77705
      H   44    0.24815      0.00000     0.74909    0.00275     0.75185
      H   45    0.22073      0.00000     0.77790    0.00137     0.77927
      H   46    0.22142      0.00000     0.77744    0.00114     0.77858
      H   47    0.22189      0.00000     0.77688    0.00122     0.77811
      H   48    0.21691      0.00000     0.78125    0.00184     0.78309
     Rh   49   -0.40127     35.98554     9.38605    0.02968    45.40127
      C   50   -0.17693      1.99906     4.15840    0.01947     6.17693
      C   51   -0.15496      1.99907     4.13609    0.01980     6.15496
      C   52   -0.17768      1.99906     4.15909    0.01953     6.17768
      C   53   -0.15528      1.99907     4.13643    0.01978     6.15528
      C   54   -0.42375      1.99936     4.41258    0.01181     6.42375
      H   55    0.22669      0.00000     0.77111    0.00220     0.77331
      H   56    0.22899      0.00000     0.76886    0.00216     0.77101
      C   57   -0.41988      1.99935     4.40827    0.01226     6.41988
      C   58   -0.42357      1.99936     4.41244    0.01178     6.42357
      H   59    0.22556      0.00000     0.77235    0.00209     0.77444
      C   60   -0.41844      1.99935     4.40647    0.01262     6.41844
      H   61    0.23122      0.00000     0.76653    0.00226     0.76878
      H   62    0.22790      0.00000     0.77059    0.00151     0.77210
      H   63    0.21497      0.00000     0.78302    0.00201     0.78503
      H   64    0.23435      0.00000     0.76376    0.00190     0.76565
      H   65    0.21936      0.00000     0.77919    0.00145     0.78064
      H   66    0.21486      0.00000     0.78317    0.00196     0.78514
      H   67    0.22868      0.00000     0.76984    0.00148     0.77132
      H   68    0.21659      0.00000     0.78188    0.00153     0.78341
      H   69    0.23393      0.00000     0.76416    0.00191     0.76607
      C   70    0.48830      1.99909     3.47750    0.03511     5.51170
      O   71   -0.46847      1.99979     6.45586    0.01283     8.46847
      C   72   -0.27015      1.99943     4.25743    0.01329     6.27015
      H   73    0.21034      0.00000     0.78812    0.00154     0.78966
      H   74    0.20801      0.00000     0.79039    0.00160     0.79199
      C   75   -0.10260      1.99934     4.08942    0.01384     6.10260
      H   76    0.19191      0.00000     0.80656    0.00153     0.80809
      H   77    0.19397      0.00000     0.80454    0.00150     0.80603
      N   78   -0.44931      1.99930     5.43268    0.01733     7.44931
 =======================================================================
   * Total *    1.00000    131.94717   209.21707    0.83576   342.00000

 Normal termination of Gaussian 16 at Wed Jan 22 03:39:21 2025.
