 Gaussian 16, Revision B.01,
 Gaussian 16:  ES64L-G16RevB.01 20-Dec-2017

 ------------------------------------------
 # nmr=giao b3lyp/genecp pop=nbo scfcyc=200
 ------------------------------------------

 ---------
 MS-27_SPE
 ---------
 Symbolic Z-matrix:
 Charge =  1 Multiplicity = 1

                         Standard orientation:
 ---------------------------------------------------------------------
 Center     Atomic      Atomic             Coordinates (Angstroms)
 Number     Number       Type             X           Y           Z
 ---------------------------------------------------------------------
      1         15           0        1.281288    0.578220   -0.124760
      2         15           0       -1.364250   -0.364566   -0.118670
      3          7           0       -1.083886    3.008760   -2.100960
      4          6           0        2.554865    0.986481   -1.392360
      5          6           0        3.886033    0.664784   -1.097350
      6          1           0        4.146727    0.236498   -0.136450
      7          6           0        4.890859    0.913009   -2.022900
      8          1           0        5.916703    0.664006   -1.781940
      9          6           0        4.579238    1.481592   -3.255310
     10          1           0        5.362558    1.674275   -3.977390
     11          6           0        3.261550    1.807810   -3.551760
     12          1           0        3.014715    2.260826   -4.503730
     13          6           0        2.248884    1.562584   -2.627380
     14          1           0        1.234938    1.846868   -2.877160
     15          6           0        1.716509    1.649084    1.307330
     16          6           0        2.200587    2.948531    1.116980
     17          1           0        2.330815    3.342348    0.117300
     18          6           0        2.530494    3.736879    2.212090
     19          1           0        2.907168    4.740060    2.056740
     20          6           0        2.384151    3.238111    3.504160
     21          1           0        2.647767    3.853756    4.355010
     22          6           0        1.910243    1.945655    3.700380
     23          1           0        1.806064    1.551209    4.703360
     24          6           0        1.581506    1.151967    2.606070
     25          1           0        1.225492    0.141117    2.758750
     26          6           0       -2.345160    0.173940    1.342040
     27          6           0       -1.952508   -0.227118    2.621300
     28          1           0       -1.073563   -0.848260    2.740270
     29          6           0       -2.692769    0.154461    3.735920
     30          1           0       -2.384521   -0.165142    4.723490
     31          6           0       -3.833562    0.933548    3.578650
     32          1           0       -4.414328    1.225226    4.444730
     33          6           0       -4.236953    1.328316    2.305220
     34          1           0       -5.130636    1.926687    2.180010
     35          6           0       -3.500273    0.949977    1.190190
     36          1           0       -3.832299    1.249128    0.204420
     37          6           0       -2.644044   -0.827806   -1.361640
     38          6           0       -2.758058   -0.212593   -2.610320
     39          1           0       -2.122774    0.619162   -2.885420
     40          6           0       -3.724214   -0.646306   -3.515060
     41          1           0       -3.809461   -0.157411   -4.477400
     42          6           0       -4.577757   -1.692143   -3.186000
     43          1           0       -5.326908   -2.025364   -3.893000
     44          6           0       -4.472263   -2.305427   -1.940230
     45          1           0       -5.139638   -3.115344   -1.673710
     46          6           0       -3.511397   -1.878034   -1.033560
     47          1           0       -3.452690   -2.353951   -0.061480
     48          6           0       -0.394690    1.093698   -0.842240
     49          1           0       -0.287773    0.782994   -1.883890
     50          6           0       -0.895059    2.509090   -0.868880
     51          6           0       -1.145890    3.257416    0.281850
     52          1           0       -0.984866    2.832475    1.262050
     53          6           0       -1.606882    4.561081    0.145110
     54          1           0       -1.808665    5.162440    1.022660
     55          6           0       -1.803280    5.077830   -1.128230
     56          1           0       -2.160886    6.087890   -1.278390
     57          6           0       -1.526765    4.260695   -2.219380
     58          1           0       -1.665235    4.623388   -3.232020
     59         45           0        0.587811   -1.650258    0.240550
     60          6           0        2.533282   -2.766851   -0.174120
     61          6           0        2.455077   -2.492895    1.175290
     62          6           0       -0.225869   -3.639763    0.999060
     63          6           0       -0.238129   -3.649984   -0.380600
     64          6           0        2.250217   -4.111726   -0.816060
     65          1           0        3.083134   -2.064890   -0.790680
     66          1           0        2.987139   -1.618456    1.536960
     67          6           0        1.999649   -3.436700    2.261680
     68          6           0        0.800699   -4.331976    1.877020
     69          1           0       -1.149435   -3.360054    1.495080
     70          6           0        0.791146   -4.271847   -1.291450
     71          1           0       -1.173662   -3.405275   -0.871580
     72          1           0        2.909063   -4.227810   -1.678110
     73          1           0        2.516291   -4.911222   -0.124910
     74          1           0        2.840574   -4.063644    2.583450
     75          1           0        1.731056   -2.835215    3.133180
     76          1           0        1.148969   -5.239767    1.384900
     77          1           0        0.307967   -4.659993    2.793790
     78          1           0        0.682570   -3.810033   -2.274930
     79          1           0        0.560964   -5.335279   -1.433630
 ---------------------------------------------------------------------

 SCF Done:  E(RB3LYP) =  -2318.77567269     A.U. after   16 cycles

      1  P    Isotropic =   290.6082   Anisotropy =    57.0231

      2  P    Isotropic =   288.9584   Anisotropy =    57.6960

      3  N    Isotropic =   -93.0985   Anisotropy =   515.5401

      4  C    Isotropic =    44.1150   Anisotropy =   167.7538

      5  C    Isotropic =    47.6752   Anisotropy =   184.7432

      6  H    Isotropic =    25.0093   Anisotropy =    11.2762

      7  C    Isotropic =    48.5406   Anisotropy =   190.4168

      8  H    Isotropic =    24.3182   Anisotropy =     6.8064

      9  C    Isotropic =    46.5571   Anisotropy =   195.3547

     10  H    Isotropic =    24.1287   Anisotropy =     3.6557

     11  C    Isotropic =    48.8083   Anisotropy =   189.4916

     12  H    Isotropic =    24.0407   Anisotropy =     6.8001

     13  C    Isotropic =    48.5220   Anisotropy =   187.9671

     14  H    Isotropic =    23.2102   Anisotropy =    11.4950

     15  C    Isotropic =    46.7598   Anisotropy =   170.4947

     16  C    Isotropic =    42.4580   Anisotropy =   196.5779

     17  H    Isotropic =    25.5198   Anisotropy =    10.5785

     18  C    Isotropic =    49.5279   Anisotropy =   189.2884

     19  H    Isotropic =    24.6677   Anisotropy =     6.3110

     20  C    Isotropic =    45.0021   Anisotropy =   197.8242

     21  H    Isotropic =    24.1586   Anisotropy =     3.7703

     22  C    Isotropic =    50.2704   Anisotropy =   186.3154

     23  H    Isotropic =    24.1038   Anisotropy =     7.1250

     24  C    Isotropic =    41.7468   Anisotropy =   179.4198

     25  H    Isotropic =    23.1265   Anisotropy =     9.4466

     26  C    Isotropic =    46.8027   Anisotropy =   171.3662

     27  C    Isotropic =    40.9519   Anisotropy =   178.6105

     28  H    Isotropic =    22.9454   Anisotropy =     9.8857

     29  C    Isotropic =    50.3974   Anisotropy =   185.8476

     30  H    Isotropic =    24.0525   Anisotropy =     7.0242

     31  C    Isotropic =    45.0178   Anisotropy =   198.2024

     32  H    Isotropic =    24.1315   Anisotropy =     3.7011

     33  C    Isotropic =    49.7059   Anisotropy =   188.9393

     34  H    Isotropic =    24.6535   Anisotropy =     6.3603

     35  C    Isotropic =    42.2033   Anisotropy =   196.7421

     36  H    Isotropic =    25.5216   Anisotropy =    10.3081

     37  C    Isotropic =    43.9877   Anisotropy =   168.9526

     38  C    Isotropic =    48.5110   Anisotropy =   188.5254

     39  H    Isotropic =    23.1788   Anisotropy =    11.5524

     40  C    Isotropic =    48.8496   Anisotropy =   189.2265

     41  H    Isotropic =    24.0477   Anisotropy =     6.8237

     42  C    Isotropic =    46.4572   Anisotropy =   195.0616

     43  H    Isotropic =    24.1466   Anisotropy =     3.6382

     44  C    Isotropic =    48.4426   Anisotropy =   190.5471

     45  H    Isotropic =    24.3245   Anisotropy =     6.7563

     46  C    Isotropic =    47.5373   Anisotropy =   185.7119

     47  H    Isotropic =    25.0270   Anisotropy =    11.3722

     48  C    Isotropic =   115.5138   Anisotropy =    72.4216

     49  H    Isotropic =    24.9550   Anisotropy =     7.4578

     50  C    Isotropic =    25.8383   Anisotropy =   170.2638

     51  C    Isotropic =    51.2343   Anisotropy =   187.2302

     52  H    Isotropic =    26.7951   Anisotropy =     6.6715

     53  C    Isotropic =    43.1020   Anisotropy =   206.1548

     54  H    Isotropic =    24.7422   Anisotropy =     7.9474

     55  C    Isotropic =    55.1853   Anisotropy =   181.5223

     56  H    Isotropic =    24.5819   Anisotropy =     4.1681

     57  C    Isotropic =    28.1014   Anisotropy =   174.2002

     58  H    Isotropic =    22.9261   Anisotropy =     5.4772

     59  Rh   Isotropic =  -298.5902   Anisotropy =   331.7518

     60  C    Isotropic =    73.7082   Anisotropy =   129.7220

     61  C    Isotropic =    79.5624   Anisotropy =   113.4091

     62  C    Isotropic =    81.5029   Anisotropy =   118.3058

     63  C    Isotropic =    70.8362   Anisotropy =   126.6714

     64  C    Isotropic =   153.9465   Anisotropy =    24.9133

     65  H    Isotropic =    26.9509   Anisotropy =     6.7742

     66  H    Isotropic =    26.1072   Anisotropy =     4.2609

     67  C    Isotropic =   147.4679   Anisotropy =    29.4066

     68  C    Isotropic =   153.8009   Anisotropy =    25.3959

     69  H    Isotropic =    26.6508   Anisotropy =     6.6322

     70  C    Isotropic =   148.0585   Anisotropy =    29.4657

     71  H    Isotropic =    26.5336   Anisotropy =     5.4356

     72  H    Isotropic =    30.0134   Anisotropy =    11.1793

     73  H    Isotropic =    29.7619   Anisotropy =     9.6196

     74  H    Isotropic =    28.9011   Anisotropy =    12.7339

     75  H    Isotropic =    28.7654   Anisotropy =     8.2087

     76  H    Isotropic =    29.6324   Anisotropy =     9.7053

     77  H    Isotropic =    29.6331   Anisotropy =    11.6378

     78  H    Isotropic =    29.3925   Anisotropy =     6.9272

     79  H    Isotropic =    29.3205   Anisotropy =    12.5531

 The electronic state is 1-A.
 Alpha  occ. eigenvalues --  -77.23763 -77.23762 -14.41170 -10.32044 -10.31007
 Alpha  occ. eigenvalues --  -10.30162 -10.29434 -10.29433 -10.29298 -10.29280
 Alpha  occ. eigenvalues --  -10.28939 -10.28856 -10.28757 -10.28700 -10.28557
 Alpha  occ. eigenvalues --  -10.28355 -10.28354 -10.28169 -10.28147 -10.27987
 Alpha  occ. eigenvalues --  -10.27952 -10.27939 -10.27733 -10.27719 -10.27676
 Alpha  occ. eigenvalues --  -10.27666 -10.27572 -10.27568 -10.27566 -10.27516
 Alpha  occ. eigenvalues --  -10.27460 -10.27451 -10.27214 -10.27204 -10.27203
 Alpha  occ. eigenvalues --  -10.27177 -10.27098 -10.27075 -10.27042 -10.27039
 Alpha  occ. eigenvalues --  -10.27019  -6.69705  -6.69704  -4.85998  -4.85997
 Alpha  occ. eigenvalues --   -4.85915  -4.85915  -4.85612  -4.85611  -3.31436
 Alpha  occ. eigenvalues --   -2.08328  -2.07686  -2.04883  -1.04826  -0.96725
 Alpha  occ. eigenvalues --   -0.96521  -0.95858  -0.95820  -0.94295  -0.90944
 Alpha  occ. eigenvalues --   -0.90208  -0.89016  -0.87847  -0.87149  -0.86777
 Alpha  occ. eigenvalues --   -0.85309  -0.85199  -0.84917  -0.84838  -0.84727
 Alpha  occ. eigenvalues --   -0.84694  -0.82575  -0.80177  -0.77654  -0.75526
 Alpha  occ. eigenvalues --   -0.74968  -0.72957  -0.71389  -0.71172  -0.71025
 Alpha  occ. eigenvalues --   -0.70739  -0.70374  -0.70192  -0.70036  -0.70005
 Alpha  occ. eigenvalues --   -0.66894  -0.66133  -0.65709  -0.62656  -0.62509
 Alpha  occ. eigenvalues --   -0.62212  -0.62010  -0.60228  -0.60133  -0.59846
 Alpha  occ. eigenvalues --   -0.58952  -0.56961  -0.56925  -0.56206  -0.56126
 Alpha  occ. eigenvalues --   -0.56093  -0.55853  -0.55540  -0.55358  -0.55314
 Alpha  occ. eigenvalues --   -0.54606  -0.54592  -0.53551  -0.53460  -0.53051
 Alpha  occ. eigenvalues --   -0.52809  -0.52597  -0.52462  -0.52411  -0.52375
 Alpha  occ. eigenvalues --   -0.52130  -0.51242  -0.50962  -0.50620  -0.49039
 Alpha  occ. eigenvalues --   -0.48848  -0.48093  -0.48048  -0.47794  -0.47322
 Alpha  occ. eigenvalues --   -0.47197  -0.47138  -0.46834  -0.46129  -0.45802
 Alpha  occ. eigenvalues --   -0.45472  -0.45200  -0.45034  -0.44828  -0.44605
 Alpha  occ. eigenvalues --   -0.44049  -0.43462  -0.43359  -0.43120  -0.42933
 Alpha  occ. eigenvalues --   -0.42508  -0.41276  -0.38821  -0.38000  -0.37376
 Alpha  occ. eigenvalues --   -0.36910  -0.36418  -0.36358  -0.36172  -0.36141
 Alpha  occ. eigenvalues --   -0.35544  -0.35489  -0.35236  -0.35074  -0.34649
 Alpha  occ. eigenvalues --   -0.34357  -0.34223  -0.33723  -0.30611
 Alpha virt. eigenvalues --   -0.16188  -0.14864  -0.13896  -0.13842  -0.12831
 Alpha virt. eigenvalues --   -0.12299  -0.11858  -0.11807  -0.11436  -0.10929
 Alpha virt. eigenvalues --   -0.10581  -0.09898  -0.09110  -0.07628  -0.06384

 Mulliken charges:
               1
     1  P    0.378941
     2  P    0.398439
     3  N   -0.076433
     4  C   -0.174877
     5  C   -0.106739
     6  H    0.159926
     7  C   -0.099297
     8  H    0.131428
     9  C   -0.081943
    10  H    0.137750
    11  C   -0.128480
    12  H    0.131519
    13  C   -0.040036
    14  H    0.166725
    15  C   -0.323294
    16  C    0.031717
    17  H    0.153207
    18  C   -0.104873
    19  H    0.134558
    20  C   -0.081007
    21  H    0.139190
    22  C   -0.130760
    23  H    0.127897
    24  C    0.008446
    25  H    0.147311
    26  C   -0.331125
    27  C   -0.009348
    28  H    0.167524
    29  C   -0.127188
    30  H    0.128284
    31  C   -0.085620
    32  H    0.138806
    33  C   -0.094509
    34  H    0.135153
    35  C    0.019082
    36  H    0.152581
    37  C   -0.176598
    38  C   -0.048968
    39  H    0.164288
    40  C   -0.128076
    41  H    0.131704
    42  C   -0.085220
    43  H    0.137763
    44  C   -0.094583
    45  H    0.131830
    46  C   -0.098841
    47  H    0.159058
    48  C   -0.698703
    49  H    0.281384
    50  C    0.054376
    51  C   -0.000139
    52  H    0.185182
    53  C   -0.168763
    54  H    0.133870
    55  C   -0.024337
    56  H    0.153869
    57  C   -0.129711
    58  H    0.122197
    59  Rh  -0.678642
    60  C   -0.029749
    61  C   -0.098307
    62  C   -0.027380
    63  C   -0.100252
    64  C   -0.349725
    65  H    0.213839
    66  H    0.191480
    67  C   -0.228151
    68  C   -0.351611
    69  H    0.184207
    70  C   -0.227990
    71  H    0.221589
    72  H    0.170396
    73  H    0.166532
    74  H    0.172060
    75  H    0.130831
    76  H    0.169508
    77  H    0.168389
    78  H    0.137620
    79  H    0.170819
 Sum of Mulliken charges =   1.00000

 Dipole moment (field-independent basis, Debye):
    X=             -0.1600    Y=              0.5212    Z=              1.3870  Tot=              1.4903
 Quadrupole moment (field-independent basis, Debye-Ang):
   XX=           -220.9690   YY=           -213.4120   ZZ=           -227.9784
   XY=             -3.1796   XZ=             -0.5566   YZ=             -0.0469

 Summary of Natural Population Analysis:

                                       Natural Population
                Natural  -----------------------------------------------
    Atom  No    Charge         Core      Valence    Rydberg      Total
 -----------------------------------------------------------------------
      P    1    1.13617      9.99637     3.81614    0.05132    13.86383
      P    2    1.13484      9.99637     3.81752    0.05127    13.86516
      N    3   -0.43469      1.99944     5.41632    0.01893     7.43469
      C    4   -0.33984      1.99900     4.31764    0.02321     6.33984
      C    5   -0.19888      1.99909     4.18445    0.01534     6.19888
      H    6    0.21378      0.00000     0.78439    0.00183     0.78622
      C    7   -0.19096      1.99919     4.17719    0.01457     6.19096
      H    8    0.22210      0.00000     0.77667    0.00123     0.77790
      C    9   -0.18116      1.99920     4.16736    0.01459     6.18116
      H   10    0.22255      0.00000     0.77627    0.00118     0.77745
      C   11   -0.18795      1.99920     4.17421    0.01454     6.18795
      H   12    0.22199      0.00000     0.77679    0.00122     0.77801
      C   13   -0.20167      1.99908     4.18717    0.01542     6.20167
      H   14    0.22650      0.00000     0.77106    0.00244     0.77350
      C   15   -0.35448      1.99898     4.33131    0.02418     6.35448
      C   16   -0.17914      1.99909     4.16378    0.01627     6.17914
      H   17    0.22358      0.00000     0.77413    0.00229     0.77642
      C   18   -0.19420      1.99919     4.18014    0.01487     6.19420
      H   19    0.22321      0.00000     0.77553    0.00126     0.77679
      C   20   -0.17419      1.99921     4.16046    0.01452     6.17419
      H   21    0.22252      0.00000     0.77631    0.00117     0.77748
      C   22   -0.20016      1.99919     4.18633    0.01463     6.20016
      H   23    0.22029      0.00000     0.77845    0.00126     0.77971
      C   24   -0.18477      1.99909     4.17036    0.01532     6.18477
      H   25    0.21753      0.00000     0.78019    0.00228     0.78247
      C   26   -0.35439      1.99898     4.33124    0.02417     6.35439
      C   27   -0.18334      1.99909     4.16888    0.01537     6.18334
      H   28    0.21849      0.00000     0.77950    0.00201     0.78151
      C   29   -0.20088      1.99919     4.18707    0.01462     6.20088
      H   30    0.22014      0.00000     0.77860    0.00126     0.77986
      C   31   -0.17362      1.99921     4.15990    0.01451     6.17362
      H   32    0.22249      0.00000     0.77635    0.00116     0.77751
      C   33   -0.19481      1.99919     4.18075    0.01486     6.19481
      H   34    0.22315      0.00000     0.77559    0.00126     0.77685
      C   35   -0.17865      1.99909     4.16329    0.01627     6.17865
      H   36    0.22329      0.00000     0.77442    0.00229     0.77671
      C   37   -0.34048      1.99899     4.31841    0.02307     6.34048
      C   38   -0.20127      1.99908     4.18676    0.01542     6.20127
      H   39    0.22609      0.00000     0.77149    0.00241     0.77391
      C   40   -0.18793      1.99920     4.17418    0.01455     6.18793
      H   41    0.22195      0.00000     0.77683    0.00122     0.77805
      C   42   -0.18122      1.99920     4.16742    0.01460     6.18122
      H   43    0.22254      0.00000     0.77628    0.00118     0.77746
      C   44   -0.19074      1.99919     4.17694    0.01461     6.19074
      H   45    0.22218      0.00000     0.77659    0.00123     0.77782
      C   46   -0.20039      1.99909     4.18603    0.01528     6.20039
      H   47    0.21498      0.00000     0.78321    0.00181     0.78502
      C   48   -0.78086      1.99928     4.75587    0.02572     6.78086
      H   49    0.28053      0.00000     0.71633    0.00314     0.71947
      C   50    0.15148      1.99905     3.81913    0.03034     5.84852
      C   51   -0.22838      1.99905     4.21348    0.01585     6.22838
      H   52    0.22790      0.00000     0.76941    0.00269     0.77210
      C   53   -0.15514      1.99920     4.14107    0.01487     6.15514
      H   54    0.22337      0.00000     0.77533    0.00130     0.77663
      C   55   -0.23369      1.99917     4.22048    0.01404     6.23369
      H   56    0.22752      0.00000     0.77133    0.00115     0.77248
      C   57    0.04072      1.99925     3.93759    0.02243     5.95928
      H   58    0.20134      0.00000     0.79716    0.00150     0.79866
     Rh   59   -0.39697     35.98560     9.38151    0.02987    45.39697
      C   60   -0.16262      1.99906     4.14428    0.01928     6.16262
      C   61   -0.16972      1.99907     4.15064    0.02001     6.16972
      C   62   -0.18256      1.99906     4.16393    0.01957     6.18256
      C   63   -0.15087      1.99907     4.13199    0.01981     6.15087
      C   64   -0.42365      1.99936     4.41248    0.01181     6.42365
      H   65    0.23121      0.00000     0.76642    0.00237     0.76879
      H   66    0.22520      0.00000     0.77285    0.00195     0.77480
      C   67   -0.41864      1.99936     4.40694    0.01234     6.41864
      C   68   -0.42296      1.99936     4.41185    0.01175     6.42296
      H   69    0.22475      0.00000     0.77325    0.00200     0.77525
      C   70   -0.41909      1.99935     4.40718    0.01256     6.41909
      H   71    0.23194      0.00000     0.76576    0.00230     0.76806
      H   72    0.22973      0.00000     0.76877    0.00150     0.77027
      H   73    0.21354      0.00000     0.78444    0.00202     0.78646
      H   74    0.23363      0.00000     0.76444    0.00193     0.76637
      H   75    0.21526      0.00000     0.78325    0.00149     0.78474
      H   76    0.21542      0.00000     0.78261    0.00197     0.78458
      H   77    0.22764      0.00000     0.77086    0.00150     0.77236
      H   78    0.21997      0.00000     0.77853    0.00149     0.78003
      H   79    0.23344      0.00000     0.76462    0.00194     0.76656
 =======================================================================
   * Total *    1.00000    133.94551   211.19372    0.86077   346.00000

 Normal termination of Gaussian 16 at Wed Jan 22 04:06:16 2025.
