 Gaussian 16, Revision B.01,
 Gaussian 16:  ES64L-G16RevB.01 20-Dec-2017

 ------------------------------------------
 # nmr=giao b3lyp/genecp pop=nbo scfcyc=200
 ------------------------------------------

 ---------
 MS-26_SPE
 ---------
 Symbolic Z-matrix:
 Charge =  1 Multiplicity = 1

                         Standard orientation:
 ---------------------------------------------------------------------
 Center     Atomic      Atomic             Coordinates (Angstroms)
 Number     Number       Type             X           Y           Z
 ---------------------------------------------------------------------
      1         15           0        1.350850    0.219661    0.099099
      2         15           0       -1.485090    0.111680    0.126759
      3          6           0       -0.101911    1.222170    0.821359
      4          1           0       -0.094490    0.864690    1.853469
      5          6           0        2.692710    0.226151    1.426899
      6          1           0        2.929689    1.282651    1.590859
      7          6           0        2.211830   -0.372179    2.761469
      8          1           0        1.339430    0.165521    3.138429
      9          1           0        1.894800   -1.408359    2.605659
     10          6           0        3.317210   -0.330799    3.827049
     11          1           0        2.950470   -0.793829    4.746449
     12          1           0        3.540510    0.713381    4.072529
     13          6           0        4.595440   -1.024479    3.351139
     14          1           0        5.378200   -0.931728    4.107259
     15          1           0        4.405190   -2.097359    3.231649
     16          6           0        5.073310   -0.441618    2.019989
     17          1           0        5.952020   -0.981548    1.659119
     18          1           0        5.386130    0.597932    2.167889
     19          6           0        3.973180   -0.489249    0.950009
     20          1           0        3.746070   -1.535069    0.720029
     21          1           0        4.346430   -0.044249    0.027679
     22          6           0        2.026999    1.214851   -1.357371
     23          1           0        1.119449    1.649481   -1.785181
     24          6           0        2.653790    0.331811   -2.452891
     25          1           0        3.544520   -0.172619   -2.065441
     26          1           0        1.949590   -0.449949   -2.744921
     27          6           0        3.045290    1.169201   -3.678841
     28          1           0        3.529110    0.526881   -4.418851
     29          1           0        2.136039    1.557271   -4.152511
     30          6           0        3.959989    2.339171   -3.306121
     31          1           0        4.921619    1.950602   -2.951821
     32          1           0        4.177769    2.942411   -4.190471
     33          6           0        3.331199    3.208551   -2.214441
     34          1           0        2.433339    3.698091   -2.608101
     35          1           0        4.015709    4.008281   -1.921501
     36          6           0        2.956229    2.382851   -0.974711
     37          1           0        3.873639    1.996821   -0.523001
     38          1           0        2.481769    3.026371   -0.232861
     39          6           0       -2.685510   -0.124221    1.559699
     40          1           0       -3.474370   -0.748841    1.126209
     41          6           0       -3.322040    1.181609    2.071029
     42          1           0       -3.788351    1.738239    1.255999
     43          1           0       -2.541321    1.829679    2.480319
     44          6           0       -4.364770    0.894679    3.162359
     45          1           0       -4.770391    1.839009    3.533219
     46          1           0       -5.205830    0.347629    2.721579
     47          6           0       -3.774590    0.077889    4.315039
     48          1           0       -4.551990   -0.159351    5.044799
     49          1           0       -3.028340    0.682699    4.843059
     50          6           0       -3.116110   -1.208181    3.807839
     51          1           0       -3.883390   -1.874421    3.397659
     52          1           0       -2.647050   -1.747611    4.634429
     53          6           0       -2.067750   -0.918570    2.724079
     54          1           0       -1.252290   -0.343810    3.175969
     55          1           0       -1.627620   -1.848570    2.358169
     56          6           0       -2.491740    0.983499   -1.213621
     57          1           0       -2.629501    2.011719   -0.866461
     58          6           0       -1.754210    1.005140   -2.565281
     59          1           0       -1.566690   -0.024080   -2.885791
     60          1           0       -0.773221    1.472240   -2.469221
     61          6           0       -2.564411    1.736459   -3.643961
     62          1           0       -2.662151    2.793399   -3.371411
     63          1           0       -2.017361    1.708930   -4.589611
     64          6           0       -3.956150    1.124199   -3.812721
     65          1           0       -4.534671    1.693779   -4.543371
     66          1           0       -3.860280    0.109369   -4.215571
     67          6           0       -4.697340    1.073489   -2.475711
     68          1           0       -5.664390    0.578559   -2.592671
     69          1           0       -4.910001    2.093879   -2.138081
     70          6           0       -3.887340    0.347319   -1.391081
     71          1           0       -3.781270   -0.706891   -1.669921
     72          1           0       -4.448880    0.369509   -0.457451
     73         45           0       -0.024800   -1.669110   -0.411991
     74          6           0        1.478781   -3.180009   -1.271901
     75          6           0        1.368861   -3.371549    0.087859
     76          6           0       -1.505479   -3.403790   -0.361101
     77          6           0       -1.397849   -2.931140   -1.654031
     78          1           0        2.294191   -2.554409   -1.615161
     79          6           0        0.819091   -4.036960   -2.334441
     80          1           0        2.123081   -2.909029    0.713529
     81          6           0        0.541171   -4.416570    0.793899
     82          6           0       -0.848149   -4.663440    0.170189
     83          1           0       -2.333729   -3.028380    0.229019
     84          1           0       -2.164710   -2.242230   -1.991071
     85          6           0       -0.568549   -3.518980   -2.768811
     86          1           0        0.747061   -5.066340   -1.983361
     87          1           0        1.467311   -4.065229   -3.211831
     88          1           0        1.100851   -5.359299    0.840649
     89          1           0        0.414781   -4.094730    1.829919
     90          1           0       -1.496589   -5.101130    0.930979
     91          1           0       -0.780749   -5.404450   -0.626351
     92          1           0       -1.129189   -4.325110   -3.258821
     93          1           0       -0.437799   -2.744770   -3.528221
     94          6           0       -0.123491    2.726810    0.884589
     95          6           0        0.136129    3.348610    2.113919
     96          6           0       -0.376191    3.547820   -0.220011
     97          6           0        0.150098    4.732820    2.235539
     98          1           0        0.328579    2.740620    2.990829
     99          6           0       -0.366532    4.933480   -0.100481
    100          1           0       -0.579291    3.113620   -1.188071
    101          6           0       -0.103072    5.532610    1.126369
    102          1           0        0.354058    5.185510    3.197889
    103          1           0       -0.567502    5.546460   -0.970391
    104          1           0       -0.097132    6.611250    1.217409
 ---------------------------------------------------------------------

 SCF Done:  E(RB3LYP) =  -2317.24678731     A.U. after   16 cycles

      1  P    Isotropic =   282.1942   Anisotropy =    56.6822

      2  P    Isotropic =   267.5558   Anisotropy =    78.4886

      3  C    Isotropic =   123.8168   Anisotropy =    71.9894

      4  H    Isotropic =    26.9650   Anisotropy =     2.5311

      5  C    Isotropic =   141.6882   Anisotropy =    22.3216

      6  H    Isotropic =    29.8287   Anisotropy =     3.9775

      7  C    Isotropic =   151.6878   Anisotropy =    11.0669

      8  H    Isotropic =    29.8291   Anisotropy =     7.3918

      9  H    Isotropic =    30.3680   Anisotropy =     6.7322

     10  C    Isotropic =   154.6260   Anisotropy =     7.8239

     11  H    Isotropic =    29.8977   Anisotropy =     9.9435

     12  H    Isotropic =    30.4627   Anisotropy =     8.6827

     13  C    Isotropic =   155.6706   Anisotropy =     2.4815

     14  H    Isotropic =    30.0748   Anisotropy =    12.1706

     15  H    Isotropic =    30.5785   Anisotropy =     7.8106

     16  C    Isotropic =   155.3348   Anisotropy =     6.2829

     17  H    Isotropic =    30.1481   Anisotropy =    11.0406

     18  H    Isotropic =    30.6557   Anisotropy =     8.5956

     19  C    Isotropic =   152.2157   Anisotropy =    14.2038

     20  H    Isotropic =    30.9225   Anisotropy =     5.8572

     21  H    Isotropic =    30.2685   Anisotropy =     8.0695

     22  C    Isotropic =   138.7441   Anisotropy =    24.0162

     23  H    Isotropic =    29.6273   Anisotropy =     5.8762

     24  C    Isotropic =   147.3380   Anisotropy =    18.7268

     25  H    Isotropic =    30.5225   Anisotropy =     4.0818

     26  H    Isotropic =    29.6441   Anisotropy =     8.8936

     27  C    Isotropic =   152.7104   Anisotropy =     8.7173

     28  H    Isotropic =    30.0048   Anisotropy =    10.3818

     29  H    Isotropic =    30.5122   Anisotropy =     6.6509

     30  C    Isotropic =   156.1417   Anisotropy =     1.9914

     31  H    Isotropic =    30.7215   Anisotropy =     9.4217

     32  H    Isotropic =    30.2124   Anisotropy =    11.9995

     33  C    Isotropic =   154.2377   Anisotropy =     7.9107

     34  H    Isotropic =    30.8455   Anisotropy =     6.5457

     35  H    Isotropic =    30.4617   Anisotropy =    10.7614

     36  C    Isotropic =   153.3736   Anisotropy =    13.1327

     37  H    Isotropic =    30.9179   Anisotropy =     6.0642

     38  H    Isotropic =    31.4464   Anisotropy =     9.0479

     39  C    Isotropic =   138.5235   Anisotropy =    24.9906

     40  H    Isotropic =    30.1371   Anisotropy =     3.3823

     41  C    Isotropic =   153.1801   Anisotropy =    13.0187

     42  H    Isotropic =    30.7128   Anisotropy =     5.6747

     43  H    Isotropic =    31.0287   Anisotropy =     8.3322

     44  C    Isotropic =   154.2754   Anisotropy =     8.3741

     45  H    Isotropic =    30.2962   Anisotropy =    10.8508

     46  H    Isotropic =    30.7401   Anisotropy =     9.0106

     47  C    Isotropic =   155.5790   Anisotropy =     2.4024

     48  H    Isotropic =    30.1248   Anisotropy =    12.2039

     49  H    Isotropic =    30.6384   Anisotropy =     8.0458

     50  C    Isotropic =   153.7682   Anisotropy =     9.1150

     51  H    Isotropic =    30.4756   Anisotropy =     8.2571

     52  H    Isotropic =    29.9213   Anisotropy =     9.8326

     53  C    Isotropic =   150.2781   Anisotropy =    11.2678

     54  H    Isotropic =    30.2976   Anisotropy =     6.1969

     55  H    Isotropic =    29.4971   Anisotropy =     9.6565

     56  C    Isotropic =   144.3900   Anisotropy =    22.3751

     57  H    Isotropic =    29.4743   Anisotropy =     3.3773

     58  C    Isotropic =   148.7360   Anisotropy =    17.6693

     59  H    Isotropic =    30.0407   Anisotropy =     7.2951

     60  H    Isotropic =    29.5994   Anisotropy =     8.8526

     61  C    Isotropic =   154.9727   Anisotropy =     7.6204

     62  H    Isotropic =    30.3227   Anisotropy =     8.3040

     63  H    Isotropic =    29.8726   Anisotropy =     9.4541

     64  C    Isotropic =   155.8648   Anisotropy =     2.8039

     65  H    Isotropic =    29.9905   Anisotropy =    12.1612

     66  H    Isotropic =    30.5026   Anisotropy =     8.0666

     67  C    Isotropic =   154.3309   Anisotropy =     7.2089

     68  H    Isotropic =    30.0198   Anisotropy =    11.3325

     69  H    Isotropic =    30.5599   Anisotropy =     8.7735

     70  C    Isotropic =   153.7862   Anisotropy =    11.3963

     71  H    Isotropic =    30.9195   Anisotropy =     4.6032

     72  H    Isotropic =    30.4228   Anisotropy =     7.6884

     73  Rh   Isotropic =  -310.5950   Anisotropy =   358.2898

     74  C    Isotropic =    81.2577   Anisotropy =   121.7086

     75  C    Isotropic =    76.5113   Anisotropy =   117.7234

     76  C    Isotropic =    83.3691   Anisotropy =   116.2452

     77  C    Isotropic =    79.6428   Anisotropy =   111.9415

     78  H    Isotropic =    27.0257   Anisotropy =     5.2835

     79  C    Isotropic =   154.7295   Anisotropy =    24.1741

     80  H    Isotropic =    25.8882   Anisotropy =     5.1122

     81  C    Isotropic =   147.2705   Anisotropy =    29.7796

     82  C    Isotropic =   154.3710   Anisotropy =    24.5499

     83  H    Isotropic =    27.3695   Anisotropy =     5.7361

     84  H    Isotropic =    26.3426   Anisotropy =     4.9146

     85  C    Isotropic =   147.2813   Anisotropy =    29.7593

     86  H    Isotropic =    29.8868   Anisotropy =    10.0289

     87  H    Isotropic =    29.9051   Anisotropy =    11.2722

     88  H    Isotropic =    29.1042   Anisotropy =    12.7371

     89  H    Isotropic =    29.1033   Anisotropy =     6.7695

     90  H    Isotropic =    29.9035   Anisotropy =    11.1761

     91  H    Isotropic =    29.8520   Anisotropy =     9.9946

     92  H    Isotropic =    29.0677   Anisotropy =    12.7955

     93  H    Isotropic =    29.1298   Anisotropy =     7.0097

     94  C    Isotropic =    42.8170   Anisotropy =   183.2418

     95  C    Isotropic =    50.2078   Anisotropy =   156.1640

     96  C    Isotropic =    50.1521   Anisotropy =   177.8133

     97  C    Isotropic =    48.0454   Anisotropy =   189.0364

     98  H    Isotropic =    24.7617   Anisotropy =     9.9335

     99  C    Isotropic =    49.1097   Anisotropy =   188.8337

    100  H    Isotropic =    24.5402   Anisotropy =     8.2260

    101  C    Isotropic =    48.9960   Anisotropy =   193.0127

    102  H    Isotropic =    24.2217   Anisotropy =     6.1217

    103  H    Isotropic =    24.2314   Anisotropy =     7.4300

    104  H    Isotropic =    24.2175   Anisotropy =     3.4751

 The electronic state is 1-A.
 Alpha  occ. eigenvalues --  -77.22421 -77.22240 -10.30722 -10.29300 -10.29055
 Alpha  occ. eigenvalues --  -10.29025 -10.28996 -10.28961 -10.28841 -10.28766
 Alpha  occ. eigenvalues --  -10.28595 -10.28370 -10.27331 -10.27317 -10.27279
 Alpha  occ. eigenvalues --  -10.27273 -10.27095 -10.27070 -10.27059 -10.27039
 Alpha  occ. eigenvalues --  -10.26963 -10.26954 -10.26871 -10.26816 -10.26769
 Alpha  occ. eigenvalues --  -10.26680 -10.26500 -10.26453 -10.26190 -10.25647
 Alpha  occ. eigenvalues --  -10.25519 -10.25475 -10.25407 -10.25341 -10.25209
 Alpha  occ. eigenvalues --  -10.25209 -10.25037 -10.25019 -10.24866 -10.24781
 Alpha  occ. eigenvalues --  -10.24588  -6.68401  -6.68215  -4.84697  -4.84578
 Alpha  occ. eigenvalues --   -4.84508  -4.84394  -4.84321  -4.84134  -3.30934
 Alpha  occ. eigenvalues --   -2.07783  -2.07154  -2.04417  -0.96223  -0.94259
 Alpha  occ. eigenvalues --   -0.93902  -0.93612  -0.92858  -0.92595  -0.89172
 Alpha  occ. eigenvalues --   -0.88904  -0.87808  -0.85653  -0.85281  -0.84616
 Alpha  occ. eigenvalues --   -0.84136  -0.84010  -0.83839  -0.83605  -0.83471
 Alpha  occ. eigenvalues --   -0.83315  -0.80970  -0.80095  -0.77606  -0.74427
 Alpha  occ. eigenvalues --   -0.73248  -0.71261  -0.70862  -0.70662  -0.70576
 Alpha  occ. eigenvalues --   -0.70470  -0.70310  -0.70005  -0.69876  -0.69239
 Alpha  occ. eigenvalues --   -0.65874  -0.65597  -0.65524  -0.65205  -0.64935
 Alpha  occ. eigenvalues --   -0.64420  -0.64270  -0.62246  -0.60704  -0.59911
 Alpha  occ. eigenvalues --   -0.58153  -0.57646  -0.57157  -0.56913  -0.56687
 Alpha  occ. eigenvalues --   -0.56437  -0.56085  -0.55725  -0.54605  -0.54079
 Alpha  occ. eigenvalues --   -0.53897  -0.53672  -0.53501  -0.53461  -0.53324
 Alpha  occ. eigenvalues --   -0.53305  -0.53222  -0.53110  -0.53011  -0.52844
 Alpha  occ. eigenvalues --   -0.52465  -0.52271  -0.52008  -0.51521  -0.50947
 Alpha  occ. eigenvalues --   -0.49336  -0.48737  -0.48398  -0.48180  -0.47931
 Alpha  occ. eigenvalues --   -0.47891  -0.47772  -0.47678  -0.47604  -0.47341
 Alpha  occ. eigenvalues --   -0.47290  -0.46797  -0.46022  -0.45972  -0.45838
 Alpha  occ. eigenvalues --   -0.45786  -0.45677  -0.45348  -0.45016  -0.44825
 Alpha  occ. eigenvalues --   -0.44321  -0.44203  -0.44165  -0.44095  -0.43744
 Alpha  occ. eigenvalues --   -0.43625  -0.43204  -0.43052  -0.42876  -0.41687
 Alpha  occ. eigenvalues --   -0.41484  -0.41299  -0.41180  -0.41107  -0.40978
 Alpha  occ. eigenvalues --   -0.40594  -0.39995  -0.39906  -0.39785  -0.39566
 Alpha  occ. eigenvalues --   -0.39242  -0.38454  -0.38297  -0.35955  -0.35889
 Alpha  occ. eigenvalues --   -0.35331  -0.34312  -0.34170  -0.33794  -0.33101
 Alpha  occ. eigenvalues --   -0.30252
 Alpha virt. eigenvalues --   -0.15652  -0.13535  -0.11644  -0.11023  -0.09252
 Alpha virt. eigenvalues --   -0.08339  -0.07626  -0.07256  -0.06923  -0.06620
 Alpha virt. eigenvalues --   -0.06190  -0.05660  -0.04835  -0.04699  -0.04480

 Mulliken charges:
               1
     1  P    0.533637
     2  P    0.526271
     3  C   -0.703278
     4  H    0.163765
     5  C   -0.215799
     6  H    0.189500
     7  C   -0.268638
     8  H    0.117760
     9  H    0.118915
    10  C   -0.238433
    11  H    0.142545
    12  H    0.122039
    13  C   -0.228160
    14  H    0.150388
    15  H    0.112749
    16  C   -0.245183
    17  H    0.147396
    18  H    0.122799
    19  C   -0.273079
    20  H    0.140015
    21  H    0.143935
    22  C   -0.173043
    23  H    0.082337
    24  C   -0.289509
    25  H    0.133408
    26  H    0.139991
    27  C   -0.242038
    28  H    0.142666
    29  H    0.118005
    30  C   -0.224714
    31  H    0.114976
    32  H    0.147047
    33  C   -0.257472
    34  H    0.119335
    35  H    0.147160
    36  C   -0.238169
    37  H    0.137811
    38  H    0.172464
    39  C   -0.302075
    40  H    0.181245
    41  C   -0.231032
    42  H    0.150563
    43  H    0.144523
    44  C   -0.242349
    45  H    0.147474
    46  H    0.119872
    47  C   -0.230883
    48  H    0.149131
    49  H    0.112397
    50  C   -0.233195
    51  H    0.121296
    52  H    0.141597
    53  C   -0.260754
    54  H    0.113878
    55  H    0.140277
    56  C   -0.192160
    57  H    0.204727
    58  C   -0.264928
    59  H    0.130720
    60  H    0.138219
    61  C   -0.233236
    62  H    0.119527
    63  H    0.142694
    64  C   -0.227035
    65  H    0.150874
    66  H    0.113903
    67  C   -0.230679
    68  H    0.148604
    69  H    0.122197
    70  C   -0.317979
    71  H    0.136670
    72  H    0.156959
    73  Rh  -0.457722
    74  C   -0.035605
    75  C   -0.112019
    76  C   -0.035344
    77  C   -0.095312
    78  H    0.190101
    79  C   -0.355384
    80  H    0.173836
    81  C   -0.221982
    82  C   -0.361051
    83  H    0.182840
    84  H    0.173320
    85  C   -0.225326
    86  H    0.167177
    87  H    0.167631
    88  H    0.169742
    89  H    0.127535
    90  H    0.166381
    91  H    0.167884
    92  H    0.169722
    93  H    0.126848
    94  C    0.155273
    95  C   -0.132644
    96  C   -0.126790
    97  C   -0.093551
    98  H    0.119096
    99  C   -0.130419
   100  H    0.120508
   101  C   -0.093840
   102  H    0.128864
   103  H    0.127128
   104  H    0.132661
 Sum of Mulliken charges =   1.00000

 Dipole moment (field-independent basis, Debye):
    X=             -0.2916    Y=             -0.5852    Z=              0.0539  Tot=              0.6561
 Quadrupole moment (field-independent basis, Debye-Ang):
   XX=           -248.6092   YY=           -243.6441   ZZ=           -254.6902
   XY=              0.0988   XZ=              2.2006   YZ=              1.8455

 Summary of Natural Population Analysis:

                                       Natural Population
                Natural  -----------------------------------------------
    Atom  No    Charge         Core      Valence    Rydberg      Total
 -----------------------------------------------------------------------
      P    1    1.10937      9.99685     3.84583    0.04796    13.89063
      P    2    1.13115      9.99679     3.82390    0.04816    13.86885
      C    3   -0.77897      1.99927     4.75474    0.02495     6.77897
      H    4    0.25759      0.00000     0.73848    0.00393     0.74241
      C    5   -0.48104      1.99935     4.46368    0.01802     6.48104
      H    6    0.22643      0.00000     0.77003    0.00354     0.77357
      C    7   -0.38403      1.99938     4.37428    0.01038     6.38403
      H    8    0.19502      0.00000     0.80303    0.00195     0.80498
      H    9    0.19994      0.00000     0.79794    0.00212     0.80006
      C   10   -0.38282      1.99941     4.37356    0.00984     6.38282
      H   11    0.21311      0.00000     0.78551    0.00138     0.78689
      H   12    0.19494      0.00000     0.80324    0.00182     0.80506
      C   13   -0.38859      1.99942     4.37972    0.00945     6.38859
      H   14    0.21623      0.00000     0.78242    0.00134     0.78377
      H   15    0.19101      0.00000     0.80719    0.00180     0.80899
      C   16   -0.38354      1.99941     4.37429    0.00984     6.38354
      H   17    0.21500      0.00000     0.78362    0.00137     0.78500
      H   18    0.19554      0.00000     0.80266    0.00180     0.80446
      C   19   -0.38994      1.99937     4.37988    0.01068     6.38994
      H   20    0.19326      0.00000     0.80464    0.00210     0.80674
      H   21    0.20596      0.00000     0.79195    0.00208     0.79404
      C   22   -0.47345      1.99934     4.45496    0.01915     6.47345
      H   23    0.21912      0.00000     0.77744    0.00343     0.78088
      C   24   -0.38693      1.99938     4.37694    0.01062     6.38693
      H   25    0.19390      0.00000     0.80392    0.00218     0.80610
      H   26    0.21300      0.00000     0.78525    0.00176     0.78700
      C   27   -0.38358      1.99942     4.37450    0.00967     6.38358
      H   28    0.21351      0.00000     0.78511    0.00138     0.78649
      H   29    0.19069      0.00000     0.80753    0.00178     0.80931
      C   30   -0.38931      1.99942     4.38029    0.00959     6.38931
      H   31    0.19288      0.00000     0.80538    0.00174     0.80712
      H   32    0.21448      0.00000     0.78418    0.00135     0.78552
      C   33   -0.37990      1.99942     4.36986    0.01063     6.37990
      H   34    0.18910      0.00000     0.80889    0.00202     0.81090
      H   35    0.21540      0.00000     0.78316    0.00144     0.78460
      C   36   -0.40079      1.99937     4.38928    0.01213     6.40079
      H   37    0.19431      0.00000     0.80326    0.00243     0.80569
      H   38    0.21686      0.00000     0.78096    0.00218     0.78314
      C   39   -0.47669      1.99934     4.46079    0.01656     6.47669
      H   40    0.22294      0.00000     0.77431    0.00275     0.77706
      C   41   -0.39722      1.99937     4.38683    0.01102     6.39722
      H   42    0.20510      0.00000     0.79305    0.00184     0.79490
      H   43    0.20053      0.00000     0.79708    0.00239     0.79947
      C   44   -0.38231      1.99942     4.37332    0.00958     6.38231
      H   45    0.21577      0.00000     0.78282    0.00141     0.78423
      H   46    0.19276      0.00000     0.80539    0.00185     0.80724
      C   47   -0.38863      1.99942     4.37973    0.00948     6.38863
      H   48    0.21573      0.00000     0.78291    0.00136     0.78427
      H   49    0.19132      0.00000     0.80686    0.00182     0.80868
      C   50   -0.38303      1.99942     4.37397    0.00965     6.38303
      H   51    0.19326      0.00000     0.80489    0.00185     0.80674
      H   52    0.21269      0.00000     0.78591    0.00140     0.78731
      C   53   -0.38335      1.99938     4.37389    0.01009     6.38335
      H   54    0.18566      0.00000     0.81181    0.00252     0.81434
      H   55    0.21586      0.00000     0.78221    0.00193     0.78414
      C   56   -0.48633      1.99934     4.46853    0.01846     6.48633
      H   57    0.23088      0.00000     0.76565    0.00348     0.76912
      C   58   -0.38414      1.99938     4.37401    0.01075     6.38414
      H   59    0.20491      0.00000     0.79286    0.00223     0.79509
      H   60    0.19475      0.00000     0.80303    0.00222     0.80525
      C   61   -0.38510      1.99941     4.37589    0.00980     6.38510
      H   62    0.19399      0.00000     0.80422    0.00179     0.80601
      H   63    0.21307      0.00000     0.78553    0.00139     0.78693
      C   64   -0.38815      1.99942     4.37928    0.00945     6.38815
      H   65    0.21627      0.00000     0.78238    0.00135     0.78373
      H   66    0.19160      0.00000     0.80661    0.00179     0.80840
      C   67   -0.38284      1.99941     4.37347    0.00995     6.38284
      H   68    0.21581      0.00000     0.78282    0.00137     0.78419
      H   69    0.19585      0.00000     0.80235    0.00180     0.80415
      C   70   -0.38840      1.99937     4.37814    0.01089     6.38840
      H   71    0.19216      0.00000     0.80570    0.00214     0.80784
      H   72    0.20728      0.00000     0.79070    0.00202     0.79272
     Rh   73   -0.36403     35.98608     9.35302    0.02494    45.36403
      C   74   -0.19134      1.99909     4.17256    0.01969     6.19134
      C   75   -0.16462      1.99910     4.14534    0.02018     6.16462
      C   76   -0.18443      1.99909     4.16590    0.01943     6.18443
      C   77   -0.16740      1.99910     4.14836    0.01993     6.16740
      H   78    0.22556      0.00000     0.77228    0.00216     0.77444
      C   79   -0.42240      1.99935     4.41112    0.01193     6.42240
      H   80    0.21882      0.00000     0.77861    0.00258     0.78118
      C   81   -0.41640      1.99934     4.40445    0.01261     6.41640
      C   82   -0.42227      1.99935     4.41095    0.01197     6.42227
      H   83    0.22018      0.00000     0.77777    0.00204     0.77982
      H   84    0.21844      0.00000     0.77921    0.00236     0.78156
      C   85   -0.41572      1.99934     4.40377    0.01260     6.41572
      H   86    0.21510      0.00000     0.78301    0.00189     0.78490
      H   87    0.22749      0.00000     0.77107    0.00145     0.77251
      H   88    0.23236      0.00000     0.76580    0.00184     0.76764
      H   89    0.21511      0.00000     0.78317    0.00173     0.78489
      H   90    0.22691      0.00000     0.77165    0.00144     0.77309
      H   91    0.21559      0.00000     0.78253    0.00188     0.78441
      H   92    0.23240      0.00000     0.76577    0.00183     0.76760
      H   93    0.21540      0.00000     0.78288    0.00172     0.78460
      C   94   -0.06840      1.99903     4.04400    0.02537     6.06840
      C   95   -0.20187      1.99911     4.18818    0.01458     6.20187
      C   96   -0.21459      1.99908     4.19997    0.01554     6.21459
      C   97   -0.18977      1.99920     4.17578    0.01479     6.18977
      H   98    0.20394      0.00000     0.79423    0.00183     0.79606
      C   99   -0.19128      1.99921     4.17684    0.01523     6.19128
      H  100    0.20291      0.00000     0.79417    0.00292     0.79709
      C  101   -0.19305      1.99920     4.17896    0.01490     6.19305
      H  102    0.22048      0.00000     0.77832    0.00121     0.77952
      H  103    0.21822      0.00000     0.78042    0.00135     0.78178
      H  104    0.22175      0.00000     0.77712    0.00113     0.77825
 =======================================================================
   * Total *    1.00000    133.95297   235.27565    0.77138   370.00000

 Normal termination of Gaussian 16 at Wed Jan 22 04:30:40 2025.
