 Gaussian 16, Revision B.01,
 Gaussian 16:  ES64L-G16RevB.01 20-Dec-2017

 ------------------------------------------
 # nmr=giao b3lyp/genecp pop=nbo scfcyc=200
 ------------------------------------------

 ---------
 MS-28_SPE
 ---------
 Symbolic Z-matrix:
 Charge =  1 Multiplicity = 1

                         Standard orientation:
 ---------------------------------------------------------------------
 Center     Atomic      Atomic             Coordinates (Angstroms)
 Number     Number       Type             X           Y           Z
 ---------------------------------------------------------------------
      1         15           0       -0.484921    1.316300    0.170450
      2         15           0        0.703110   -1.226730    0.111390
      3          6           0       -1.203391    2.429090    1.452780
      4          6           0       -2.370541    3.128149    1.118800
      5          1           0       -2.795561    3.041509    0.125730
      6          6           0       -2.982561    3.960629    2.046490
      7          1           0       -3.881162    4.499489    1.773590
      8          6           0       -2.441072    4.103599    3.321360
      9          1           0       -2.918292    4.752849    4.044290
     10          6           0       -1.281411    3.416900    3.659180
     11          1           0       -0.847911    3.533580    4.644460
     12          6           0       -0.664101    2.582130    2.731190
     13          1           0        0.248179    2.075510    3.014650
     14          6           0        0.035439    2.459870   -1.173150
     15          6           0        0.513019    3.744660   -0.891550
     16          1           0        0.578908    4.092570    0.131050
     17          6           0        0.901138    4.585380   -1.927130
     18          1           0        1.269348    5.578340   -1.702050
     19          6           0        0.816558    4.154560   -3.248670
     20          1           0        1.117498    4.814080   -4.052920
     21          6           0        0.337069    2.880840   -3.535530
     22          1           0        0.261439    2.546980   -4.562750
     23          6           0       -0.057531    2.037430   -2.502240
     24          1           0       -0.441461    1.049780   -2.725640
     25          6           0        1.918990   -1.479980   -1.238910
     26          6           0        1.454530   -1.588820   -2.552820
     27          1           0        0.392740   -1.518480   -2.752770
     28          6           0        2.347330   -1.789909   -3.600480
     29          1           0        1.977880   -1.877460   -4.614460
     30          6           0        3.710390   -1.883869   -3.343080
     31          1           0        4.406060   -2.043089   -4.157400
     32          6           0        4.181570   -1.777439   -2.036870
     33          1           0        5.242610   -1.850019   -1.834150
     34          6           0        3.293790   -1.576349   -0.987780
     35          1           0        3.674370   -1.500639    0.022100
     36          6           0        1.066820   -2.516560    1.382060
     37          6           0        0.521370   -2.386840    2.665540
     38          1           0       -0.069560   -1.518050    2.930260
     39          6           0        0.712710   -3.380210    3.617270
     40          1           0        0.293370   -3.261770    4.608530
     41          6           0        1.433911   -4.526810    3.295630
     42          1           0        1.581201   -5.301580    4.037210
     43          6           0        1.955791   -4.675830    2.016500
     44          1           0        2.510311   -5.568519    1.755920
     45          6           0        1.773601   -3.679200    1.061810
     46          1           0        2.188681   -3.813540    0.072580
     47          6           0        1.025329    0.460030    0.947820
     48          1           0        0.672409    0.260490    1.962180
     49          6           0        2.393149    1.067561    1.036250
     50          6           0        3.075749    1.586591   -0.065830
     51          1           0        2.638199    1.581401   -1.053290
     52          6           0        4.348089    2.118161    0.115610
     53          1           0        4.889229    2.530381   -0.729460
     54          6           0        4.329909    1.654221    2.343090
     55          1           0        4.854819    1.690041    3.291850
     56         45           0       -1.530770   -0.717080   -0.410150
     57          6           0       -3.735820   -0.182791   -0.104120
     58          6           0       -3.397230    0.067949   -1.415890
     59          6           0       -2.287610   -2.640641   -1.380970
     60          6           0       -2.379530   -2.769371   -0.010880
     61          6           0       -4.509150   -1.390001    0.391120
     62          1           0       -3.680041    0.649109    0.588780
     63          1           0       -3.139581    1.089489   -1.677850
     64          6           0       -3.645460   -0.833541   -2.600450
     65          6           0       -3.440870   -2.339141   -2.320750
     66          1           0       -1.401080   -3.055790   -1.848630
     67          6           0       -3.607900   -2.559831    0.838950
     68          1           0       -1.575720   -3.296661    0.491420
     69          1           0       -5.122190   -1.081921    1.239690
     70          1           0       -5.206430   -1.719601   -0.378620
     71          1           0       -4.657970   -0.664451   -2.987550
     72          1           0       -2.969490   -0.523411   -3.400580
     73          1           0       -4.356860   -2.778931   -1.926930
     74          1           0       -3.253390   -2.842531   -3.270610
     75          1           0       -3.274490   -2.382981    1.863780
     76          1           0       -4.193180   -3.487421    0.872040
     77          6           0        3.054019    1.107491    2.267970
     78          1           0        2.588779    0.711451    3.163070
     79          7           0        4.976229    2.158031    1.291120
 ---------------------------------------------------------------------

 SCF Done:  E(RB3LYP) =  -2318.76574319     A.U. after   16 cycles

      1  P    Isotropic =   289.5853   Anisotropy =    64.7886

      2  P    Isotropic =   282.2832   Anisotropy =    68.3564

      3  C    Isotropic =    44.3047   Anisotropy =   167.8427

      4  C    Isotropic =    47.1271   Anisotropy =   185.5384

      5  H    Isotropic =    24.9112   Anisotropy =    11.2052

      6  C    Isotropic =    47.9392   Anisotropy =   191.8093

      7  H    Isotropic =    24.2183   Anisotropy =     6.8022

      8  C    Isotropic =    46.3055   Anisotropy =   196.3017

      9  H    Isotropic =    24.0586   Anisotropy =     3.5355

     10  C    Isotropic =    48.9041   Anisotropy =   189.4957

     11  H    Isotropic =    24.0412   Anisotropy =     6.7637

     12  C    Isotropic =    50.4275   Anisotropy =   182.8554

     13  H    Isotropic =    23.9593   Anisotropy =    11.4325

     14  C    Isotropic =    46.7314   Anisotropy =   168.0690

     15  C    Isotropic =    42.3179   Anisotropy =   196.7610

     16  H    Isotropic =    25.3538   Anisotropy =    11.0777

     17  C    Isotropic =    48.8778   Anisotropy =   190.5376

     18  H    Isotropic =    24.5349   Anisotropy =     6.2406

     19  C    Isotropic =    44.6130   Anisotropy =   199.0592

     20  H    Isotropic =    24.0964   Anisotropy =     3.7683

     21  C    Isotropic =    49.9001   Anisotropy =   186.9297

     22  H    Isotropic =    24.1425   Anisotropy =     7.2382

     23  C    Isotropic =    41.8497   Anisotropy =   179.1459

     24  H    Isotropic =    23.1725   Anisotropy =     9.5199

     25  C    Isotropic =    52.6184   Anisotropy =   165.6447

     26  C    Isotropic =    40.3662   Anisotropy =   179.9009

     27  H    Isotropic =    23.2208   Anisotropy =    10.4848

     28  C    Isotropic =    49.2896   Anisotropy =   188.1494

     29  H    Isotropic =    23.9562   Anisotropy =     7.0499

     30  C    Isotropic =    43.9432   Anisotropy =   200.6502

     31  H    Isotropic =    23.9826   Anisotropy =     3.6919

     32  C    Isotropic =    49.6855   Anisotropy =   190.0912

     33  H    Isotropic =    24.5240   Anisotropy =     6.3678

     34  C    Isotropic =    41.6714   Anisotropy =   198.3225

     35  H    Isotropic =    25.4961   Anisotropy =     9.3407

     36  C    Isotropic =    44.2999   Anisotropy =   167.4439

     37  C    Isotropic =    49.1110   Anisotropy =   187.0166

     38  H    Isotropic =    23.6590   Anisotropy =    10.8164

     39  C    Isotropic =    48.8334   Anisotropy =   189.5037

     40  H    Isotropic =    23.9177   Anisotropy =     6.9712

     41  C    Isotropic =    46.1840   Anisotropy =   196.3329

     42  H    Isotropic =    24.0746   Anisotropy =     3.6506

     43  C    Isotropic =    48.4273   Anisotropy =   190.2188

     44  H    Isotropic =    24.3729   Anisotropy =     6.6145

     45  C    Isotropic =    46.7742   Anisotropy =   191.2691

     46  H    Isotropic =    25.0411   Anisotropy =    13.2944

     47  C    Isotropic =   111.0706   Anisotropy =    63.4921

     48  H    Isotropic =    25.8024   Anisotropy =     4.7424

     49  C    Isotropic =    39.8244   Anisotropy =   194.9040

     50  C    Isotropic =    53.4256   Anisotropy =   181.8690

     51  H    Isotropic =    27.0583   Anisotropy =     6.1664

     52  C    Isotropic =    27.9114   Anisotropy =   176.4686

     53  H    Isotropic =    23.7018   Anisotropy =     9.9305

     54  C    Isotropic =    26.3566   Anisotropy =   176.1911

     55  H    Isotropic =    23.0299   Anisotropy =     8.4572

     56  Rh   Isotropic =  -295.9719   Anisotropy =   329.6338

     57  C    Isotropic =    72.2012   Anisotropy =   131.8146

     58  C    Isotropic =    78.5369   Anisotropy =   115.0014

     59  C    Isotropic =    80.0214   Anisotropy =   119.0503

     60  C    Isotropic =    71.5079   Anisotropy =   125.1439

     61  C    Isotropic =   153.9853   Anisotropy =    25.2450

     62  H    Isotropic =    26.8316   Anisotropy =     6.5101

     63  H    Isotropic =    26.1108   Anisotropy =     4.1825

     64  C    Isotropic =   147.7654   Anisotropy =    28.7829

     65  C    Isotropic =   153.9611   Anisotropy =    25.2333

     66  H    Isotropic =    26.8802   Anisotropy =     6.9827

     67  C    Isotropic =   148.0550   Anisotropy =    28.7565

     68  H    Isotropic =    27.1692   Anisotropy =     4.3491

     69  H    Isotropic =    29.9567   Anisotropy =    11.2030

     70  H    Isotropic =    29.7574   Anisotropy =     9.6367

     71  H    Isotropic =    28.9333   Anisotropy =    12.8071

     72  H    Isotropic =    28.8213   Anisotropy =     8.2478

     73  H    Isotropic =    29.6773   Anisotropy =     9.7063

     74  H    Isotropic =    29.6825   Anisotropy =    11.8190

     75  H    Isotropic =    29.3375   Anisotropy =     7.2444

     76  H    Isotropic =    29.3834   Anisotropy =    12.5264

     77  C    Isotropic =    57.6578   Anisotropy =   144.4867

     78  H    Isotropic =    24.8699   Anisotropy =    10.5460

     79  N    Isotropic =  -108.2927   Anisotropy =   609.6794

 The electronic state is 1-A.
 Alpha  occ. eigenvalues --  -77.24377 -77.24297 -14.39856 -10.32031 -10.30300
 Alpha  occ. eigenvalues --  -10.30057 -10.30013 -10.29951 -10.29742 -10.29530
 Alpha  occ. eigenvalues --  -10.29469 -10.29361 -10.29279 -10.29245 -10.29083
 Alpha  occ. eigenvalues --  -10.28818 -10.28803 -10.28716 -10.28645 -10.28631
 Alpha  occ. eigenvalues --  -10.28598 -10.28415 -10.28372 -10.28051 -10.27932
 Alpha  occ. eigenvalues --  -10.27917 -10.27880 -10.27872 -10.27863 -10.27849
 Alpha  occ. eigenvalues --  -10.27813 -10.27793 -10.27761 -10.27745 -10.27730
 Alpha  occ. eigenvalues --  -10.27701 -10.27693 -10.27639 -10.27582 -10.27502
 Alpha  occ. eigenvalues --  -10.27425  -6.70305  -6.70229  -4.86589  -4.86523
 Alpha  occ. eigenvalues --   -4.86523  -4.86441  -4.86214  -4.86135  -3.31866
 Alpha  occ. eigenvalues --   -2.08763  -2.08113  -2.05319  -1.03552  -0.97280
 Alpha  occ. eigenvalues --   -0.97013  -0.96454  -0.96372  -0.94714  -0.93334
 Alpha  occ. eigenvalues --   -0.89451  -0.88475  -0.88265  -0.87657  -0.85798
 Alpha  occ. eigenvalues --   -0.85691  -0.85620  -0.85529  -0.85490  -0.85188
 Alpha  occ. eigenvalues --   -0.85138  -0.83666  -0.80604  -0.78087  -0.76052
 Alpha  occ. eigenvalues --   -0.75190  -0.72683  -0.71823  -0.71513  -0.71416
 Alpha  occ. eigenvalues --   -0.71344  -0.70828  -0.70607  -0.70542  -0.70376
 Alpha  occ. eigenvalues --   -0.67419  -0.66525  -0.66111  -0.63086  -0.62894
 Alpha  occ. eigenvalues --   -0.62480  -0.62449  -0.60807  -0.60304  -0.60253
 Alpha  occ. eigenvalues --   -0.58381  -0.57392  -0.56867  -0.56621  -0.56507
 Alpha  occ. eigenvalues --   -0.56449  -0.56397  -0.56118  -0.55849  -0.55754
 Alpha  occ. eigenvalues --   -0.55202  -0.55038  -0.53903  -0.53785  -0.53212
 Alpha  occ. eigenvalues --   -0.53145  -0.53001  -0.52906  -0.52814  -0.52784
 Alpha  occ. eigenvalues --   -0.52191  -0.52137  -0.51671  -0.50715  -0.49903
 Alpha  occ. eigenvalues --   -0.49090  -0.48678  -0.48346  -0.48090  -0.48002
 Alpha  occ. eigenvalues --   -0.47625  -0.47527  -0.46592  -0.46457  -0.46248
 Alpha  occ. eigenvalues --   -0.45683  -0.45576  -0.45522  -0.45275  -0.45094
 Alpha  occ. eigenvalues --   -0.44875  -0.43944  -0.43855  -0.43584  -0.43341
 Alpha  occ. eigenvalues --   -0.42964  -0.41746  -0.38468  -0.37963  -0.37684
 Alpha  occ. eigenvalues --   -0.37108  -0.36923  -0.36640  -0.36376  -0.36270
 Alpha  occ. eigenvalues --   -0.36126  -0.35888  -0.35199  -0.35143  -0.34906
 Alpha  occ. eigenvalues --   -0.34801  -0.34323  -0.34108  -0.31067
 Alpha virt. eigenvalues --   -0.16694  -0.15256  -0.14526  -0.14229  -0.13253
 Alpha virt. eigenvalues --   -0.12617  -0.12427  -0.12180  -0.11626  -0.11366
 Alpha virt. eigenvalues --   -0.10529  -0.10238  -0.09588  -0.08067  -0.06946

 Mulliken charges:
               1
     1  P    0.398573
     2  P    0.386973
     3  C   -0.170318
     4  C   -0.115355
     5  H    0.163150
     6  C   -0.094118
     7  H    0.134004
     8  C   -0.085269
     9  H    0.140721
    10  C   -0.115616
    11  H    0.132300
    12  C   -0.026826
    13  H    0.122272
    14  C   -0.342566
    15  C    0.027304
    16  H    0.153523
    17  C   -0.102305
    18  H    0.137781
    19  C   -0.080524
    20  H    0.141045
    21  C   -0.124080
    22  H    0.129720
    23  C    0.033561
    24  H    0.142422
    25  C   -0.233251
    26  C   -0.044718
    27  H    0.160686
    28  C   -0.120734
    29  H    0.130827
    30  C   -0.087343
    31  H    0.140407
    32  C   -0.086598
    33  H    0.139937
    34  C   -0.047856
    35  H    0.172007
    36  C   -0.185993
    37  C   -0.076977
    38  H    0.143571
    39  C   -0.101886
    40  H    0.132160
    41  C   -0.089175
    42  H    0.140479
    43  C   -0.108744
    44  H    0.136701
    45  C   -0.050865
    46  H    0.167163
    47  C   -0.700008
    48  H    0.220662
    49  C    0.061120
    50  C    0.008756
    51  H    0.174974
    52  C   -0.149914
    53  H    0.119405
    54  C   -0.126903
    55  H    0.119673
    56  Rh  -0.659751
    57  C   -0.024705
    58  C   -0.096391
    59  C   -0.017845
    60  C   -0.103600
    61  C   -0.349691
    62  H    0.210088
    63  H    0.189277
    64  C   -0.230212
    65  C   -0.347174
    66  H    0.186976
    67  C   -0.236589
    68  H    0.221352
    69  H    0.170915
    70  H    0.167291
    71  H    0.174493
    72  H    0.130773
    73  H    0.169145
    74  H    0.168761
    75  H    0.134919
    76  H    0.172266
    77  C   -0.071872
    78  H    0.133787
    79  N   -0.036150
 Sum of Mulliken charges =   1.00000

 Dipole moment (field-independent basis, Debye):
    X=             -3.2402    Y=             -1.5141    Z=             -0.6418  Tot=              3.6336
 Quadrupole moment (field-independent basis, Debye-Ang):
   XX=           -240.5407   YY=           -224.8676   ZZ=           -219.8495
   XY=            -12.6314   XZ=             -7.8109   YZ=             -2.4368

 Summary of Natural Population Analysis:

                                       Natural Population
                Natural  -----------------------------------------------
    Atom  No    Charge         Core      Valence    Rydberg      Total
 -----------------------------------------------------------------------
      P    1    1.13210      9.99638     3.82004    0.05148    13.86790
      P    2    1.13873      9.99634     3.81254    0.05239    13.86127
      C    3   -0.33836      1.99899     4.31608    0.02329     6.33836
      C    4   -0.19724      1.99909     4.18280    0.01535     6.19724
      H    5    0.21520      0.00000     0.78297    0.00183     0.78480
      C    6   -0.18820      1.99920     4.17451    0.01450     6.18820
      H    7    0.22356      0.00000     0.77522    0.00122     0.77644
      C    8   -0.17997      1.99920     4.16620    0.01457     6.17997
      H    9    0.22424      0.00000     0.77459    0.00117     0.77576
      C   10   -0.18809      1.99920     4.17430    0.01458     6.18809
      H   11    0.22276      0.00000     0.77602    0.00123     0.77724
      C   12   -0.19962      1.99908     4.18528    0.01525     6.19962
      H   13    0.20895      0.00000     0.78888    0.00216     0.79105
      C   14   -0.35705      1.99898     4.33396    0.02411     6.35705
      C   15   -0.17884      1.99909     4.16348    0.01627     6.17884
      H   16    0.22409      0.00000     0.77365    0.00226     0.77591
      C   17   -0.19198      1.99919     4.17794    0.01485     6.19198
      H   18    0.22504      0.00000     0.77371    0.00125     0.77496
      C   19   -0.17263      1.99921     4.15891    0.01452     6.17263
      H   20    0.22361      0.00000     0.77522    0.00116     0.77639
      C   21   -0.19925      1.99919     4.18548    0.01457     6.19925
      H   22    0.22111      0.00000     0.77763    0.00126     0.77889
      C   23   -0.18593      1.99909     4.17161    0.01523     6.18593
      H   24    0.21934      0.00000     0.77837    0.00229     0.78066
      C   25   -0.36396      1.99899     4.34033    0.02465     6.36396
      C   26   -0.18017      1.99911     4.16516    0.01590     6.18017
      H   27    0.21896      0.00000     0.77900    0.00204     0.78104
      C   28   -0.20084      1.99919     4.18691    0.01473     6.20084
      H   29    0.22146      0.00000     0.77731    0.00123     0.77854
      C   30   -0.16931      1.99921     4.15566    0.01444     6.16931
      H   31    0.22394      0.00000     0.77493    0.00112     0.77606
      C   32   -0.19509      1.99919     4.18088    0.01502     6.19509
      H   33    0.22589      0.00000     0.77286    0.00125     0.77411
      C   34   -0.18065      1.99910     4.16421    0.01734     6.18065
      H   35    0.22474      0.00000     0.77294    0.00233     0.77526
      C   36   -0.34368      1.99898     4.32121    0.02349     6.34368
      C   37   -0.19997      1.99909     4.18584    0.01504     6.19997
      H   38    0.20797      0.00000     0.79018    0.00185     0.79203
      C   39   -0.19156      1.99920     4.17764    0.01473     6.19156
      H   40    0.22192      0.00000     0.77685    0.00123     0.77808
      C   41   -0.17882      1.99920     4.16496    0.01466     6.17882
      H   42    0.22413      0.00000     0.77470    0.00117     0.77587
      C   43   -0.18771      1.99920     4.17386    0.01465     6.18771
      H   44    0.22402      0.00000     0.77477    0.00121     0.77598
      C   45   -0.19395      1.99910     4.17975    0.01510     6.19395
      H   46    0.22513      0.00000     0.77317    0.00170     0.77487
      C   47   -0.75240      1.99929     4.72754    0.02557     6.75240
      H   48    0.25781      0.00000     0.73906    0.00313     0.74219
      C   49   -0.04214      1.99903     4.01923    0.02388     6.04214
      C   50   -0.23626      1.99905     4.22166    0.01555     6.23626
      H   51    0.22544      0.00000     0.77174    0.00282     0.77456
      C   52    0.03852      1.99925     3.93933    0.02290     5.96148
      H   53    0.19936      0.00000     0.79897    0.00166     0.80064
      C   54    0.03708      1.99925     3.94057    0.02311     5.96292
      H   55    0.20110      0.00000     0.79735    0.00155     0.79890
     Rh   56   -0.40339     35.98580     9.38976    0.02784    45.40339
      C   57   -0.16245      1.99906     4.14396    0.01943     6.16245
      C   58   -0.17103      1.99908     4.15202    0.01993     6.17103
      C   59   -0.18217      1.99907     4.16380    0.01931     6.18217
      C   60   -0.15183      1.99910     4.13271    0.02002     6.15183
      C   61   -0.42416      1.99936     4.41298    0.01183     6.42416
      H   62    0.23069      0.00000     0.76700    0.00231     0.76931
      H   63    0.22600      0.00000     0.77210    0.00190     0.77400
      C   64   -0.41799      1.99935     4.40598    0.01266     6.41799
      C   65   -0.42307      1.99936     4.41195    0.01176     6.42307
      H   66    0.22590      0.00000     0.77218    0.00192     0.77410
      C   67   -0.41846      1.99935     4.40615    0.01296     6.41846
      H   68    0.23246      0.00000     0.76548    0.00206     0.76754
      H   69    0.22972      0.00000     0.76880    0.00149     0.77028
      H   70    0.21483      0.00000     0.78321    0.00197     0.78517
      H   71    0.23485      0.00000     0.76325    0.00190     0.76515
      H   72    0.21370      0.00000     0.78476    0.00154     0.78630
      H   73    0.21589      0.00000     0.78215    0.00195     0.78411
      H   74    0.22837      0.00000     0.77015    0.00148     0.77163
      H   75    0.21791      0.00000     0.78055    0.00154     0.78209
      H   76    0.23457      0.00000     0.76357    0.00187     0.76543
      C   77   -0.24115      1.99907     4.22847    0.01361     6.24115
      H   78    0.21141      0.00000     0.78670    0.00188     0.78859
      N   79   -0.38312      1.99949     5.36563    0.01800     7.38312
 =======================================================================
   * Total *    1.00000    133.94573   211.19127    0.86300   346.00000

 Normal termination of Gaussian 16 at Wed Jan 22 04:13:20 2025.
