 Gaussian 16, Revision B.01,
 Gaussian 16:  ES64L-G16RevB.01 20-Dec-2017

 ------------------------------------------
 # nmr=giao b3lyp/genecp pop=nbo scfcyc=200
 ------------------------------------------

 ---------
 MS-25_SPE
 ---------
 Symbolic Z-matrix:
 Charge =  1 Multiplicity = 1

                         Standard orientation:
 ---------------------------------------------------------------------
 Center     Atomic      Atomic             Coordinates (Angstroms)
 Number     Number       Type             X           Y           Z
 ---------------------------------------------------------------------
      1          6           0       -1.094225    0.245232    0.954699
      2          1           0       -0.681468    0.138393    1.960749
      3          6           0       -0.461734   -2.672301    1.404269
      4          6           0       -0.886379   -3.968342    1.097979
      5          1           0       -1.276914   -4.199475    0.116629
      6          6           0       -0.816449   -4.975814    2.056089
      7          1           0       -1.153839   -5.973777    1.805829
      8          6           0       -0.320874   -4.704384    3.325529
      9          1           0       -0.271810   -5.488835    4.069989
     10          6           0        0.120912   -3.420502    3.633289
     11          1           0        0.518586   -3.203510    4.616809
     12          6           0        0.060772   -2.414431    2.677609
     13          1           0        0.439691   -1.431419    2.930379
     14          6           0       -1.585398   -1.867499   -1.194221
     15          6           0       -2.892476   -2.278652   -0.903521
     16          1           0       -3.248646   -2.292395    0.117909
     17          6           0       -3.742734   -2.675066   -1.927781
     18          1           0       -4.751400   -2.991635   -1.694071
     19          6           0       -3.302373   -2.663354   -3.248851
     20          1           0       -3.968030   -2.975431   -4.043841
     21          6           0       -2.007665   -2.253250   -3.546021
     22          1           0       -1.661335   -2.245207   -4.571841
     23          6           0       -1.152257   -1.857197   -2.522961
     24          1           0       -0.144361   -1.538377   -2.755691
     25          6           0        0.637993    2.688777    1.376679
     26          6           0        0.174533    2.690876    2.693349
     27          1           0       -0.533642    1.948661    3.034789
     28          6           0        0.597023    3.672298    3.586279
     29          1           0        0.221493    3.668006    4.601829
     30          6           0        1.487772    4.656560    3.176039
     31          1           0        1.813898    5.418934    3.872009
     32          6           0        1.953093    4.663431    1.863709
     33          1           0        2.641308    5.431777    1.534479
     34          6           0        1.533623    3.686619    0.970169
     35          1           0        1.891664    3.716472   -0.052261
     36          6           0       -0.568584    2.351981   -1.237051
     37          6           0       -0.309791    1.967666   -2.555301
     38          1           0        0.331302    1.116263   -2.748011
     39          6           0       -0.863467    2.678207   -3.615441
     40          1           0       -0.655813    2.375933   -4.634231
     41          6           0       -1.671685    3.781823   -3.365361
     42          1           0       -2.097284    4.339822   -4.189971
     43          6           0       -1.925977    4.175748   -2.053851
     44          1           0       -2.550760    5.037891   -1.857241
     45          6           0       -1.378301    3.466937   -0.992361
     46          1           0       -1.578835    3.785481    0.022189
     47          6           0       -2.558579    0.547201    1.076319
     48          6           0       -3.161971    0.486033    2.339439
     49          1           0       -2.566076    0.227651    3.207789
     50          6           0       -4.518066    0.743170    2.499009
     51          1           0       -4.963437    0.690249    3.484549
     52          6           0       -5.298369    1.069695    1.394649
     53          1           0       -6.354525    1.274836    1.515909
     54          6           0       -4.713748    1.129214    0.133859
     55          1           0       -5.315293    1.378646   -0.731311
     56          6           0       -3.358083    0.866877   -0.026801
     57          1           0       -2.926342    0.909498   -1.016561
     58         15           0       -0.424777   -1.339702    0.125899
     59         15           0        0.185367    1.395416    0.141529
     60         45           0        1.647512   -0.374583   -0.412281
     61          6           0        3.003786   -2.192890   -0.142991
     62          6           0        2.616387   -2.118592   -1.464181
     63          6           0        3.474733    0.673971   -1.300561
     64          6           0        3.595373    0.660358    0.072459
     65          6           0        4.355624   -1.772307    0.402409
     66          1           0        2.419553   -2.837028    0.504469
     67          1           0        1.784775   -2.746456   -1.768161
     68          6           0        3.410519   -1.534808   -2.607141
     69          6           0        4.200085   -0.253554   -2.257711
     70          1           0        3.049061    1.566359   -1.747601
     71          6           0        4.397623   -0.312398    0.901049
     72          1           0        3.288641    1.552044    0.607909
     73          1           0        4.610601   -2.429202    1.235619
     74          1           0        5.122081   -1.937582   -0.354611
     75          1           0        4.096084   -2.292842   -3.006071
     76          1           0        2.713253   -1.313354   -3.418671
     77          1           0        5.175879   -0.511403   -1.846571
     78          1           0        4.399945    0.290332   -3.182421
     79          1           0        4.012284   -0.271480    1.921969
     80          1           0        5.438810    0.028662    0.961819
 ---------------------------------------------------------------------

 SCF Done:  E(RB3LYP) =  -2302.72961318     A.U. after   16 cycles

      1  C    Isotropic =   110.4600   Anisotropy =    68.7821

      2  H    Isotropic =    25.6149   Anisotropy =     4.8201

      3  C    Isotropic =    44.1450   Anisotropy =   168.8067

      4  C    Isotropic =    46.5630   Anisotropy =   191.2362

      5  H    Isotropic =    24.9930   Anisotropy =    13.2921

      6  C    Isotropic =    48.8030   Anisotropy =   189.2211

      7  H    Isotropic =    24.4239   Anisotropy =     6.6002

      8  C    Isotropic =    46.4771   Anisotropy =   195.1058

      9  H    Isotropic =    24.1262   Anisotropy =     3.5897

     10  C    Isotropic =    48.9873   Anisotropy =   188.9549

     11  H    Isotropic =    23.9553   Anisotropy =     6.9406

     12  C    Isotropic =    48.9250   Anisotropy =   187.5982

     13  H    Isotropic =    23.5941   Anisotropy =    10.9707

     14  C    Isotropic =    51.8592   Anisotropy =   165.1831

     15  C    Isotropic =    41.2126   Anisotropy =   199.1735

     16  H    Isotropic =    25.4045   Anisotropy =     9.3571

     17  C    Isotropic =    50.0584   Anisotropy =   189.3287

     18  H    Isotropic =    24.5662   Anisotropy =     6.3669

     19  C    Isotropic =    44.4776   Anisotropy =   199.7455

     20  H    Isotropic =    24.0299   Anisotropy =     3.6795

     21  C    Isotropic =    49.4621   Anisotropy =   187.7545

     22  H    Isotropic =    23.9816   Anisotropy =     7.0377

     23  C    Isotropic =    40.9039   Anisotropy =   180.1916

     24  H    Isotropic =    23.3026   Anisotropy =    10.1404

     25  C    Isotropic =    43.6249   Anisotropy =   170.4506

     26  C    Isotropic =    50.2451   Anisotropy =   184.7370

     27  H    Isotropic =    23.7989   Anisotropy =    11.4118

     28  C    Isotropic =    49.2270   Anisotropy =   188.6441

     29  H    Isotropic =    24.0456   Anisotropy =     6.7975

     30  C    Isotropic =    46.5494   Anisotropy =   195.2982

     31  H    Isotropic =    24.0861   Anisotropy =     3.5222

     32  C    Isotropic =    47.9629   Anisotropy =   191.5257

     33  H    Isotropic =    24.2415   Anisotropy =     6.7087

     34  C    Isotropic =    46.9379   Anisotropy =   186.9974

     35  H    Isotropic =    24.9518   Anisotropy =    11.4048

     36  C    Isotropic =    46.4343   Anisotropy =   170.5941

     37  C    Isotropic =    40.8904   Anisotropy =   178.8394

     38  H    Isotropic =    23.0640   Anisotropy =    10.0054

     39  C    Isotropic =    50.3765   Anisotropy =   185.9647

     40  H    Isotropic =    24.1485   Anisotropy =     7.1408

     41  C    Isotropic =    44.9782   Anisotropy =   198.4669

     42  H    Isotropic =    24.1184   Anisotropy =     3.6592

     43  C    Isotropic =    49.4735   Anisotropy =   189.2741

     44  H    Isotropic =    24.5861   Anisotropy =     6.2272

     45  C    Isotropic =    41.7553   Anisotropy =   197.4191

     46  H    Isotropic =    25.3305   Anisotropy =    10.7358

     47  C    Isotropic =    46.4974   Anisotropy =   177.7825

     48  C    Isotropic =    50.0416   Anisotropy =   154.3739

     49  H    Isotropic =    24.4926   Anisotropy =    10.1864

     50  C    Isotropic =    49.5805   Anisotropy =   186.6499

     51  H    Isotropic =    24.3617   Anisotropy =     6.1571

     52  C    Isotropic =    48.7060   Anisotropy =   193.0823

     53  H    Isotropic =    24.4524   Anisotropy =     3.5091

     54  C    Isotropic =    50.9002   Anisotropy =   188.0903

     55  H    Isotropic =    25.0491   Anisotropy =     7.8271

     56  C    Isotropic =    45.5494   Anisotropy =   196.0083

     57  H    Isotropic =    26.7120   Anisotropy =     6.5437

     58  P    Isotropic =   280.5527   Anisotropy =    67.9541

     59  P    Isotropic =   284.4922   Anisotropy =    68.3855

     60  Rh   Isotropic =  -293.2101   Anisotropy =   325.0349

     61  C    Isotropic =    74.1255   Anisotropy =   128.6164

     62  C    Isotropic =    78.8692   Anisotropy =   113.1128

     63  C    Isotropic =    80.5350   Anisotropy =   119.4844

     64  C    Isotropic =    70.2529   Anisotropy =   127.4475

     65  C    Isotropic =   153.9308   Anisotropy =    25.2083

     66  H    Isotropic =    27.5489   Anisotropy =     5.3982

     67  H    Isotropic =    26.3845   Anisotropy =     4.6811

     68  C    Isotropic =   147.9012   Anisotropy =    29.4903

     69  C    Isotropic =   153.9639   Anisotropy =    25.4056

     70  H    Isotropic =    26.6796   Anisotropy =     6.7150

     71  C    Isotropic =   147.9692   Anisotropy =    29.2781

     72  H    Isotropic =    26.5191   Anisotropy =     5.1603

     73  H    Isotropic =    30.0884   Anisotropy =    10.9808

     74  H    Isotropic =    29.8625   Anisotropy =     9.7271

     75  H    Isotropic =    28.9815   Anisotropy =    12.8095

     76  H    Isotropic =    28.8176   Anisotropy =     8.5156

     77  H    Isotropic =    29.6831   Anisotropy =     9.7245

     78  H    Isotropic =    29.6823   Anisotropy =    11.7712

     79  H    Isotropic =    29.3273   Anisotropy =     6.9705

     80  H    Isotropic =    29.2936   Anisotropy =    12.5256

 The electronic state is 1-A.
 Alpha  occ. eigenvalues --  -77.23724 -77.23686 -10.31322 -10.29596 -10.29557
 Alpha  occ. eigenvalues --  -10.29467 -10.29266 -10.28869 -10.28830 -10.28742
 Alpha  occ. eigenvalues --  -10.28684 -10.28543 -10.28397 -10.28354 -10.28282
 Alpha  occ. eigenvalues --  -10.28182 -10.28177 -10.28160 -10.27990 -10.27947
 Alpha  occ. eigenvalues --  -10.27665 -10.27529 -10.27522 -10.27503 -10.27494
 Alpha  occ. eigenvalues --  -10.27466 -10.27453 -10.27424 -10.27385 -10.27374
 Alpha  occ. eigenvalues --  -10.27338 -10.27313 -10.27311 -10.27252 -10.27206
 Alpha  occ. eigenvalues --  -10.27093 -10.26937 -10.26613 -10.26368 -10.26314
 Alpha  occ. eigenvalues --  -10.26248  -6.69665  -6.69621  -4.85939  -4.85906
 Alpha  occ. eigenvalues --   -4.85887  -4.85840  -4.85578  -4.85530  -3.31375
 Alpha  occ. eigenvalues --   -2.08265  -2.07610  -2.04846  -0.96919  -0.96584
 Alpha  occ. eigenvalues --   -0.96033  -0.95952  -0.95569  -0.94284  -0.90058
 Alpha  occ. eigenvalues --   -0.89010  -0.87856  -0.87211  -0.86191  -0.85298
 Alpha  occ. eigenvalues --   -0.85230  -0.85173  -0.85075  -0.84806  -0.84754
 Alpha  occ. eigenvalues --   -0.83965  -0.81388  -0.80163  -0.77666  -0.75556
 Alpha  occ. eigenvalues --   -0.73873  -0.71320  -0.71012  -0.70961  -0.70876
 Alpha  occ. eigenvalues --   -0.70414  -0.70318  -0.70123  -0.69941  -0.69146
 Alpha  occ. eigenvalues --   -0.66972  -0.65711  -0.65635  -0.62571  -0.62314
 Alpha  occ. eigenvalues --   -0.62217  -0.61932  -0.60379  -0.59941  -0.59811
 Alpha  occ. eigenvalues --   -0.56932  -0.56658  -0.56349  -0.56140  -0.56102
 Alpha  occ. eigenvalues --   -0.55981  -0.55912  -0.55565  -0.55438  -0.55309
 Alpha  occ. eigenvalues --   -0.54715  -0.54201  -0.53504  -0.52910  -0.52757
 Alpha  occ. eigenvalues --   -0.52696  -0.52590  -0.52440  -0.52391  -0.52330
 Alpha  occ. eigenvalues --   -0.52140  -0.51403  -0.51222  -0.49833  -0.49539
 Alpha  occ. eigenvalues --   -0.48620  -0.48148  -0.47788  -0.47545  -0.47314
 Alpha  occ. eigenvalues --   -0.47131  -0.46566  -0.46039  -0.45918  -0.45844
 Alpha  occ. eigenvalues --   -0.45339  -0.45101  -0.44982  -0.44922  -0.44787
 Alpha  occ. eigenvalues --   -0.43813  -0.43562  -0.43404  -0.43187  -0.43098
 Alpha  occ. eigenvalues --   -0.42910  -0.42174  -0.41284  -0.38058  -0.37423
 Alpha  occ. eigenvalues --   -0.36678  -0.36390  -0.36325  -0.36056  -0.35876
 Alpha  occ. eigenvalues --   -0.35743  -0.35434  -0.34980  -0.34546  -0.34362
 Alpha  occ. eigenvalues --   -0.34223  -0.33693  -0.33594  -0.30595
 Alpha virt. eigenvalues --   -0.16216  -0.14755  -0.13897  -0.13431  -0.12717
 Alpha virt. eigenvalues --   -0.12148  -0.11758  -0.11543  -0.11118  -0.10903
 Alpha virt. eigenvalues --   -0.09719  -0.09551  -0.09143  -0.07627  -0.06673

 Mulliken charges:
               1
     1  C   -0.686864
     2  H    0.208271
     3  C   -0.162252
     4  C   -0.060253
     5  H    0.166355
     6  C   -0.108038
     7  H    0.135359
     8  C   -0.091829
     9  H    0.138646
    10  C   -0.103541
    11  H    0.130570
    12  C   -0.074795
    13  H    0.140247
    14  C   -0.227132
    15  C   -0.040160
    16  H    0.169876
    17  C   -0.089747
    18  H    0.135617
    19  C   -0.087483
    20  H    0.137925
    21  C   -0.123212
    22  H    0.129196
    23  C   -0.047144
    24  H    0.161654
    25  C   -0.170852
    26  C   -0.034951
    27  H    0.114950
    28  C   -0.117170
    29  H    0.130706
    30  C   -0.090730
    31  H    0.139007
    32  C   -0.086610
    33  H    0.133485
    34  C   -0.106200
    35  H    0.160901
    36  C   -0.355693
    37  C    0.027864
    38  H    0.153936
    39  C   -0.126842
    40  H    0.127625
    41  C   -0.084670
    42  H    0.138483
    43  C   -0.092872
    44  H    0.135578
    45  C    0.020215
    46  H    0.151048
    47  C    0.120041
    48  C   -0.128073
    49  H    0.119293
    50  C   -0.101147
    51  H    0.127632
    52  C   -0.095060
    53  H    0.131008
    54  C   -0.116058
    55  H    0.126883
    56  C   -0.070306
    57  H    0.164321
    58  P    0.367709
    59  P    0.420363
    60  Rh  -0.673502
    61  C   -0.026674
    62  C   -0.102049
    63  C   -0.018119
    64  C   -0.105449
    65  C   -0.354443
    66  H    0.209393
    67  H    0.198077
    68  C   -0.218672
    69  C   -0.351842
    70  H    0.182654
    71  C   -0.227444
    72  H    0.221885
    73  H    0.169198
    74  H    0.166899
    75  H    0.171999
    76  H    0.129777
    77  H    0.168954
    78  H    0.169169
    79  H    0.133074
    80  H    0.172036
 Sum of Mulliken charges =   1.00000

 Dipole moment (field-independent basis, Debye):
    X=              0.5410    Y=             -0.2058    Z=             -0.1665  Tot=              0.6023
 Quadrupole moment (field-independent basis, Debye-Ang):
   XX=           -222.0164   YY=           -223.5082   ZZ=           -223.0599
   XY=              2.3240   XZ=              3.0580   YZ=             -0.1613

 Summary of Natural Population Analysis:

                                       Natural Population
                Natural  -----------------------------------------------
    Atom  No    Charge         Core      Valence    Rydberg      Total
 -----------------------------------------------------------------------
      C    1   -0.73866      1.99929     4.71407    0.02530     6.73866
      H    2    0.25461      0.00000     0.74225    0.00314     0.74539
      C    3   -0.34040      1.99898     4.31778    0.02364     6.34040
      C    4   -0.19415      1.99910     4.17998    0.01507     6.19415
      H    5    0.22448      0.00000     0.77382    0.00170     0.77552
      C    6   -0.18893      1.99920     4.17505    0.01468     6.18893
      H    7    0.22299      0.00000     0.77579    0.00121     0.77701
      C    8   -0.18046      1.99920     4.16658    0.01468     6.18046
      H    9    0.22312      0.00000     0.77571    0.00117     0.77688
      C   10   -0.19240      1.99920     4.17850    0.01471     6.19240
      H   11    0.22097      0.00000     0.77780    0.00123     0.77903
      C   12   -0.19750      1.99909     4.18353    0.01488     6.19750
      H   13    0.20770      0.00000     0.79046    0.00183     0.79230
      C   14   -0.36136      1.99899     4.33771    0.02466     6.36136
      C   15   -0.17914      1.99910     4.16270    0.01734     6.17914
      H   16    0.22573      0.00000     0.77198    0.00229     0.77427
      C   17   -0.19617      1.99919     4.18195    0.01502     6.19617
      H   18    0.22385      0.00000     0.77489    0.00126     0.77615
      C   19   -0.17131      1.99921     4.15764    0.01446     6.17131
      H   20    0.22272      0.00000     0.77615    0.00113     0.77728
      C   21   -0.20138      1.99919     4.18742    0.01477     6.20138
      H   22    0.22072      0.00000     0.77804    0.00124     0.77928
      C   23   -0.18070      1.99910     4.16571    0.01589     6.18070
      H   24    0.21716      0.00000     0.78052    0.00232     0.78284
      C   25   -0.33694      1.99899     4.31482    0.02313     6.33694
      C   26   -0.19825      1.99909     4.18393    0.01523     6.19825
      H   27    0.20851      0.00000     0.78933    0.00217     0.79149
      C   28   -0.18894      1.99920     4.17515    0.01460     6.18894
      H   29    0.22164      0.00000     0.77713    0.00123     0.77836
      C   30   -0.18159      1.99920     4.16778    0.01461     6.18159
      H   31    0.22332      0.00000     0.77550    0.00117     0.77668
      C   32   -0.18902      1.99919     4.17525    0.01458     6.18902
      H   33    0.22296      0.00000     0.77581    0.00122     0.77704
      C   34   -0.19951      1.99909     4.18518    0.01524     6.19951
      H   35    0.21711      0.00000     0.78109    0.00180     0.78289
      C   36   -0.35529      1.99898     4.33211    0.02419     6.35529
      C   37   -0.18302      1.99909     4.16866    0.01527     6.18302
      H   38    0.21981      0.00000     0.77812    0.00207     0.78019
      C   39   -0.20061      1.99919     4.18684    0.01457     6.20061
      H   40    0.22012      0.00000     0.77862    0.00126     0.77988
      C   41   -0.17372      1.99921     4.15999    0.01452     6.17372
      H   42    0.22232      0.00000     0.77651    0.00117     0.77768
      C   43   -0.19419      1.99919     4.18014    0.01486     6.19419
      H   44    0.22348      0.00000     0.77526    0.00126     0.77652
      C   45   -0.17696      1.99909     4.16164    0.01624     6.17696
      H   46    0.22423      0.00000     0.77353    0.00224     0.77577
      C   47   -0.08403      1.99904     4.06044    0.02455     6.08403
      C   48   -0.19485      1.99911     4.18136    0.01438     6.19485
      H   49    0.20384      0.00000     0.79436    0.00180     0.79616
      C   50   -0.19587      1.99920     4.18183    0.01483     6.19587
      H   51    0.21977      0.00000     0.77901    0.00122     0.78023
      C   52   -0.19011      1.99920     4.17613    0.01478     6.19011
      H   53    0.21998      0.00000     0.77890    0.00112     0.78002
      C   54   -0.19517      1.99921     4.18084    0.01513     6.19517
      H   55    0.21809      0.00000     0.78057    0.00134     0.78191
      C   56   -0.19110      1.99909     4.17633    0.01568     6.19110
      H   57    0.21878      0.00000     0.77833    0.00289     0.78122
      P   58    1.13447      9.99634     3.81679    0.05240    13.86553
      P   59    1.12787      9.99637     3.82443    0.05132    13.87213
     Rh   60   -0.40594     35.98578     9.39190    0.02826    45.40594
      C   61   -0.16000      1.99907     4.14173    0.01920     6.16000
      C   62   -0.17315      1.99907     4.15423    0.01984     6.17315
      C   63   -0.18347      1.99907     4.16489    0.01952     6.18347
      C   64   -0.15349      1.99907     4.13448    0.01993     6.15349
      C   65   -0.42371      1.99936     4.41258    0.01177     6.42371
      H   66    0.23177      0.00000     0.76625    0.00197     0.76823
      H   67    0.22664      0.00000     0.77142    0.00193     0.77336
      C   68   -0.41720      1.99935     4.40518    0.01267     6.41720
      C   69   -0.42277      1.99936     4.41167    0.01174     6.42277
      H   70    0.22606      0.00000     0.77206    0.00188     0.77394
      C   71   -0.41826      1.99935     4.40639    0.01252     6.41826
      H   72    0.23162      0.00000     0.76613    0.00226     0.76838
      H   73    0.22905      0.00000     0.76946    0.00148     0.77095
      H   74    0.21419      0.00000     0.78383    0.00199     0.78581
      H   75    0.23386      0.00000     0.76421    0.00193     0.76614
      H   76    0.21199      0.00000     0.78646    0.00156     0.78801
      H   77    0.21525      0.00000     0.78278    0.00198     0.78475
      H   78    0.22816      0.00000     0.77034    0.00150     0.77184
      H   79    0.21748      0.00000     0.78102    0.00150     0.78252
      H   80    0.23328      0.00000     0.76480    0.00192     0.76672
 =======================================================================
   * Total *    1.00000    133.94541   211.20954    0.84505   346.00000

 Normal termination of Gaussian 16 at Wed Jan 22 04:10:46 2025.
