 Gaussian 16, Revision B.01,
 Gaussian 16:  ES64L-G16RevB.01 20-Dec-2017

 ------------------------------------------
 # nmr=giao b3lyp/genecp pop=nbo scfcyc=200
 ------------------------------------------

 ---------
 MS-32_SPE
 ---------
 Symbolic Z-matrix:
 Charge =  1 Multiplicity = 1

                         Standard orientation:
 ---------------------------------------------------------------------
 Center     Atomic      Atomic             Coordinates (Angstroms)
 Number     Number       Type             X           Y           Z
 ---------------------------------------------------------------------
      1         15           0       -0.719181   -1.009109    0.096540
      2         15           0        0.878561    1.294140    0.045260
      3          6           0       -0.974139    0.869311    0.076500
      4          6           0       -1.967439    1.610652    0.989920
      5          6           0       -1.939091   -1.819018   -1.022510
      6          6           0       -2.023662   -3.217298   -0.985500
      7          6           0       -2.864213   -3.894758   -1.859300
      8          6           0       -3.625202   -3.187927   -2.786240
      9          6           0       -3.543271   -1.801467   -2.831380
     10          6           0       -2.702211   -1.118228   -1.957770
     11          6           0       -1.128701   -1.644309    1.776320
     12          6           0       -0.095961   -1.882570    2.688310
     13          6           0       -0.381542   -2.350850    3.966990
     14          6           0       -1.698942   -2.591189    4.342230
     15          6           0       -2.732182   -2.364718    3.436550
     16          6           0       -2.451791   -1.894558    2.159100
     17          6           0        0.986632    2.662710   -1.185530
     18          6           0        1.250902    2.342679   -2.520710
     19          6           0        1.247962    3.335019   -3.495780
     20          6           0        0.982043    4.654410   -3.145830
     21          6           0        0.714293    4.980310   -1.819030
     22          6           0        0.714333    3.991960   -0.841310
     23          6           0        1.443981    2.015309    1.641910
     24          6           0        0.864951    1.665020    2.865000
     25          6           0        1.391821    2.149929    4.057390
     26          6           0        2.509202    2.977418    4.045950
     27          6           0        3.102382    3.317428    2.834270
     28          6           0        2.577262    2.839218    1.639580
     29          1           0       -1.224639    1.079351   -0.966710
     30          1           0       -2.025239    1.119012    1.961360
     31          1           0       -1.567788    2.610881    1.180880
     32          1           0       -1.449113   -3.781949   -0.260950
     33          1           0       -2.926813   -4.974748   -1.813830
     34          1           0       -4.282323   -3.716157   -3.465250
     35          1           0       -4.139531   -1.244397   -3.542880
     36          1           0       -2.669910   -0.038658   -2.007310
     37          1           0        0.930959   -1.706080    2.391840
     38          1           0        0.425338   -2.536330    4.664880
     39          1           0       -1.921202   -2.962568    5.334720
     40          1           0       -3.758192   -2.559327    3.722680
     41          1           0       -3.261861   -1.740988    1.458310
     42          1           0        1.454621    1.315269   -2.796690
     43          1           0        1.458302    3.077629   -4.526290
     44          1           0        0.985434    5.427950   -3.903370
     45          1           0        0.507484    6.006780   -1.543110
     46          1           0        0.514633    4.262690    0.187370
     47          1           0        0.006151    1.010400    2.903280
     48          1           0        0.925171    1.879280    4.996210
     49          1           0        2.916202    3.354808    4.975400
     50          1           0        3.974433    3.958997    2.816160
     51          1           0        3.048002    3.121668    0.706370
     52         45           0        1.566929   -0.890861   -0.463100
     53          6           0        3.602860   -0.535012   -1.459370
     54          6           0        3.782590   -0.676042   -0.100200
     55          6           0        2.163298   -3.100981   -0.371700
     56          6           0        1.750618   -2.797311   -1.651300
     57          6           0        3.866929   -1.606002   -2.501490
     58          1           0        3.531080    0.478178   -1.838370
     59          1           0        3.860860    0.233158    0.487380
     60          6           0        4.207719   -1.924633    0.632610
     61          6           0        3.604088   -3.235982    0.084140
     62          1           0        1.422988   -3.532831    0.293090
     63          6           0        2.630908   -2.470542   -2.832490
     64          1           0        0.724248   -3.034380   -1.911790
     65          1           0        4.202729   -1.120623   -3.419410
     66          1           0        4.695428   -2.235483   -2.177530
     67          1           0        5.302859   -1.993433    0.632520
     68          1           0        3.919989   -1.807673    1.679740
     69          1           0        4.212447   -3.621103   -0.733810
     70          1           0        3.649197   -3.990802    0.870930
     71          1           0        2.014829   -1.948221   -3.567720
     72          1           0        2.949708   -3.400562   -3.319820
     73          6           0       -3.360939    1.746603    0.417530
     74          6           0       -4.452379    1.119903    1.019340
     75          6           0       -3.621788    2.528603   -0.709330
     76          1           0       -4.306920    0.526523    1.917150
     77          6           0       -4.921888    2.629844   -1.182330
     78          1           0       -2.819298    3.064982   -1.205490
     79          1           0       -5.156668    3.235974   -2.047930
     80          7           0       -5.706009    1.201734    0.573580
     81          6           0       -5.930399    1.941994   -0.511350
     82          1           0       -6.958259    1.994395   -0.853550
 ---------------------------------------------------------------------

 SCF Done:  E(RB3LYP) =  -2358.09178787     A.U. after   16 cycles

      1  P    Isotropic =   284.7970   Anisotropy =    55.6595

      2  P    Isotropic =   287.6145   Anisotropy =    98.0890

      3  C    Isotropic =   108.1070   Anisotropy =    67.8447

      4  C    Isotropic =   148.6659   Anisotropy =    28.9026

      5  C    Isotropic =    46.2401   Anisotropy =   170.6558

      6  C    Isotropic =    48.1047   Anisotropy =   186.9796

      7  C    Isotropic =    48.5553   Anisotropy =   190.9061

      8  C    Isotropic =    46.6619   Anisotropy =   195.8790

      9  C    Isotropic =    49.6731   Anisotropy =   190.1005

     10  C    Isotropic =    50.0087   Anisotropy =   189.5757

     11  C    Isotropic =    48.1275   Anisotropy =   166.9126

     12  C    Isotropic =    39.6541   Anisotropy =   182.2802

     13  C    Isotropic =    49.6169   Anisotropy =   186.9743

     14  C    Isotropic =    44.1566   Anisotropy =   198.9853

     15  C    Isotropic =    48.2800   Anisotropy =   189.8967

     16  C    Isotropic =    42.1626   Anisotropy =   193.9717

     17  C    Isotropic =    42.4548   Anisotropy =   178.1360

     18  C    Isotropic =    43.8068   Anisotropy =   179.1989

     19  C    Isotropic =    48.1456   Anisotropy =   189.6197

     20  C    Isotropic =    44.6615   Anisotropy =   198.7457

     21  C    Isotropic =    48.4034   Anisotropy =   190.1785

     22  C    Isotropic =    46.7149   Anisotropy =   188.4995

     23  C    Isotropic =    47.7128   Anisotropy =   163.2756

     24  C    Isotropic =    47.4770   Anisotropy =   185.6023

     25  C    Isotropic =    49.5071   Anisotropy =   189.3533

     26  C    Isotropic =    46.3867   Anisotropy =   196.1359

     27  C    Isotropic =    48.1501   Anisotropy =   191.2835

     28  C    Isotropic =    46.8239   Anisotropy =   189.4011

     29  H    Isotropic =    27.3299   Anisotropy =     5.5087

     30  H    Isotropic =    28.9964   Anisotropy =     3.8129

     31  H    Isotropic =    28.9119   Anisotropy =     4.2470

     32  H    Isotropic =    25.0198   Anisotropy =    11.2929

     33  H    Isotropic =    24.3796   Anisotropy =     6.3794

     34  H    Isotropic =    24.3080   Anisotropy =     3.5329

     35  H    Isotropic =    24.6916   Anisotropy =     7.2721

     36  H    Isotropic =    25.2419   Anisotropy =     8.2210

     37  H    Isotropic =    22.9824   Anisotropy =     9.2361

     38  H    Isotropic =    23.9511   Anisotropy =     6.9629

     39  H    Isotropic =    23.7750   Anisotropy =     3.7906

     40  H    Isotropic =    23.9573   Anisotropy =     6.3844

     41  H    Isotropic =    24.3823   Anisotropy =    10.7387

     42  H    Isotropic =    23.4381   Anisotropy =    10.3513

     43  H    Isotropic =    23.9161   Anisotropy =     6.9598

     44  H    Isotropic =    23.8370   Anisotropy =     3.4825

     45  H    Isotropic =    24.0806   Anisotropy =     6.4180

     46  H    Isotropic =    24.2619   Anisotropy =    11.9840

     47  H    Isotropic =    24.6003   Anisotropy =     7.6545

     48  H    Isotropic =    24.3059   Anisotropy =     7.6987

     49  H    Isotropic =    24.0541   Anisotropy =     3.8575

     50  H    Isotropic =    24.1670   Anisotropy =     6.1440

     51  H    Isotropic =    24.6606   Anisotropy =    11.5070

     52  Rh   Isotropic =  -301.3439   Anisotropy =   336.8923

     53  C    Isotropic =    78.7047   Anisotropy =   121.2755

     54  C    Isotropic =    73.1151   Anisotropy =   122.4481

     55  C    Isotropic =    79.3762   Anisotropy =   121.5905

     56  C    Isotropic =    71.6753   Anisotropy =   124.8131

     57  C    Isotropic =   153.9364   Anisotropy =    25.0804

     58  H    Isotropic =    26.8393   Anisotropy =     6.1279

     59  H    Isotropic =    26.6823   Anisotropy =     3.9003

     60  C    Isotropic =   148.0204   Anisotropy =    28.7944

     61  C    Isotropic =   153.9158   Anisotropy =    25.0453

     62  H    Isotropic =    26.9226   Anisotropy =     5.7625

     63  C    Isotropic =   148.3278   Anisotropy =    29.2433

     64  H    Isotropic =    26.8459   Anisotropy =     4.8255

     65  H    Isotropic =    29.7805   Anisotropy =    11.6658

     66  H    Isotropic =    29.7256   Anisotropy =     9.8571

     67  H    Isotropic =    29.2151   Anisotropy =    12.6539

     68  H    Isotropic =    29.3005   Anisotropy =     7.0394

     69  H    Isotropic =    29.7358   Anisotropy =    10.0139

     70  H    Isotropic =    29.8250   Anisotropy =    11.3694

     71  H    Isotropic =    29.2274   Anisotropy =     7.0852

     72  H    Isotropic =    29.2330   Anisotropy =    12.6280

     73  C    Isotropic =    44.3018   Anisotropy =   187.4496

     74  C    Isotropic =    28.2498   Anisotropy =   154.5050

     75  C    Isotropic =    45.2268   Anisotropy =   191.8147

     76  H    Isotropic =    23.4250   Anisotropy =     9.6143

     77  C    Isotropic =    55.6453   Anisotropy =   177.9765

     78  H    Isotropic =    24.9146   Anisotropy =    10.6594

     79  H    Isotropic =    24.6488   Anisotropy =     7.7891

     80  N    Isotropic =  -105.6917   Anisotropy =   593.0501

     81  C    Isotropic =    27.5425   Anisotropy =   179.5471

     82  H    Isotropic =    23.1293   Anisotropy =     5.4674

 The electronic state is 1-A.
 Alpha  occ. eigenvalues --  -77.24058 -77.23920 -14.39433 -10.31638 -10.30015
 Alpha  occ. eigenvalues --  -10.29914 -10.29770 -10.29669 -10.29172 -10.29118
 Alpha  occ. eigenvalues --  -10.29093 -10.29086 -10.28923 -10.28889 -10.28813
 Alpha  occ. eigenvalues --  -10.28680 -10.28658 -10.28564 -10.28493 -10.28455
 Alpha  occ. eigenvalues --  -10.28433 -10.28234 -10.28225 -10.28174 -10.28003
 Alpha  occ. eigenvalues --  -10.27946 -10.27912 -10.27912 -10.27869 -10.27823
 Alpha  occ. eigenvalues --  -10.27737 -10.27726 -10.27715 -10.27624 -10.27621
 Alpha  occ. eigenvalues --  -10.27559 -10.27461 -10.27415 -10.27376 -10.27368
 Alpha  occ. eigenvalues --  -10.27322 -10.26788  -6.70013  -6.69873  -4.86291
 Alpha  occ. eigenvalues --   -4.86246  -4.86153  -4.86098  -4.85912  -4.85779
 Alpha  occ. eigenvalues --   -3.31601  -2.08498  -2.07843  -2.05063  -1.03054
 Alpha  occ. eigenvalues --   -0.97182  -0.96875  -0.96386  -0.96156  -0.94495
 Alpha  occ. eigenvalues --   -0.92764  -0.89337  -0.89237  -0.88075  -0.87539
 Alpha  occ. eigenvalues --   -0.86872  -0.85699  -0.85605  -0.85435  -0.85265
 Alpha  occ. eigenvalues --   -0.85169  -0.84979  -0.84218  -0.80421  -0.78761
 Alpha  occ. eigenvalues --   -0.77893  -0.75912  -0.72984  -0.72034  -0.71595
 Alpha  occ. eigenvalues --   -0.71419  -0.71265  -0.70901  -0.70635  -0.70539
 Alpha  occ. eigenvalues --   -0.70366  -0.69574  -0.67300  -0.66164  -0.65899
 Alpha  occ. eigenvalues --   -0.62914  -0.62521  -0.62334  -0.61335  -0.61145
 Alpha  occ. eigenvalues --   -0.60713  -0.60036  -0.58564  -0.57161  -0.56984
 Alpha  occ. eigenvalues --   -0.56603  -0.56359  -0.56310  -0.56064  -0.55955
 Alpha  occ. eigenvalues --   -0.55706  -0.55692  -0.55208  -0.55007  -0.54112
 Alpha  occ. eigenvalues --   -0.53711  -0.53478  -0.53122  -0.52859  -0.52809
 Alpha  occ. eigenvalues --   -0.52769  -0.52663  -0.52561  -0.51955  -0.51524
 Alpha  occ. eigenvalues --   -0.51118  -0.49462  -0.49137  -0.48786  -0.48364
 Alpha  occ. eigenvalues --   -0.48253  -0.48025  -0.47970  -0.47698  -0.47508
 Alpha  occ. eigenvalues --   -0.47334  -0.46253  -0.46209  -0.46062  -0.45428
 Alpha  occ. eigenvalues --   -0.45353  -0.45241  -0.45093  -0.44808  -0.43960
 Alpha  occ. eigenvalues --   -0.43569  -0.43489  -0.43187  -0.42780  -0.42651
 Alpha  occ. eigenvalues --   -0.41503  -0.38277  -0.37808  -0.37530  -0.37188
 Alpha  occ. eigenvalues --   -0.36668  -0.36488  -0.36403  -0.36054  -0.35971
 Alpha  occ. eigenvalues --   -0.35735  -0.35273  -0.34759  -0.34472  -0.34184
 Alpha  occ. eigenvalues --   -0.33881  -0.33640  -0.30757
 Alpha virt. eigenvalues --   -0.16592  -0.14975  -0.14094  -0.13599  -0.12926
 Alpha virt. eigenvalues --   -0.12617  -0.12032  -0.11859  -0.11260  -0.10915
 Alpha virt. eigenvalues --   -0.10594  -0.10277  -0.09349  -0.07628  -0.06553

 Mulliken charges:
               1
     1  P    0.426804
     2  P    0.422325
     3  C   -0.559968
     4  C   -0.249469
     5  C   -0.154963
     6  C   -0.109200
     7  C   -0.080026
     8  C   -0.096236
     9  C   -0.114080
    10  C   -0.051121
    11  C   -0.368981
    12  C   -0.024913
    13  C   -0.099957
    14  C   -0.091245
    15  C   -0.087711
    16  C   -0.070382
    17  C   -0.247733
    18  C   -0.078181
    19  C   -0.101489
    20  C   -0.091487
    21  C   -0.093322
    22  C   -0.080079
    23  C   -0.096925
    24  C   -0.077779
    25  C   -0.126784
    26  C   -0.098122
    27  C   -0.085212
    28  C   -0.139108
    29  H    0.229471
    30  H    0.183325
    31  H    0.184895
    32  H    0.155559
    33  H    0.134390
    34  H    0.138441
    35  H    0.130851
    36  H    0.142790
    37  H    0.190597
    38  H    0.132387
    39  H    0.139978
    40  H    0.142348
    41  H    0.195417
    42  H    0.182066
    43  H    0.132677
    44  H    0.140747
    45  H    0.137774
    46  H    0.159976
    47  H    0.165466
    48  H    0.132864
    49  H    0.139145
    50  H    0.136474
    51  H    0.165484
    52  Rh  -0.673405
    53  C   -0.048756
    54  C   -0.091679
    55  C   -0.040113
    56  C   -0.092471
    57  C   -0.346217
    58  H    0.199245
    59  H    0.203905
    60  C   -0.230927
    61  C   -0.353097
    62  H    0.189474
    63  C   -0.224133
    64  H    0.212827
    65  H    0.168145
    66  H    0.167594
    67  H    0.173006
    68  H    0.134970
    69  H    0.168205
    70  H    0.169624
    71  H    0.131900
    72  H    0.172864
    73  C    0.066806
    74  C   -0.182696
    75  C   -0.180527
    76  H    0.127181
    77  C   -0.038663
    78  H    0.153446
    79  H    0.137443
    80  N   -0.035706
    81  C   -0.136353
    82  H    0.130326
 Sum of Mulliken charges =   1.00000

 Dipole moment (field-independent basis, Debye):
    X=              3.4661    Y=              0.1195    Z=             -1.0446  Tot=              3.6221
 Quadrupole moment (field-independent basis, Debye-Ang):
   XX=           -244.9303   YY=           -225.7765   ZZ=           -228.5655
   XY=              3.5996   XZ=             10.0751   YZ=             -6.4656

 Summary of Natural Population Analysis:

                                       Natural Population
                Natural  -----------------------------------------------
    Atom  No    Charge         Core      Valence    Rydberg      Total
 -----------------------------------------------------------------------
      P    1    1.12886      9.99636     3.82281    0.05197    13.87114
      P    2    1.13376      9.99634     3.81736    0.05253    13.86624
      C    3   -0.72996      1.99937     4.70726    0.02332     6.72996
      C    4   -0.43571      1.99931     4.41887    0.01754     6.43571
      C    5   -0.34170      1.99898     4.31953    0.02319     6.34170
      C    6   -0.20087      1.99909     4.18662    0.01515     6.20087
      C    7   -0.18947      1.99919     4.17567    0.01460     6.18947
      C    8   -0.18025      1.99920     4.16648    0.01457     6.18025
      C    9   -0.18679      1.99920     4.17303    0.01456     6.18679
      C   10   -0.19341      1.99909     4.17916    0.01517     6.19341
      C   11   -0.35720      1.99898     4.33372    0.02451     6.35720
      C   12   -0.18855      1.99909     4.17384    0.01562     6.18855
      C   13   -0.20046      1.99919     4.18666    0.01460     6.20046
      C   14   -0.17321      1.99921     4.15950    0.01450     6.17321
      C   15   -0.19362      1.99919     4.17989    0.01453     6.19362
      C   16   -0.19097      1.99909     4.17563    0.01625     6.19097
      C   17   -0.34875      1.99899     4.32614    0.02361     6.34875
      C   18   -0.19232      1.99910     4.17784    0.01539     6.19232
      C   19   -0.19457      1.99920     4.18078    0.01460     6.19457
      C   20   -0.17621      1.99921     4.16245    0.01455     6.17621
      C   21   -0.19253      1.99920     4.17873    0.01460     6.19253
      C   22   -0.19547      1.99909     4.18050    0.01587     6.19547
      C   23   -0.34679      1.99899     4.32423    0.02357     6.34679
      C   24   -0.19624      1.99909     4.18214    0.01501     6.19624
      C   25   -0.19088      1.99920     4.17711    0.01457     6.19088
      C   26   -0.18073      1.99920     4.16691    0.01463     6.18073
      C   27   -0.19052      1.99920     4.17666    0.01467     6.19052
      C   28   -0.20089      1.99910     4.18663    0.01516     6.20089
      H   29    0.25859      0.00000     0.73879    0.00262     0.74141
      H   30    0.22446      0.00000     0.77328    0.00226     0.77554
      H   31    0.22900      0.00000     0.76820    0.00281     0.77100
      H   32    0.21697      0.00000     0.78122    0.00181     0.78303
      H   33    0.22301      0.00000     0.77576    0.00123     0.77699
      H   34    0.22340      0.00000     0.77543    0.00117     0.77660
      H   35    0.22200      0.00000     0.77676    0.00124     0.77800
      H   36    0.21199      0.00000     0.78590    0.00211     0.78801
      H   37    0.22476      0.00000     0.77315    0.00209     0.77524
      H   38    0.22170      0.00000     0.77706    0.00124     0.77830
      H   39    0.22383      0.00000     0.77500    0.00117     0.77617
      H   40    0.22596      0.00000     0.77281    0.00122     0.77404
      H   41    0.22723      0.00000     0.77070    0.00207     0.77277
      H   42    0.22177      0.00000     0.77631    0.00192     0.77823
      H   43    0.22223      0.00000     0.77655    0.00122     0.77777
      H   44    0.22393      0.00000     0.77490    0.00117     0.77607
      H   45    0.22415      0.00000     0.77462    0.00123     0.77585
      H   46    0.22183      0.00000     0.77624    0.00194     0.77817
      H   47    0.21503      0.00000     0.78280    0.00217     0.78497
      H   48    0.22194      0.00000     0.77681    0.00124     0.77806
      H   49    0.22351      0.00000     0.77532    0.00116     0.77649
      H   50    0.22345      0.00000     0.77533    0.00122     0.77655
      H   51    0.22059      0.00000     0.77765    0.00176     0.77941
     Rh   52   -0.40411     35.98576     9.38999    0.02836    45.40411
      C   53   -0.17869      1.99906     4.16008    0.01955     6.17869
      C   54   -0.15560      1.99908     4.13676    0.01977     6.15560
      C   55   -0.17726      1.99907     4.15863    0.01957     6.17726
      C   56   -0.15718      1.99907     4.13835    0.01975     6.15718
      C   57   -0.42374      1.99936     4.41257    0.01182     6.42374
      H   58    0.22579      0.00000     0.77208    0.00213     0.77421
      H   59    0.22930      0.00000     0.76857    0.00213     0.77070
      C   60   -0.41850      1.99935     4.40653    0.01261     6.41850
      C   61   -0.42390      1.99936     4.41270    0.01184     6.42390
      H   62    0.22550      0.00000     0.77255    0.00194     0.77450
      C   63   -0.41857      1.99935     4.40661    0.01261     6.41857
      H   64    0.23269      0.00000     0.76509    0.00222     0.76731
      H   65    0.22787      0.00000     0.77062    0.00151     0.77213
      H   66    0.21508      0.00000     0.78293    0.00199     0.78492
      H   67    0.23461      0.00000     0.76350    0.00189     0.76539
      H   68    0.21577      0.00000     0.78269    0.00155     0.78423
      H   69    0.21520      0.00000     0.78283    0.00197     0.78480
      H   70    0.22849      0.00000     0.77004    0.00147     0.77151
      H   71    0.21675      0.00000     0.78171    0.00153     0.78325
      H   72    0.23441      0.00000     0.76370    0.00189     0.76559
      C   73   -0.06858      1.99905     4.05139    0.01813     6.06858
      C   74    0.02980      1.99912     3.94878    0.02231     5.97020
      C   75   -0.18358      1.99909     4.17018    0.01431     6.18358
      H   76    0.18690      0.00000     0.81097    0.00213     0.81310
      C   77   -0.23385      1.99917     4.22042    0.01427     6.23385
      H   78    0.21105      0.00000     0.78698    0.00196     0.78895
      H   79    0.22281      0.00000     0.77592    0.00127     0.77719
      N   80   -0.38657      1.99949     5.36862    0.01847     7.38657
      C   81    0.03198      1.99926     3.94567    0.02310     5.96802
      H   82    0.20021      0.00000     0.79827    0.00152     0.79979
 =======================================================================
   * Total *    1.00000    135.94510   217.18241    0.87249   354.00000

 Normal termination of Gaussian 16 at Wed Jan 22 04:28:05 2025.
