 Gaussian 16, Revision B.01,
 Gaussian 16:  ES64L-G16RevB.01 20-Dec-2017

 ------------------------------------------
 # nmr=giao b3lyp/genecp pop=nbo scfcyc=200
 ------------------------------------------

 ---------
 MS-39_SPE
 ---------
 Symbolic Z-matrix:
 Charge =  1 Multiplicity = 1

                         Standard orientation:
 ---------------------------------------------------------------------
 Center     Atomic      Atomic             Coordinates (Angstroms)
 Number     Number       Type             X           Y           Z
 ---------------------------------------------------------------------
      1         15           0        0.328349   -0.870310    0.179830
      2         15           0       -1.443140    1.275640   -0.208200
      3          6           0        1.012899   -0.996500    1.881340
      4          6           0        2.355349   -0.693211    2.145240
      5          6           0        2.847869   -0.794781    3.440850
      6          6           0        2.012889   -1.195791    4.481160
      7          6           0        0.678059   -1.489980    4.226470
      8          6           0        0.178549   -1.390150    2.931550
      9          1           0        3.002189   -0.369401    1.339510
     10          1           0        3.886729   -0.561481    3.638340
     11          1           0        2.403209   -1.277471    5.487940
     12          1           0        0.025149   -1.798750    5.033180
     13          1           0       -0.863591   -1.607250    2.737030
     14          6           0        1.436299   -1.862321   -0.909900
     15          6           0        1.380989   -1.676891   -2.296080
     16          6           0        2.146929   -2.466961   -3.143640
     17          6           0        2.961919   -3.467241   -2.620470
     18          6           0        3.003159   -3.673691   -1.246850
     19          6           0        2.244569   -2.877921   -0.392930
     20          1           0        0.735129   -0.921110   -2.727090
     21          1           0        2.103919   -2.305081   -4.213450
     22          1           0        3.556329   -4.084671   -3.281870
     23          1           0        3.629049   -4.454321   -0.832840
     24          1           0        2.294459   -3.049251    0.673730
     25          6           0       -1.852820    2.275730    1.282940
     26          6           0       -3.012790    3.060740    1.269980
     27          6           0       -3.417600    3.737490    2.414640
     28          6           0       -2.677190    3.635040    3.587820
     29          6           0       -1.534070    2.843660    3.613290
     30          6           0       -1.127060    2.160660    2.472360
     31          1           0       -3.600280    3.156630    0.365830
     32          1           0       -4.312420    4.346590    2.387030
     33          1           0       -2.991400    4.166060    4.477360
     34          1           0       -0.955390    2.753330    4.523970
     35          1           0       -0.249230    1.532490    2.526800
     36          6           0       -1.797890    2.357260   -1.660100
     37          6           0       -2.182140    1.760150   -2.864640
     38          6           0       -2.362710    2.532290   -4.007830
     39          6           0       -2.161720    3.907240   -3.958040
     40          6           0       -1.773500    4.508520   -2.764100
     41          6           0       -1.589450    3.740700   -1.620030
     42          1           0       -2.335980    0.689300   -2.910160
     43          1           0       -2.664880    2.060060   -4.934210
     44          1           0       -2.306990    4.509530   -4.845920
     45          1           0       -1.613430    5.578620   -2.722160
     46          1           0       -1.291960    4.223620   -0.698470
     47          7           0        2.793470    1.573619   -0.314090
     48          1           0        2.797520    1.552619   -1.329810
     49          7           0        7.002460    0.502629   -0.794170
     50          6           0        0.416310    0.942230   -0.350650
     51          1           0        0.520340    0.882630   -1.439200
     52          6           0        1.464400    1.919779    0.171710
     53          1           0        1.493830    1.908579    1.262110
     54          1           0        1.155900    2.938839   -0.118190
     55          6           0        3.837210    2.497969    0.149390
     56          1           0        3.568020    3.544879   -0.060490
     57          1           0        3.904740    2.406769    1.238750
     58          6           0        5.194680    2.198499   -0.483000
     59          1           0        5.115410    2.243419   -1.574410
     60          1           0        5.875680    3.000859   -0.191410
     61          6           0        5.771370    0.837749   -0.088030
     62          1           0        5.036510    0.067389   -0.328230
     63          1           0        5.915550    0.810359    1.011310
     64          6           0        7.326219   -0.910801   -0.659770
     65          1           0        6.497869   -1.518411   -1.028620
     66          1           0        7.535669   -1.209841    0.383330
     67          1           0        8.207919   -1.144741   -1.258320
     68          6           0        8.133200    1.335979   -0.405570
     69          1           0        7.932450    2.385689   -0.617540
     70          1           0        9.012010    1.048799   -0.984070
     71          1           0        8.383410    1.241449    0.666690
     72         45           0       -2.008911   -1.014710   -0.109180
     73          6           0       -2.257151   -3.181290   -0.745910
     74          6           0       -2.270031   -3.129630    0.632800
     75          6           0       -4.257311   -1.017670    0.277140
     76          6           0       -4.052601   -0.897920   -1.080140
     77          6           0       -3.481561   -3.343510   -1.628390
     78          1           0       -1.306421   -3.400700   -1.219530
     79          1           0       -1.340571   -3.364840    1.140990
     80          6           0       -3.486801   -3.125280    1.525280
     81          6           0       -4.671561   -2.289200    0.993590
     82          1           0       -4.395460   -0.098690    0.837200
     83          6           0       -4.099621   -2.009150   -2.100190
     84          1           0       -4.102450    0.100940   -1.499110
     85          1           0       -3.197031   -3.922130   -2.508730
     86          1           0       -4.228241   -3.941420   -1.105950
     87          1           0       -3.816101   -4.155560    1.709070
     88          1           0       -3.185081   -2.734500    2.499800
     89          1           0       -5.292781   -2.892700    0.332030
     90          1           0       -5.308021   -2.017470    1.837300
     91          1           0       -3.567801   -1.666590   -2.990780
     92          1           0       -5.135891   -2.175550   -2.419940
 ---------------------------------------------------------------------

 SCF Done:  E(RB3LYP) =  -2418.27807700     A.U. after   16 cycles

      1  P    Isotropic =   294.7158   Anisotropy =    80.6033

      2  P    Isotropic =   297.0080   Anisotropy =   100.0937

      3  C    Isotropic =    51.4474   Anisotropy =   162.3046

      4  C    Isotropic =    41.4021   Anisotropy =   197.2921

      5  C    Isotropic =    48.4763   Anisotropy =   189.4244

      6  C    Isotropic =    44.0650   Anisotropy =   199.3593

      7  C    Isotropic =    49.1374   Anisotropy =   188.1809

      8  C    Isotropic =    40.3884   Anisotropy =   182.5604

      9  H    Isotropic =    23.2876   Anisotropy =     8.9316

     10  H    Isotropic =    23.9214   Anisotropy =     6.8421

     11  H    Isotropic =    23.7471   Anisotropy =     3.8409

     12  H    Isotropic =    23.9113   Anisotropy =     6.6042

     13  H    Isotropic =    23.3722   Anisotropy =     9.3096

     14  C    Isotropic =    42.3447   Anisotropy =   173.8763

     15  C    Isotropic =    50.2429   Anisotropy =   186.9733

     16  C    Isotropic =    49.1338   Anisotropy =   189.4399

     17  C    Isotropic =    47.0349   Anisotropy =   195.3920

     18  C    Isotropic =    48.9182   Anisotropy =   190.2340

     19  C    Isotropic =    47.7918   Anisotropy =   190.4950

     20  H    Isotropic =    24.0693   Anisotropy =    10.1823

     21  H    Isotropic =    24.0834   Anisotropy =     6.5573

     22  H    Isotropic =    24.1489   Anisotropy =     3.3215

     23  H    Isotropic =    24.3625   Anisotropy =     6.0136

     24  H    Isotropic =    24.8317   Anisotropy =    12.2436

     25  C    Isotropic =    47.6452   Anisotropy =   162.5098

     26  C    Isotropic =    47.4564   Anisotropy =   188.6143

     27  C    Isotropic =    48.6720   Anisotropy =   190.2948

     28  C    Isotropic =    47.0738   Anisotropy =   195.3394

     29  C    Isotropic =    49.7145   Anisotropy =   188.5511

     30  C    Isotropic =    47.7893   Anisotropy =   185.7095

     31  H    Isotropic =    24.7392   Anisotropy =    11.6983

     32  H    Isotropic =    24.3138   Anisotropy =     6.0481

     33  H    Isotropic =    24.2148   Anisotropy =     4.1106

     34  H    Isotropic =    24.5958   Anisotropy =     8.3519

     35  H    Isotropic =    25.1443   Anisotropy =     7.3031

     36  C    Isotropic =    43.0915   Anisotropy =   174.8198

     37  C    Isotropic =    44.6584   Anisotropy =   178.7505

     38  C    Isotropic =    48.3735   Anisotropy =   188.9733

     39  C    Isotropic =    44.8838   Anisotropy =   197.9484

     40  C    Isotropic =    48.5489   Anisotropy =   189.9055

     41  C    Isotropic =    46.0047   Anisotropy =   189.0929

     42  H    Isotropic =    23.3522   Anisotropy =     9.8623

     43  H    Isotropic =    23.8535   Anisotropy =     6.9741

     44  H    Isotropic =    23.8894   Anisotropy =     3.8014

     45  H    Isotropic =    24.1617   Anisotropy =     6.3318

     46  H    Isotropic =    24.3298   Anisotropy =    11.8794

     47  N    Isotropic =   192.3962   Anisotropy =    52.1825

     48  H    Isotropic =    32.7964   Anisotropy =     7.0381

     49  N    Isotropic =   212.5495   Anisotropy =    47.3205

     50  C    Isotropic =   106.5793   Anisotropy =    49.6511

     51  H    Isotropic =    27.8670   Anisotropy =     5.4504

     52  C    Isotropic =   133.0478   Anisotropy =    50.8547

     53  H    Isotropic =    28.9420   Anisotropy =     4.1001

     54  H    Isotropic =    29.1749   Anisotropy =     6.7453

     55  C    Isotropic =   133.0944   Anisotropy =    47.8354

     56  H    Isotropic =    29.4030   Anisotropy =     7.9674

     57  H    Isotropic =    29.6555   Anisotropy =     5.8579

     58  C    Isotropic =   151.0749   Anisotropy =    20.4842

     59  H    Isotropic =    30.8467   Anisotropy =     4.6771

     60  H    Isotropic =    30.1449   Anisotropy =     8.8682

     61  C    Isotropic =   123.7247   Anisotropy =    64.9347

     62  H    Isotropic =    29.6004   Anisotropy =    12.1719

     63  H    Isotropic =    30.2732   Anisotropy =     4.0063

     64  C    Isotropic =   136.1031   Anisotropy =    73.0527

     65  H    Isotropic =    30.0903   Anisotropy =     8.5093

     66  H    Isotropic =    30.1361   Anisotropy =     7.0017

     67  H    Isotropic =    29.6382   Anisotropy =     9.9245

     68  C    Isotropic =   141.7965   Anisotropy =    66.3728

     69  H    Isotropic =    29.4383   Anisotropy =     9.2532

     70  H    Isotropic =    29.7252   Anisotropy =    11.0017

     71  H    Isotropic =    30.5094   Anisotropy =     9.1920

     72  Rh   Isotropic =  -304.5073   Anisotropy =   334.4804

     73  C    Isotropic =    74.8984   Anisotropy =   127.0558

     74  C    Isotropic =    79.3008   Anisotropy =   112.8385

     75  C    Isotropic =    75.3866   Anisotropy =   126.4621

     76  C    Isotropic =    77.0843   Anisotropy =   116.6813

     77  C    Isotropic =   153.8857   Anisotropy =    26.1317

     78  H    Isotropic =    27.4046   Anisotropy =     5.1081

     79  H    Isotropic =    26.6559   Anisotropy =     3.7022

     80  C    Isotropic =   148.0514   Anisotropy =    29.4758

     81  C    Isotropic =   154.0431   Anisotropy =    25.9412

     82  H    Isotropic =    27.1624   Anisotropy =     6.5335

     83  C    Isotropic =   148.1852   Anisotropy =    28.6458

     84  H    Isotropic =    26.3180   Anisotropy =     3.7916

     85  H    Isotropic =    29.9407   Anisotropy =    11.0768

     86  H    Isotropic =    29.8314   Anisotropy =     9.7596

     87  H    Isotropic =    29.1345   Anisotropy =    12.8396

     88  H    Isotropic =    29.1031   Anisotropy =     7.8201

     89  H    Isotropic =    29.8237   Anisotropy =     9.8193

     90  H    Isotropic =    29.9768   Anisotropy =    11.5166

     91  H    Isotropic =    28.9246   Anisotropy =     7.7731

     92  H    Isotropic =    29.0929   Anisotropy =    12.8696

 The electronic state is 1-A.
 Alpha  occ. eigenvalues --  -77.23737 -77.23453 -14.39690 -14.37027 -10.30933
 Alpha  occ. eigenvalues --  -10.30269 -10.29671 -10.29652 -10.29396 -10.29332
 Alpha  occ. eigenvalues --  -10.28794 -10.28772 -10.28729 -10.28686 -10.28464
 Alpha  occ. eigenvalues --  -10.28324 -10.28301 -10.28087 -10.28073 -10.28059
 Alpha  occ. eigenvalues --  -10.27833 -10.27776 -10.27732 -10.27724 -10.27671
 Alpha  occ. eigenvalues --  -10.27666 -10.27610 -10.27507 -10.27456 -10.27415
 Alpha  occ. eigenvalues --  -10.27409 -10.27367 -10.27347 -10.27281 -10.27257
 Alpha  occ. eigenvalues --  -10.27135 -10.27131 -10.27127 -10.27071 -10.25853
 Alpha  occ. eigenvalues --  -10.24633 -10.24430 -10.24145  -6.69690  -6.69418
 Alpha  occ. eigenvalues --   -4.85968  -4.85925  -4.85691  -4.85646  -4.85585
 Alpha  occ. eigenvalues --   -4.85328  -3.31272  -2.08166  -2.07520  -2.04719
 Alpha  occ. eigenvalues --   -1.00608  -0.98503  -0.96805  -0.96523  -0.96038
 Alpha  occ. eigenvalues --   -0.95849  -0.94265  -0.90127  -0.88991  -0.87830
 Alpha  occ. eigenvalues --   -0.87194  -0.86118  -0.85423  -0.85209  -0.85104
 Alpha  occ. eigenvalues --   -0.85012  -0.84827  -0.84617  -0.83444  -0.80180
 Alpha  occ. eigenvalues --   -0.77648  -0.77600  -0.76633  -0.75589  -0.74438
 Alpha  occ. eigenvalues --   -0.71819  -0.71294  -0.71021  -0.70827  -0.70464
 Alpha  occ. eigenvalues --   -0.70401  -0.70237  -0.70026  -0.68671  -0.66976
 Alpha  occ. eigenvalues --   -0.65995  -0.65679  -0.64328  -0.62532  -0.62232
 Alpha  occ. eigenvalues --   -0.62063  -0.60983  -0.60509  -0.59805  -0.58077
 Alpha  occ. eigenvalues --   -0.57233  -0.56927  -0.56513  -0.56175  -0.56002
 Alpha  occ. eigenvalues --   -0.55913  -0.55742  -0.55461  -0.55414  -0.55167
 Alpha  occ. eigenvalues --   -0.54816  -0.54549  -0.54173  -0.53539  -0.53452
 Alpha  occ. eigenvalues --   -0.52825  -0.52580  -0.52467  -0.52434  -0.52367
 Alpha  occ. eigenvalues --   -0.52306  -0.52116  -0.51483  -0.51186  -0.50487
 Alpha  occ. eigenvalues --   -0.49708  -0.48589  -0.48411  -0.48236  -0.47848
 Alpha  occ. eigenvalues --   -0.47693  -0.47611  -0.47203  -0.46996  -0.46761
 Alpha  occ. eigenvalues --   -0.46061  -0.45941  -0.45845  -0.45467  -0.45183
 Alpha  occ. eigenvalues --   -0.44925  -0.44914  -0.44820  -0.44610  -0.43693
 Alpha  occ. eigenvalues --   -0.43258  -0.43074  -0.43012  -0.42910  -0.42634
 Alpha  occ. eigenvalues --   -0.42485  -0.42029  -0.41243  -0.41046  -0.40750
 Alpha  occ. eigenvalues --   -0.37872  -0.37483  -0.36766  -0.36322  -0.36067
 Alpha  occ. eigenvalues --   -0.36033  -0.35657  -0.35508  -0.35348  -0.34926
 Alpha  occ. eigenvalues --   -0.34475  -0.34033  -0.33389  -0.32353  -0.30390
 Alpha  occ. eigenvalues --   -0.27930
 Alpha virt. eigenvalues --   -0.16271  -0.14671  -0.13861  -0.13160  -0.12452
 Alpha virt. eigenvalues --   -0.12144  -0.11643  -0.10919  -0.10586  -0.10041
 Alpha virt. eigenvalues --   -0.09122  -0.07420  -0.06804  -0.06437  -0.05705

 Mulliken charges:
               1
     1  P    0.386192
     2  P    0.448075
     3  C   -0.383826
     4  C   -0.057066
     5  C   -0.136853
     6  C   -0.071302
     7  C   -0.130333
     8  C    0.017809
     9  H    0.259896
    10  H    0.136526
    11  H    0.136666
    12  H    0.131167
    13  H    0.169287
    14  C   -0.130100
    15  C   -0.086729
    16  C   -0.102500
    17  C   -0.097328
    18  C   -0.105648
    19  C   -0.070815
    20  H    0.138731
    21  H    0.129234
    22  H    0.138008
    23  H    0.133612
    24  H    0.164262
    25  C   -0.118224
    26  C   -0.118949
    27  C   -0.097634
    28  C   -0.088772
    29  C   -0.137810
    30  C   -0.069799
    31  H    0.161622
    32  H    0.134796
    33  H    0.137486
    34  H    0.130279
    35  H    0.169034
    36  C   -0.235705
    37  C   -0.090761
    38  C   -0.106244
    39  C   -0.088125
    40  C   -0.091157
    41  C   -0.090869
    42  H    0.179418
    43  H    0.131184
    44  H    0.139887
    45  H    0.136633
    46  H    0.164759
    47  N   -0.266318
    48  H    0.196019
    49  N   -0.147060
    50  C   -0.552108
    51  H    0.203761
    52  C   -0.178837
    53  H    0.151249
    54  H    0.134242
    55  C   -0.194567
    56  H    0.117754
    57  H    0.124005
    58  C   -0.214698
    59  H    0.123884
    60  H    0.134596
    61  C   -0.207991
    62  H    0.133068
    63  H    0.075981
    64  C   -0.277981
    65  H    0.124411
    66  H    0.089506
    67  H    0.132590
    68  C   -0.276324
    69  H    0.130717
    70  H    0.132722
    71  H    0.091834
    72  Rh  -0.610758
    73  C   -0.011302
    74  C   -0.130812
    75  C   -0.001583
    76  C   -0.134164
    77  C   -0.345150
    78  H    0.201302
    79  H    0.206612
    80  C   -0.217559
    81  C   -0.345319
    82  H    0.184943
    83  C   -0.226105
    84  H    0.212237
    85  H    0.169313
    86  H    0.167091
    87  H    0.170238
    88  H    0.128837
    89  H    0.166417
    90  H    0.169316
    91  H    0.126591
    92  H    0.171386
 Sum of Mulliken charges =   1.00000

 Dipole moment (field-independent basis, Debye):
    X=             -3.2976    Y=              0.2282    Z=              0.1446  Tot=              3.3087
 Quadrupole moment (field-independent basis, Debye-Ang):
   XX=           -233.3134   YY=           -243.5903   ZZ=           -241.7464
   XY=             -3.7405   XZ=              6.0061   YZ=             -0.3703

 Summary of Natural Population Analysis:

                                       Natural Population
                Natural  -----------------------------------------------
    Atom  No    Charge         Core      Valence    Rydberg      Total
 -----------------------------------------------------------------------
      P    1    1.13339      9.99637     3.81836    0.05188    13.86661
      P    2    1.12304      9.99642     3.82924    0.05130    13.87696
      C    3   -0.36307      1.99898     4.33998    0.02410     6.36307
      C    4   -0.19615      1.99909     4.17952    0.01754     6.19615
      C    5   -0.19868      1.99919     4.18440    0.01509     6.19868
      C    6   -0.17344      1.99921     4.15971    0.01452     6.17344
      C    7   -0.20257      1.99919     4.18872    0.01466     6.20257
      C    8   -0.18330      1.99909     4.16861    0.01560     6.18330
      H    9    0.24338      0.00000     0.75380    0.00282     0.75662
      H   10    0.22294      0.00000     0.77572    0.00135     0.77706
      H   11    0.22250      0.00000     0.77633    0.00116     0.77750
      H   12    0.22149      0.00000     0.77726    0.00124     0.77851
      H   13    0.22071      0.00000     0.77686    0.00243     0.77929
      C   14   -0.33473      1.99898     4.31139    0.02436     6.33473
      C   15   -0.19830      1.99909     4.18427    0.01493     6.19830
      C   16   -0.19153      1.99920     4.17760    0.01473     6.19153
      C   17   -0.18332      1.99920     4.16930    0.01481     6.18332
      C   18   -0.18958      1.99920     4.17554    0.01485     6.18958
      C   19   -0.19481      1.99909     4.18069    0.01503     6.19481
      H   20    0.20655      0.00000     0.79149    0.00196     0.79345
      H   21    0.22049      0.00000     0.77827    0.00124     0.77951
      H   22    0.22251      0.00000     0.77632    0.00118     0.77749
      H   23    0.22205      0.00000     0.77672    0.00123     0.77795
      H   24    0.22310      0.00000     0.77517    0.00173     0.77690
      C   25   -0.34320      1.99898     4.32063    0.02358     6.34320
      C   26   -0.19991      1.99910     4.18567    0.01514     6.19991
      C   27   -0.19077      1.99920     4.17691    0.01467     6.19077
      C   28   -0.18218      1.99920     4.16834    0.01464     6.18218
      C   29   -0.19045      1.99920     4.17673    0.01453     6.19045
      C   30   -0.19538      1.99909     4.18122    0.01506     6.19538
      H   31    0.22005      0.00000     0.77818    0.00176     0.77995
      H   32    0.22260      0.00000     0.77618    0.00122     0.77740
      H   33    0.22255      0.00000     0.77628    0.00117     0.77745
      H   34    0.22096      0.00000     0.77779    0.00125     0.77904
      H   35    0.21540      0.00000     0.78235    0.00226     0.78460
      C   36   -0.34519      1.99899     4.32275    0.02345     6.34519
      C   37   -0.19642      1.99910     4.18175    0.01557     6.19642
      C   38   -0.19529      1.99920     4.18145    0.01464     6.19529
      C   39   -0.17588      1.99921     4.16213    0.01454     6.17588
      C   40   -0.19127      1.99920     4.17749    0.01459     6.19127
      C   41   -0.19383      1.99910     4.17860    0.01613     6.19383
      H   42    0.21779      0.00000     0.77987    0.00234     0.78221
      H   43    0.22149      0.00000     0.77728    0.00123     0.77851
      H   44    0.22359      0.00000     0.77524    0.00117     0.77641
      H   45    0.22360      0.00000     0.77517    0.00122     0.77640
      H   46    0.22259      0.00000     0.77538    0.00203     0.77741
      N   47   -0.61287      1.99957     5.59457    0.01872     7.61287
      H   48    0.34915      0.00000     0.64689    0.00396     0.65085
      N   49   -0.40924      1.99957     5.38868    0.02099     7.40924
      C   50   -0.73713      1.99937     4.71458    0.02318     6.73713
      H   51    0.25269      0.00000     0.74501    0.00230     0.74731
      C   52   -0.23248      1.99930     4.21531    0.01786     6.23248
      H   53    0.20010      0.00000     0.79692    0.00298     0.79990
      H   54    0.17846      0.00000     0.81714    0.00440     0.82154
      C   55   -0.20224      1.99938     4.19093    0.01193     6.20224
      H   56    0.16722      0.00000     0.82983    0.00295     0.83278
      H   57    0.18216      0.00000     0.81563    0.00221     0.81784
      C   58   -0.39902      1.99940     4.38771    0.01190     6.39902
      H   59    0.20275      0.00000     0.79511    0.00214     0.79725
      H   60    0.20911      0.00000     0.78929    0.00161     0.79089
      C   61   -0.21186      1.99936     4.19800    0.01450     6.21186
      H   62    0.19589      0.00000     0.80112    0.00299     0.80411
      H   63    0.14245      0.00000     0.84955    0.00800     0.85755
      C   64   -0.40143      1.99940     4.39137    0.01066     6.40143
      H   65    0.19230      0.00000     0.80621    0.00150     0.80770
      H   66    0.15578      0.00000     0.83957    0.00465     0.84422
      H   67    0.20026      0.00000     0.79825    0.00149     0.79974
      C   68   -0.40977      1.99939     4.39946    0.01092     6.40977
      H   69    0.19472      0.00000     0.80369    0.00158     0.80528
      H   70    0.20260      0.00000     0.79596    0.00145     0.79740
      H   71    0.15777      0.00000     0.83760    0.00463     0.84223
     Rh   72   -0.39154     35.98594     9.37667    0.02893    45.39154
      C   73   -0.16073      1.99907     4.14250    0.01916     6.16073
      C   74   -0.17404      1.99907     4.15515    0.01982     6.17404
      C   75   -0.16693      1.99907     4.14853    0.01933     6.16693
      C   76   -0.16985      1.99907     4.15073    0.02005     6.16985
      C   77   -0.42329      1.99936     4.41217    0.01176     6.42329
      H   78    0.23216      0.00000     0.76587    0.00197     0.76784
      H   79    0.22642      0.00000     0.77159    0.00199     0.77358
      C   80   -0.41742      1.99935     4.40539    0.01268     6.41742
      C   81   -0.42324      1.99936     4.41216    0.01172     6.42324
      H   82    0.22984      0.00000     0.76811    0.00205     0.77016
      C   83   -0.41746      1.99935     4.40545    0.01266     6.41746
      H   84    0.22666      0.00000     0.77119    0.00214     0.77334
      H   85    0.22894      0.00000     0.76959    0.00147     0.77106
      H   86    0.21467      0.00000     0.78336    0.00197     0.78533
      H   87    0.23323      0.00000     0.76483    0.00194     0.76677
      H   88    0.21271      0.00000     0.78567    0.00161     0.78729
      H   89    0.21459      0.00000     0.78343    0.00198     0.78541
      H   90    0.22936      0.00000     0.76916    0.00148     0.77064
      H   91    0.21211      0.00000     0.78629    0.00160     0.78789
      H   92    0.23290      0.00000     0.76514    0.00196     0.76710
 =======================================================================
   * Total *    1.00000    137.94624   231.15405    0.89972   370.00000

 Normal termination of Gaussian 16 at Wed Jan 22 16:40:27 2025.
