 Gaussian 16, Revision B.01,
 Gaussian 16:  ES64L-G16RevB.01 20-Dec-2017

 ------------------------------------------
 # nmr=giao b3lyp/genecp pop=nbo scfcyc=200
 ------------------------------------------

 ---------
 MS-38_SPE
 ---------
 Symbolic Z-matrix:
 Charge =  1 Multiplicity = 1

                         Standard orientation:
 ---------------------------------------------------------------------
 Center     Atomic      Atomic             Coordinates (Angstroms)
 Number     Number       Type             X           Y           Z
 ---------------------------------------------------------------------
      1         15           0        0.387470   -1.330080    0.115660
      2         15           0        0.833539    1.432150    0.337030
      3          6           0        1.018640   -2.260050    1.571210
      4          6           0        2.401870   -2.371939    1.747370
      5          1           0        3.071350   -1.905409    1.036040
      6          6           0        2.918650   -3.067369    2.835340
      7          1           0        3.990860   -3.150919    2.960960
      8          6           0        2.058420   -3.653969    3.757190
      9          1           0        2.459620   -4.197959    4.603230
     10          6           0        0.680410   -3.542360    3.591170
     11          1           0        0.007480   -3.995190    4.308490
     12          6           0        0.155820   -2.851370    2.504570
     13          1           0       -0.918610   -2.772800    2.396660
     14          6           0       -0.810900   -2.436900   -0.744170
     15          6           0       -0.774400   -3.822760   -0.568910
     16          1           0       -0.090690   -4.267460    0.141100
     17          6           0       -1.627790   -4.644350   -1.299210
     18          1           0       -1.594580   -5.716040   -1.148770
     19          6           0       -2.520360   -4.094960   -2.211740
     20          1           0       -3.185150   -4.736620   -2.775980
     21          6           0       -2.552400   -2.716200   -2.402020
     22          1           0       -3.239470   -2.281840   -3.117500
     23          6           0       -1.697750   -1.892300   -1.680550
     24          1           0       -1.725860   -0.824170   -1.859810
     25          6           0       -0.553971    0.197110    0.723520
     26          1           0       -1.231721    0.419580   -0.105730
     27          6           0       -1.362361    0.247730    2.024890
     28          1           0       -0.818511   -0.190640    2.857320
     29          1           0       -1.571051    1.293030    2.263200
     30          6           0       -2.690330   -0.485430    1.902590
     31          6           0       -5.763031    0.651719    0.284030
     32          1           0       -5.807341    1.573579    0.871010
     33          1           0       -5.291681    0.905740   -0.670280
     34          6           0        1.706119    1.976891    1.863470
     35          6           0        1.839399    1.147311    2.980610
     36          1           0        1.367549    0.175630    3.008480
     37          6           0        2.597659    1.555591    4.072870
     38          1           0        2.683129    0.906481    4.935180
     39          6           0        3.243459    2.786741    4.058350
     40          1           0        3.832249    3.102221    4.910290
     41          6           0        3.131539    3.610701    2.942800
     42          1           0        3.634459    4.569371    2.921430
     43          6           0        2.371419    3.209911    1.850620
     44          1           0        2.290249    3.868061    0.994750
     45          6           0       -0.063671    2.916920   -0.284890
     46          6           0       -0.605081    3.871470    0.583650
     47          1           0       -0.436341    3.801110    1.650280
     48          6           0       -1.354351    4.928350    0.079990
     49          1           0       -1.767011    5.663730    0.759200
     50          6           0       -1.573381    5.042750   -1.289750
     51          1           0       -2.154221    5.869790   -1.678140
     52          6           0       -1.043911    4.094450   -2.158260
     53          1           0       -1.210881    4.180640   -3.224650
     54          6           0       -0.292301    3.035810   -1.659170
     55          1           0        0.116019    2.297500   -2.338220
     56          8           0       -3.580551    0.233800    1.207750
     57          8           0       -2.908690   -1.580980    2.361840
     58         45           0        1.969369   -0.062009   -1.088160
     59          6           0        3.246120   -1.714099   -2.019290
     60          6           0        2.205900   -1.408029   -2.872230
     61          6           0        3.044269    1.374681   -2.520860
     62          6           0        3.872349    1.089381   -1.457030
     63          6           0        4.681750   -1.245849   -2.168670
     64          1           0        3.098420   -2.561949   -1.359280
     65          1           0        1.330500   -2.048260   -2.833490
     66          6           0        2.261340   -0.503869   -4.078790
     67          6           0        3.134999    0.757191   -3.904000
     68          1           0        2.466849    2.289521   -2.454500
     69          6           0        4.985129    0.071221   -1.421480
     70          1           0        3.898179    1.807011   -0.642830
     71          1           0        5.342070   -2.022299   -1.778830
     72          1           0        4.928400   -1.148739   -3.225700
     73          1           0        2.606560   -1.076249   -4.949070
     74          1           0        1.238009   -0.201040   -4.311540
     75          1           0        4.175589    0.534441   -4.138620
     76          1           0        2.817189    1.500801   -4.636870
     77          1           0        5.195659   -0.151299   -0.373060
     78          1           0        5.904089    0.519691   -1.819510
     79          6           0       -4.900441   -0.357370    1.013750
     80          1           0       -5.307790   -0.611570    1.993210
     81          1           0       -4.780590   -1.282900    0.447670
     82          6           0       -7.179931    0.122699    0.039560
     83          1           0       -7.643161   -0.137721    0.997720
     84          1           0       -7.130060   -0.807571   -0.537840
     85          6           0       -8.076001    1.123149   -0.695560
     86          1           0       -8.126161    2.052139   -0.117970
     87          1           0       -7.613571    1.384389   -1.653570
     88          6           0       -9.490131    0.596239   -0.938100
     89          1           0       -9.991451    0.359949    0.003770
     90          1           0      -10.102201    1.332179   -1.462690
     91          1           0       -9.475811   -0.314181   -1.542770
 ---------------------------------------------------------------------

 SCF Done:  E(RB3LYP) =  -2496.20146772     A.U. after   16 cycles

      1  P    Isotropic =   288.3844   Anisotropy =    68.8405

      2  P    Isotropic =   286.4036   Anisotropy =    92.2467

      3  C    Isotropic =    52.5569   Anisotropy =   162.6979

      4  C    Isotropic =    39.5168   Anisotropy =   181.3480

      5  H    Isotropic =    23.2380   Anisotropy =     9.8920

      6  C    Isotropic =    49.1877   Anisotropy =   188.1220

      7  H    Isotropic =    23.9958   Anisotropy =     6.8670

      8  C    Isotropic =    43.8422   Anisotropy =   200.0725

      9  H    Isotropic =    23.7332   Anisotropy =     3.5323

     10  C    Isotropic =    47.9520   Anisotropy =   191.3206

     11  H    Isotropic =    23.7655   Anisotropy =     6.3353

     12  C    Isotropic =    39.8845   Anisotropy =   201.5173

     13  H    Isotropic =    22.8118   Anisotropy =     9.4039

     14  C    Isotropic =    45.1384   Anisotropy =   169.3470

     15  C    Isotropic =    46.7892   Anisotropy =   191.6145

     16  H    Isotropic =    24.8380   Anisotropy =    12.5914

     17  C    Isotropic =    48.5250   Anisotropy =   190.5903

     18  H    Isotropic =    24.3317   Anisotropy =     6.2631

     19  C    Isotropic =    46.6181   Anisotropy =   195.7944

     20  H    Isotropic =    24.1556   Anisotropy =     3.8579

     21  C    Isotropic =    49.4579   Anisotropy =   189.0580

     22  H    Isotropic =    24.1467   Anisotropy =     6.3758

     23  C    Isotropic =    50.1133   Anisotropy =   188.3706

     24  H    Isotropic =    24.1392   Anisotropy =     9.8276

     25  C    Isotropic =   110.9251   Anisotropy =    43.7980

     26  H    Isotropic =    27.4211   Anisotropy =     4.0150

     27  C    Isotropic =   147.1561   Anisotropy =    33.6843

     28  H    Isotropic =    29.0456   Anisotropy =     2.9944

     29  H    Isotropic =    29.5587   Anisotropy =     5.0915

     30  C    Isotropic =     6.7552   Anisotropy =    99.6699

     31  C    Isotropic =   151.7970   Anisotropy =    33.7664

     32  H    Isotropic =    30.5793   Anisotropy =     4.0229

     33  H    Isotropic =    30.6655   Anisotropy =     6.9294

     34  C    Isotropic =    47.8611   Anisotropy =   162.3510

     35  C    Isotropic =    47.6986   Anisotropy =   186.2558

     36  H    Isotropic =    25.4236   Anisotropy =     7.1770

     37  C    Isotropic =    49.6041   Anisotropy =   188.9076

     38  H    Isotropic =    24.6417   Anisotropy =     8.2936

     39  C    Isotropic =    46.8005   Anisotropy =   196.0624

     40  H    Isotropic =    24.1933   Anisotropy =     4.0356

     41  C    Isotropic =    48.5816   Anisotropy =   190.8861

     42  H    Isotropic =    24.2687   Anisotropy =     6.1200

     43  C    Isotropic =    47.2119   Anisotropy =   189.1154

     44  H    Isotropic =    24.7445   Anisotropy =    11.6831

     45  C    Isotropic =    44.4038   Anisotropy =   176.5295

     46  C    Isotropic =    46.0585   Anisotropy =   189.8082

     47  H    Isotropic =    24.4113   Anisotropy =    11.7826

     48  C    Isotropic =    48.4618   Anisotropy =   190.5355

     49  H    Isotropic =    24.1539   Anisotropy =     6.0627

     50  C    Isotropic =    44.6733   Anisotropy =   198.6915

     51  H    Isotropic =    23.8794   Anisotropy =     3.5739

     52  C    Isotropic =    48.4708   Anisotropy =   189.2308

     53  H    Isotropic =    23.8835   Anisotropy =     6.7535

     54  C    Isotropic =    44.2785   Anisotropy =   179.2324

     55  H    Isotropic =    23.3385   Anisotropy =    10.0519

     56  O    Isotropic =    99.7049   Anisotropy =   162.8671

     57  O    Isotropic =  -115.8585   Anisotropy =   607.0964

     58  Rh   Isotropic =  -302.8569   Anisotropy =   332.7687

     59  C    Isotropic =    80.4980   Anisotropy =   119.0464

     60  C    Isotropic =    72.8058   Anisotropy =   123.0086

     61  C    Isotropic =    78.1902   Anisotropy =   122.2058

     62  C    Isotropic =    73.7490   Anisotropy =   121.4351

     63  C    Isotropic =   154.0653   Anisotropy =    24.9021

     64  H    Isotropic =    27.1168   Anisotropy =     6.1639

     65  H    Isotropic =    27.0488   Anisotropy =     3.9260

     66  C    Isotropic =   147.7534   Anisotropy =    29.3570

     67  C    Isotropic =   153.9735   Anisotropy =    24.9301

     68  H    Isotropic =    26.7388   Anisotropy =     6.0224

     69  C    Isotropic =   147.9683   Anisotropy =    28.7964

     70  H    Isotropic =    26.6630   Anisotropy =     4.2153

     71  H    Isotropic =    29.8592   Anisotropy =    11.6219

     72  H    Isotropic =    29.8036   Anisotropy =     9.9154

     73  H    Isotropic =    29.2321   Anisotropy =    12.5068

     74  H    Isotropic =    29.0552   Anisotropy =     7.2642

     75  H    Isotropic =    29.7439   Anisotropy =     9.8294

     76  H    Isotropic =    29.7437   Anisotropy =    11.5083

     77  H    Isotropic =    29.3201   Anisotropy =     7.2974

     78  H    Isotropic =    29.2368   Anisotropy =    12.8169

     79  C    Isotropic =   112.2705   Anisotropy =    67.7285

     80  H    Isotropic =    28.2707   Anisotropy =     7.2015

     81  H    Isotropic =    28.8122   Anisotropy =     6.2175

     82  C    Isotropic =   153.2655   Anisotropy =    30.2390

     83  H    Isotropic =    30.9204   Anisotropy =     6.2905

     84  H    Isotropic =    31.0006   Anisotropy =     4.3976

     85  C    Isotropic =   156.3085   Anisotropy =    24.1568

     86  H    Isotropic =    30.6304   Anisotropy =     6.0277

     87  H    Isotropic =    30.6714   Anisotropy =     5.6555

     88  C    Isotropic =   168.9584   Anisotropy =    29.5649

     89  H    Isotropic =    31.0660   Anisotropy =     9.0550

     90  H    Isotropic =    30.7100   Anisotropy =    11.0181

     91  H    Isotropic =    31.0998   Anisotropy =     8.1421

 The electronic state is 1-A.
 Alpha  occ. eigenvalues --  -77.23917 -77.23754 -19.26025 -19.20505 -10.39405
 Alpha  occ. eigenvalues --  -10.31721 -10.30675 -10.29766 -10.29687 -10.29519
 Alpha  occ. eigenvalues --  -10.29439 -10.29302 -10.29045 -10.28975 -10.28783
 Alpha  occ. eigenvalues --  -10.28685 -10.28465 -10.28367 -10.28287 -10.28235
 Alpha  occ. eigenvalues --  -10.28217 -10.28204 -10.27882 -10.27737 -10.27710
 Alpha  occ. eigenvalues --  -10.27684 -10.27615 -10.27574 -10.27475 -10.27471
 Alpha  occ. eigenvalues --  -10.27470 -10.27466 -10.27453 -10.27427 -10.27371
 Alpha  occ. eigenvalues --  -10.27284 -10.27275 -10.27248 -10.27225 -10.27204
 Alpha  occ. eigenvalues --  -10.24603 -10.23738 -10.22982 -10.21546  -6.69868
 Alpha  occ. eigenvalues --   -6.69707  -4.86149  -4.86097  -4.85982  -4.85932
 Alpha  occ. eigenvalues --   -4.85766  -4.85619  -3.31473  -2.08363  -2.07714
 Alpha  occ. eigenvalues --   -2.04938  -1.19782  -1.11188  -0.96922  -0.96566
 Alpha  occ. eigenvalues --   -0.96122  -0.95921  -0.94358  -0.91828  -0.89090
 Alpha  occ. eigenvalues --   -0.88553  -0.87953  -0.87289  -0.86713  -0.85441
 Alpha  occ. eigenvalues --   -0.85273  -0.85153  -0.85051  -0.84905  -0.84690
 Alpha  occ. eigenvalues --   -0.83447  -0.80637  -0.80172  -0.77764  -0.76001
 Alpha  occ. eigenvalues --   -0.75707  -0.72472  -0.71354  -0.71057  -0.71003
 Alpha  occ. eigenvalues --   -0.70692  -0.70511  -0.70298  -0.70064  -0.68740
 Alpha  occ. eigenvalues --   -0.67082  -0.66273  -0.66024  -0.65755  -0.64233
 Alpha  occ. eigenvalues --   -0.62698  -0.62369  -0.62051  -0.61130  -0.60614
 Alpha  occ. eigenvalues --   -0.59918  -0.59645  -0.58253  -0.57415  -0.56926
 Alpha  occ. eigenvalues --   -0.56632  -0.56227  -0.56137  -0.56003  -0.55911
 Alpha  occ. eigenvalues --   -0.55548  -0.55530  -0.55206  -0.55168  -0.54563
 Alpha  occ. eigenvalues --   -0.53733  -0.53597  -0.52935  -0.52829  -0.52624
 Alpha  occ. eigenvalues --   -0.52586  -0.52515  -0.52373  -0.52354  -0.51344
 Alpha  occ. eigenvalues --   -0.51118  -0.50124  -0.49723  -0.49053  -0.48672
 Alpha  occ. eigenvalues --   -0.48396  -0.48365  -0.47968  -0.47790  -0.47732
 Alpha  occ. eigenvalues --   -0.47284  -0.47053  -0.46197  -0.46081  -0.45952
 Alpha  occ. eigenvalues --   -0.45843  -0.45537  -0.45181  -0.45019  -0.44796
 Alpha  occ. eigenvalues --   -0.44737  -0.43846  -0.43356  -0.43261  -0.43183
 Alpha  occ. eigenvalues --   -0.43070  -0.42788  -0.42707  -0.41783  -0.41319
 Alpha  occ. eigenvalues --   -0.40551  -0.39669  -0.39488  -0.39221  -0.38032
 Alpha  occ. eigenvalues --   -0.37712  -0.37094  -0.36810  -0.36365  -0.36040
 Alpha  occ. eigenvalues --   -0.35974  -0.35743  -0.35618  -0.35454  -0.35079
 Alpha  occ. eigenvalues --   -0.34567  -0.34032  -0.33572  -0.30668
 Alpha virt. eigenvalues --   -0.16332  -0.14870  -0.14015  -0.13251  -0.12664
 Alpha virt. eigenvalues --   -0.12206  -0.11688  -0.11005  -0.10657  -0.10303
 Alpha virt. eigenvalues --   -0.09282  -0.09215  -0.07624  -0.06633  -0.06291

 Mulliken charges:
               1
     1  P    0.376610
     2  P    0.430863
     3  C   -0.356475
     4  C    0.013134
     5  H    0.166726
     6  C   -0.129224
     7  H    0.130392
     8  C   -0.078364
     9  H    0.138099
    10  C   -0.121169
    11  H    0.139501
    12  C   -0.060366
    13  H    0.221462
    14  C   -0.148409
    15  C   -0.063030
    16  H    0.164746
    17  C   -0.097169
    18  H    0.135094
    19  C   -0.094756
    20  H    0.137497
    21  C   -0.109660
    22  H    0.128706
    23  C   -0.065387
    24  H    0.132487
    25  C   -0.616846
    26  H    0.242308
    27  C   -0.179162
    28  H    0.172022
    29  H    0.164577
    30  C    0.260601
    31  C   -0.169654
    32  H    0.119361
    33  H    0.107599
    34  C   -0.105909
    35  C   -0.064327
    36  H    0.163528
    37  C   -0.137641
    38  H    0.132462
    39  C   -0.090774
    40  H    0.137921
    41  C   -0.092806
    42  H    0.135727
    43  C   -0.125477
    44  H    0.164222
    45  C   -0.234261
    46  C   -0.085539
    47  H    0.163406
    48  C   -0.091981
    49  H    0.136339
    50  C   -0.087021
    51  H    0.139233
    52  C   -0.106514
    53  H    0.130026
    54  C   -0.080834
    55  H    0.181073
    56  O   -0.188640
    57  O   -0.324982
    58  Rh  -0.596367
    59  C   -0.041013
    60  C   -0.090745
    61  C   -0.051441
    62  C   -0.099694
    63  C   -0.357750
    64  H    0.194470
    65  H    0.210527
    66  C   -0.231321
    67  C   -0.343796
    68  H    0.198758
    69  C   -0.213709
    70  H    0.194785
    71  H    0.168457
    72  H    0.166345
    73  H    0.172003
    74  H    0.128067
    75  H    0.166852
    76  H    0.167038
    77  H    0.133294
    78  H    0.172814
    79  C   -0.110181
    80  H    0.144591
    81  H    0.136132
    82  C   -0.231134
    83  H    0.111291
    84  H    0.103076
    85  C   -0.184926
    86  H    0.109728
    87  H    0.102690
    88  C   -0.347206
    89  H    0.115352
    90  H    0.133174
    91  H    0.110493
 Sum of Mulliken charges =   1.00000

 Dipole moment (field-independent basis, Debye):
    X=              3.1924    Y=              1.3294    Z=             -1.3781  Tot=              3.7226
 Quadrupole moment (field-independent basis, Debye-Ang):
   XX=           -230.9925   YY=           -244.2643   ZZ=           -250.1293
   XY=             -4.1351   XZ=              9.9405   YZ=              1.3217

 Summary of Natural Population Analysis:

                                       Natural Population
                Natural  -----------------------------------------------
    Atom  No    Charge         Core      Valence    Rydberg      Total
 -----------------------------------------------------------------------
      P    1    1.13196      9.99636     3.81990    0.05178    13.86804
      P    2    1.13059      9.99638     3.82163    0.05140    13.86941
      C    3   -0.36784      1.99899     4.34486    0.02399     6.36784
      C    4   -0.18057      1.99909     4.16589    0.01559     6.18057
      H    5    0.22213      0.00000     0.77572    0.00215     0.77787
      C    6   -0.20274      1.99919     4.18891    0.01464     6.20274
      H    7    0.22119      0.00000     0.77756    0.00124     0.77881
      C    8   -0.17262      1.99921     4.15893    0.01449     6.17262
      H    9    0.22262      0.00000     0.77620    0.00117     0.77738
      C   10   -0.19501      1.99919     4.18125    0.01457     6.19501
      H   11    0.22580      0.00000     0.77298    0.00123     0.77420
      C   12   -0.19855      1.99909     4.18343    0.01602     6.19855
      H   13    0.25012      0.00000     0.74773    0.00215     0.74988
      C   14   -0.34280      1.99898     4.31986    0.02395     6.34280
      C   15   -0.18928      1.99909     4.17511    0.01507     6.18928
      H   16    0.22439      0.00000     0.77385    0.00176     0.77561
      C   17   -0.18660      1.99920     4.17278    0.01462     6.18660
      H   18    0.22323      0.00000     0.77556    0.00121     0.77677
      C   19   -0.18066      1.99920     4.16676    0.01470     6.18066
      H   20    0.22264      0.00000     0.77618    0.00117     0.77736
      C   21   -0.19389      1.99920     4.17992    0.01478     6.19389
      H   22    0.21997      0.00000     0.77877    0.00125     0.78003
      C   23   -0.19889      1.99909     4.18476    0.01504     6.19889
      H   24    0.20824      0.00000     0.78979    0.00198     0.79176
      C   25   -0.73208      1.99936     4.71127    0.02145     6.73208
      H   26    0.26564      0.00000     0.73213    0.00223     0.73436
      C   27   -0.50854      1.99923     4.49396    0.01535     6.50854
      H   28    0.23576      0.00000     0.76192    0.00232     0.76424
      H   29    0.24279      0.00000     0.75452    0.00270     0.75721
      C   30    0.75910      1.99946     3.19774    0.04370     5.24090
      C   31   -0.40250      1.99941     4.39184    0.01125     6.40250
      H   32    0.20428      0.00000     0.79380    0.00192     0.79572
      H   33    0.19762      0.00000     0.80039    0.00198     0.80238
      C   34   -0.34668      1.99899     4.32413    0.02357     6.34668
      C   35   -0.19456      1.99909     4.18034    0.01512     6.19456
      H   36    0.21588      0.00000     0.78191    0.00221     0.78412
      C   37   -0.18984      1.99920     4.17610    0.01454     6.18984
      H   38    0.22198      0.00000     0.77678    0.00125     0.77802
      C   39   -0.18100      1.99920     4.16719    0.01461     6.18100
      H   40    0.22297      0.00000     0.77586    0.00117     0.77703
      C   41   -0.19102      1.99920     4.17715    0.01467     6.19102
      H   42    0.22293      0.00000     0.77585    0.00122     0.77707
      C   43   -0.20005      1.99910     4.18578    0.01517     6.20005
      H   44    0.22012      0.00000     0.77811    0.00177     0.77988
      C   45   -0.34720      1.99899     4.32452    0.02368     6.34720
      C   46   -0.19105      1.99910     4.17609    0.01587     6.19105
      H   47    0.22143      0.00000     0.77663    0.00194     0.77857
      C   48   -0.19008      1.99920     4.17630    0.01459     6.19008
      H   49    0.22355      0.00000     0.77523    0.00123     0.77645
      C   50   -0.17468      1.99921     4.16095    0.01453     6.17468
      H   51    0.22321      0.00000     0.77562    0.00117     0.77679
      C   52   -0.19498      1.99920     4.18118    0.01460     6.19498
      H   53    0.22104      0.00000     0.77773    0.00123     0.77896
      C   54   -0.19303      1.99910     4.17848    0.01546     6.19303
      H   55    0.21914      0.00000     0.77886    0.00199     0.78086
      O   56   -0.48106      1.99974     6.46772    0.01360     8.48106
      O   57   -0.57513      1.99975     6.56330    0.01209     8.57513
     Rh   58   -0.40085     35.98579     9.38597    0.02909    45.40085
      C   59   -0.18232      1.99906     4.16377    0.01949     6.18232
      C   60   -0.15239      1.99908     4.13368    0.01963     6.15239
      C   61   -0.17726      1.99906     4.15854    0.01966     6.17726
      C   62   -0.15647      1.99908     4.13763    0.01976     6.15647
      C   63   -0.42366      1.99936     4.41247    0.01182     6.42366
      H   64    0.22629      0.00000     0.77176    0.00195     0.77371
      H   65    0.23271      0.00000     0.76534    0.00195     0.76729
      C   66   -0.41783      1.99935     4.40585    0.01263     6.41783
      C   67   -0.42427      1.99936     4.41303    0.01188     6.42427
      H   68    0.22555      0.00000     0.77227    0.00217     0.77445
      C   69   -0.41881      1.99935     4.40685    0.01261     6.41881
      H   70    0.22926      0.00000     0.76860    0.00214     0.77074
      H   71    0.22810      0.00000     0.77041    0.00149     0.77190
      H   72    0.21505      0.00000     0.78296    0.00199     0.78495
      H   73    0.23418      0.00000     0.76391    0.00191     0.76582
      H   74    0.21513      0.00000     0.78330    0.00157     0.78487
      H   75    0.21537      0.00000     0.78263    0.00200     0.78463
      H   76    0.22726      0.00000     0.77123    0.00151     0.77274
      H   77    0.21638      0.00000     0.78205    0.00157     0.78362
      H   78    0.23459      0.00000     0.76351    0.00190     0.76541
      C   79   -0.06744      1.99921     4.05358    0.01464     6.06744
      H   80    0.18985      0.00000     0.80770    0.00245     0.81015
      H   81    0.18410      0.00000     0.81301    0.00289     0.81590
      C   82   -0.38098      1.99941     4.37147    0.01010     6.38098
      H   83    0.19605      0.00000     0.80201    0.00193     0.80395
      H   84    0.19198      0.00000     0.80605    0.00197     0.80802
      C   85   -0.37753      1.99946     4.36805    0.01003     6.37753
      H   86    0.19262      0.00000     0.80554    0.00184     0.80738
      H   87    0.18918      0.00000     0.80895    0.00187     0.81082
      C   88   -0.58818      1.99947     4.58251    0.00620     6.58818
      H   89    0.19970      0.00000     0.79876    0.00155     0.80030
      H   90    0.20993      0.00000     0.78897    0.00110     0.79007
      H   91    0.19732      0.00000     0.80111    0.00156     0.80268
 =======================================================================
   * Total *    1.00000    139.94582   235.16121    0.89297   376.00000

 Normal termination of Gaussian 16 at Wed Jan 22 15:47:37 2025.
