 Gaussian 16, Revision B.01,
 Gaussian 16:  ES64L-G16RevB.01 20-Dec-2017

 ------------------------------------------
 # nmr=giao b3lyp/genecp pop=nbo scfcyc=200
 ------------------------------------------

 ---------
 MS-35_SPE
 ---------
 Symbolic Z-matrix:
 Charge =  1 Multiplicity = 1

                         Standard orientation:
 ---------------------------------------------------------------------
 Center     Atomic      Atomic             Coordinates (Angstroms)
 Number     Number       Type             X           Y           Z
 ---------------------------------------------------------------------
      1         15           0       -0.510941   -1.060670    0.216089
      2         15           0        0.953140    1.331500    0.081409
      3          6           0       -0.595351   -1.862720    1.869419
      4          6           0        0.568319   -2.390530    2.436359
      5          1           0        1.505809   -2.317170    1.899659
      6          6           0        0.526889   -3.002870    3.685519
      7          1           0        1.432769   -3.411810    4.115199
      8          6           0       -0.676751   -3.093870    4.375309
      9          1           0       -0.711071   -3.575260    5.344669
     10          6           0       -1.839741   -2.567720    3.817429
     11          1           0       -2.777911   -2.638579    4.353709
     12          6           0       -1.804101   -1.953260    2.571509
     13          1           0       -2.707191   -1.537690    2.143679
     14          6           0       -1.869381   -1.803920   -0.785081
     15          6           0       -2.299541   -3.110760   -0.534461
     16          1           0       -1.908631   -3.664030    0.308999
     17          6           0       -3.246241   -3.709199   -1.360181
     18          1           0       -3.575291   -4.719259   -1.150381
     19          6           0       -3.769991   -3.014889   -2.444731
     20          1           0       -4.509221   -3.481209   -3.083621
     21          6           0       -3.336711   -1.718779   -2.708081
     22          1           0       -3.738421   -1.169949   -3.550441
     23          6           0       -2.385581   -1.120240   -1.890841
     24          1           0       -2.056321   -0.116530   -2.128361
     25          6           0       -0.832500    0.790730    0.424669
     26          1           0       -1.310150    1.076440   -0.515011
     27          6           0       -1.629750    1.378080    1.589799
     28          1           0       -1.233750    0.999710    2.531079
     29          1           0       -1.462960    2.470090    1.601779
     30          6           0        1.785810    1.929470    1.612919
     31          6           0        1.601940    1.273270    2.834979
     32          1           0        0.906870    0.449150    2.920799
     33          6           0        2.323280    1.661130    3.957859
     34          1           0        2.161400    1.151090    4.899219
     35          6           0        3.251100    2.694489    3.873689
     36          1           0        3.812500    2.994359    4.749429
     37          6           0        3.457800    3.335879    2.657629
     38          1           0        4.183180    4.136099    2.580579
     39          6           0        2.733410    2.956509    1.532329
     40          1           0        2.907510    3.470089    0.596079
     41          6           0        0.763490    2.802120   -1.013571
     42          6           0        0.400150    4.056480   -0.508401
     43          1           0        0.300260    4.210580    0.558259
     44          6           0        0.174710    5.119660   -1.374261
     45          1           0       -0.102339    6.087030   -0.974331
     46          6           0        0.304060    4.943980   -2.749511
     47          1           0        0.129561    5.775590   -3.420471
     48          6           0        0.656130    3.699530   -3.259011
     49          1           0        0.755850    3.557860   -4.327841
     50          6           0        0.884780    2.632400   -2.395541
     51          1           0        1.150840    1.662290   -2.795851
     52         45           0        1.621769   -0.769610   -0.741941
     53          6           0        2.276749   -2.944700   -1.016701
     54          6           0        1.620779   -2.520400   -2.153241
     55          6           0        3.426709   -0.214881   -2.053651
     56          6           0        3.860619   -0.492301   -0.775861
     57          6           0        3.780829   -3.062621   -0.852961
     58          1           0        1.684579   -3.489950   -0.289971
     59          1           0        0.570469   -2.778200   -2.243331
     60          6           0        2.251449   -2.028150   -3.432481
     61          6           0        3.510769   -1.155041   -3.241571
     62          1           0        3.264540    0.829399   -2.294541
     63          6           0        4.444589   -1.791721   -0.279041
     64          1           0        4.022730    0.352249   -0.113421
     65          1           0        3.991979   -3.894761   -0.179191
     66          1           0        4.234369   -3.330511   -1.806971
     67          1           0        2.488949   -2.884910   -4.075781
     68          1           0        1.495769   -1.453750   -3.972931
     69          1           0        4.397879   -1.781571   -3.151881
     70          1           0        3.656849   -0.560051   -4.144761
     71          1           0        4.353839   -1.799731    0.809449
     72          1           0        5.521969   -1.810981   -0.486521
     73          7           0       -3.053280    1.047901    1.547409
     74          6           0       -3.777260    1.774751    0.497829
     75          1           0       -3.961040    2.819361    0.806839
     76          1           0       -3.161630    1.823801   -0.400101
     77          6           0       -5.092930    1.112601    0.093069
     78          1           0       -5.789700    1.074281    0.945859
     79          1           0       -4.885720    0.078281   -0.193061
     80          7           0       -5.662190    1.800611   -1.059811
     81          1           0       -5.834260    2.773221   -0.828041
     82          6           0       -6.897570    1.193081   -1.546131
     83          1           0       -7.681930    1.099981   -0.778971
     84          1           0       -7.293920    1.785331   -2.371521
     85          1           0       -6.685490    0.191931   -1.928081
     86          6           0       -3.662680    1.251851    2.863229
     87          1           0       -3.628970    2.305771    3.184639
     88          1           0       -4.704700    0.937461    2.847219
     89          1           0       -3.143850    0.650251    3.610419
 ---------------------------------------------------------------------

 SCF Done:  E(RB3LYP) =  -2378.94916154     A.U. after   16 cycles

      1  P    Isotropic =   291.9018   Anisotropy =    84.1730

      2  P    Isotropic =   293.7200   Anisotropy =   103.8959

      3  C    Isotropic =    50.8909   Anisotropy =   166.0332

      4  C    Isotropic =    39.3148   Anisotropy =   182.1100

      5  H    Isotropic =    23.0714   Anisotropy =     9.7304

      6  C    Isotropic =    49.3812   Anisotropy =   187.3814

      7  H    Isotropic =    23.8863   Anisotropy =     6.7944

      8  C    Isotropic =    44.1780   Anisotropy =   199.2655

      9  H    Isotropic =    23.7526   Anisotropy =     3.5870

     10  C    Isotropic =    48.6571   Anisotropy =   188.7711

     11  H    Isotropic =    23.9836   Anisotropy =     6.7971

     12  C    Isotropic =    41.2428   Anisotropy =   196.8721

     13  H    Isotropic =    23.5525   Anisotropy =     9.0672

     14  C    Isotropic =    42.9184   Anisotropy =   173.0435

     15  C    Isotropic =    48.4364   Anisotropy =   188.4939

     16  H    Isotropic =    24.9221   Anisotropy =    12.3506

     17  C    Isotropic =    48.9686   Anisotropy =   189.5108

     18  H    Isotropic =    24.3394   Anisotropy =     6.2266

     19  C    Isotropic =    47.3335   Anisotropy =   194.6589

     20  H    Isotropic =    24.1470   Anisotropy =     3.5452

     21  C    Isotropic =    48.7012   Anisotropy =   191.4655

     22  H    Isotropic =    24.0461   Anisotropy =     6.2871

     23  C    Isotropic =    49.9499   Anisotropy =   190.4466

     24  H    Isotropic =    24.1258   Anisotropy =     9.5863

     25  C    Isotropic =   111.3352   Anisotropy =    56.1585

     26  H    Isotropic =    27.2782   Anisotropy =     5.7161

     27  C    Isotropic =   125.1126   Anisotropy =    63.3684

     28  H    Isotropic =    29.1445   Anisotropy =     5.8898

     29  H    Isotropic =    29.8297   Anisotropy =     5.4854

     30  C    Isotropic =    47.2576   Anisotropy =   164.3702

     31  C    Isotropic =    47.2774   Anisotropy =   186.2384

     32  H    Isotropic =    24.8611   Anisotropy =     7.5738

     33  C    Isotropic =    49.7614   Anisotropy =   188.4278

     34  H    Isotropic =    24.4743   Anisotropy =     8.3026

     35  C    Isotropic =    46.9330   Anisotropy =   195.1909

     36  H    Isotropic =    24.1883   Anisotropy =     4.0729

     37  C    Isotropic =    48.5137   Anisotropy =   190.2465

     38  H    Isotropic =    24.2947   Anisotropy =     6.1189

     39  C    Isotropic =    47.2257   Anisotropy =   189.2904

     40  H    Isotropic =    24.7019   Anisotropy =    12.0435

     41  C    Isotropic =    44.6394   Anisotropy =   177.1718

     42  C    Isotropic =    46.1852   Anisotropy =   188.1242

     43  H    Isotropic =    24.2647   Anisotropy =    11.4106

     44  C    Isotropic =    48.5614   Anisotropy =   190.0275

     45  H    Isotropic =    24.1208   Anisotropy =     6.1687

     46  C    Isotropic =    44.6653   Anisotropy =   198.6407

     47  H    Isotropic =    23.8615   Anisotropy =     3.6496

     48  C    Isotropic =    48.4122   Anisotropy =   189.1019

     49  H    Isotropic =    23.9035   Anisotropy =     6.8678

     50  C    Isotropic =    43.5347   Anisotropy =   178.9144

     51  H    Isotropic =    23.3620   Anisotropy =    10.1273

     52  Rh   Isotropic =  -304.3352   Anisotropy =   333.2024

     53  C    Isotropic =    80.4211   Anisotropy =   119.2394

     54  C    Isotropic =    72.3867   Anisotropy =   123.4196

     55  C    Isotropic =    78.7802   Anisotropy =   121.5264

     56  C    Isotropic =    73.1611   Anisotropy =   122.5116

     57  C    Isotropic =   154.0160   Anisotropy =    24.8575

     58  H    Isotropic =    27.0813   Anisotropy =     5.9114

     59  H    Isotropic =    27.1200   Anisotropy =     4.1023

     60  C    Isotropic =   147.9060   Anisotropy =    29.3220

     61  C    Isotropic =   153.9597   Anisotropy =    24.8987

     62  H    Isotropic =    26.8355   Anisotropy =     6.2394

     63  C    Isotropic =   147.9919   Anisotropy =    28.6280

     64  H    Isotropic =    26.8180   Anisotropy =     3.6909

     65  H    Isotropic =    29.8390   Anisotropy =    11.5084

     66  H    Isotropic =    29.7881   Anisotropy =    10.0271

     67  H    Isotropic =    29.2596   Anisotropy =    12.5586

     68  H    Isotropic =    29.1395   Anisotropy =     7.1338

     69  H    Isotropic =    29.7541   Anisotropy =     9.9422

     70  H    Isotropic =    29.7684   Anisotropy =    11.6399

     71  H    Isotropic =    29.3109   Anisotropy =     7.1664

     72  H    Isotropic =    29.2651   Anisotropy =    12.7994

     73  N    Isotropic =   205.1425   Anisotropy =    40.0414

     74  C    Isotropic =   127.0475   Anisotropy =    54.5051

     75  H    Isotropic =    30.5482   Anisotropy =     6.0124

     76  H    Isotropic =    29.6155   Anisotropy =     6.5805

     77  C    Isotropic =   131.0308   Anisotropy =    52.5637

     78  H    Isotropic =    29.4091   Anisotropy =     4.8422

     79  H    Isotropic =    30.6061   Anisotropy =     7.4717

     80  N    Isotropic =   217.9958   Anisotropy =    51.5388

     81  H    Isotropic =    32.4582   Anisotropy =    11.8997

     82  C    Isotropic =   146.2637   Anisotropy =    60.8363

     83  H    Isotropic =    29.7114   Anisotropy =    10.7504

     84  H    Isotropic =    29.2950   Anisotropy =    10.6602

     85  H    Isotropic =    29.9632   Anisotropy =     7.0167

     86  C    Isotropic =   139.5012   Anisotropy =    69.8179

     87  H    Isotropic =    30.2939   Anisotropy =    10.4014

     88  H    Isotropic =    29.4136   Anisotropy =    10.7992

     89  H    Isotropic =    29.9288   Anisotropy =     8.4646

 The electronic state is 1-A.
 Alpha  occ. eigenvalues --  -77.23596 -77.23357 -14.40516 -14.37247 -10.30634
 Alpha  occ. eigenvalues --  -10.30213 -10.29577 -10.29492 -10.29392 -10.29215
 Alpha  occ. eigenvalues --  -10.28785 -10.28717 -10.28482 -10.28444 -10.28296
 Alpha  occ. eigenvalues --  -10.28260 -10.28228 -10.28063 -10.27965 -10.27935
 Alpha  occ. eigenvalues --  -10.27859 -10.27757 -10.27698 -10.27646 -10.27572
 Alpha  occ. eigenvalues --  -10.27545 -10.27508 -10.27480 -10.27475 -10.27354
 Alpha  occ. eigenvalues --  -10.27298 -10.27293 -10.27264 -10.27219 -10.27216
 Alpha  occ. eigenvalues --  -10.27071 -10.27033 -10.27032 -10.27019 -10.26942
 Alpha  occ. eigenvalues --  -10.26656 -10.25295  -6.69546  -6.69316  -4.85820
 Alpha  occ. eigenvalues --   -4.85781  -4.85588  -4.85546  -4.85446  -4.85225
 Alpha  occ. eigenvalues --   -3.31148  -2.08030  -2.07384  -2.04628  -1.02031
 Alpha  occ. eigenvalues --   -0.97507  -0.96702  -0.96496  -0.95954  -0.95754
 Alpha  occ. eigenvalues --   -0.94109  -0.90008  -0.88840  -0.87720  -0.87106
 Alpha  occ. eigenvalues --   -0.85521  -0.85253  -0.85220  -0.85049  -0.84805
 Alpha  occ. eigenvalues --   -0.84716  -0.84531  -0.82474  -0.80054  -0.78705
 Alpha  occ. eigenvalues --   -0.77530  -0.75491  -0.75081  -0.72348  -0.71233
 Alpha  occ. eigenvalues --   -0.71065  -0.70906  -0.70557  -0.70285  -0.70114
 Alpha  occ. eigenvalues --   -0.69958  -0.69784  -0.67321  -0.66847  -0.65510
 Alpha  occ. eigenvalues --   -0.65453  -0.62499  -0.62194  -0.61865  -0.60946
 Alpha  occ. eigenvalues --   -0.60411  -0.59672  -0.58478  -0.57463  -0.56786
 Alpha  occ. eigenvalues --   -0.56578  -0.56168  -0.55983  -0.55928  -0.55809
 Alpha  occ. eigenvalues --   -0.55598  -0.55351  -0.55183  -0.55143  -0.54440
 Alpha  occ. eigenvalues --   -0.54030  -0.53373  -0.53165  -0.52734  -0.52601
 Alpha  occ. eigenvalues --   -0.52429  -0.52370  -0.52274  -0.52180  -0.51892
 Alpha  occ. eigenvalues --   -0.51120  -0.50730  -0.50110  -0.49695  -0.48597
 Alpha  occ. eigenvalues --   -0.48404  -0.48180  -0.47735  -0.47682  -0.47579
 Alpha  occ. eigenvalues --   -0.47164  -0.47002  -0.46826  -0.46044  -0.45806
 Alpha  occ. eigenvalues --   -0.45733  -0.45638  -0.45012  -0.44914  -0.44772
 Alpha  occ. eigenvalues --   -0.44558  -0.43833  -0.43674  -0.43217  -0.43135
 Alpha  occ. eigenvalues --   -0.42979  -0.42768  -0.42660  -0.42063  -0.41920
 Alpha  occ. eigenvalues --   -0.41017  -0.37779  -0.37328  -0.36683  -0.36202
 Alpha  occ. eigenvalues --   -0.36016  -0.35989  -0.35605  -0.35506  -0.35276
 Alpha  occ. eigenvalues --   -0.34949  -0.34291  -0.33726  -0.33260  -0.31538
 Alpha  occ. eigenvalues --   -0.30332  -0.29798
 Alpha virt. eigenvalues --   -0.16106  -0.14538  -0.13746  -0.13173  -0.12390
 Alpha virt. eigenvalues --   -0.12048  -0.11586  -0.10781  -0.10546  -0.10019
 Alpha virt. eigenvalues --   -0.08976  -0.07436  -0.06504  -0.06172  -0.05628

 Mulliken charges:
               1
     1  P    0.451647
     2  P    0.410305
     3  C   -0.376035
     4  C   -0.018741
     5  H    0.177627
     6  C   -0.119530
     7  H    0.131284
     8  C   -0.082545
     9  H    0.136387
    10  C   -0.103236
    11  H    0.136587
    12  C   -0.058379
    13  H    0.199337
    14  C   -0.139021
    15  C   -0.080747
    16  H    0.159271
    17  C   -0.092027
    18  H    0.133392
    19  C   -0.104069
    20  H    0.136084
    21  C   -0.096785
    22  H    0.131719
    23  C   -0.096248
    24  H    0.139564
    25  C   -0.522548
    26  H    0.197158
    27  C   -0.181794
    28  H    0.152021
    29  H    0.136809
    30  C   -0.145274
    31  C   -0.070717
    32  H    0.180684
    33  C   -0.141008
    34  H    0.129487
    35  C   -0.083721
    36  H    0.137666
    37  C   -0.104888
    38  H    0.134404
    39  C   -0.090030
    40  H    0.165769
    41  C   -0.235271
    42  C   -0.096573
    43  H    0.160547
    44  C   -0.087647
    45  H    0.135498
    46  C   -0.090864
    47  H    0.139273
    48  C   -0.105656
    49  H    0.130557
    50  C   -0.077890
    51  H    0.178804
    52  Rh  -0.587668
    53  C   -0.048284
    54  C   -0.091909
    55  C   -0.049521
    56  C   -0.096433
    57  C   -0.354016
    58  H    0.194738
    59  H    0.209064
    60  C   -0.226115
    61  C   -0.345417
    62  H    0.196239
    63  C   -0.217370
    64  H    0.195942
    65  H    0.167068
    66  H    0.165823
    67  H    0.171025
    68  H    0.129841
    69  H    0.166038
    70  H    0.166528
    71  H    0.131420
    72  H    0.172155
    73  N   -0.172790
    74  C   -0.164140
    75  H    0.105815
    76  H    0.128211
    77  C   -0.205376
    78  H    0.106770
    79  H    0.139574
    80  N   -0.280325
    81  H    0.194105
    82  C   -0.282829
    83  H    0.101970
    84  H    0.134730
    85  H    0.120369
    86  C   -0.292565
    87  H    0.114033
    88  H    0.143426
    89  H    0.139236
 Sum of Mulliken charges =   1.00000

 Dipole moment (field-independent basis, Debye):
    X=              1.1402    Y=              0.2734    Z=              0.6325  Tot=              1.3322
 Quadrupole moment (field-independent basis, Debye-Ang):
   XX=           -228.3738   YY=           -232.8883   ZZ=           -235.3067
   XY=             -0.2108   XZ=             -0.4860   YZ=             -3.7873

 Summary of Natural Population Analysis:

                                       Natural Population
                Natural  -----------------------------------------------
    Atom  No    Charge         Core      Valence    Rydberg      Total
 -----------------------------------------------------------------------
      P    1    1.13407      9.99636     3.81693    0.05264    13.86593
      P    2    1.12631      9.99640     3.82488    0.05241    13.87369
      C    3   -0.36073      1.99898     4.33750    0.02425     6.36073
      C    4   -0.18559      1.99909     4.17097    0.01553     6.18559
      H    5    0.22347      0.00000     0.77442    0.00211     0.77653
      C    6   -0.20289      1.99919     4.18907    0.01463     6.20289
      H    7    0.22132      0.00000     0.77743    0.00124     0.77868
      C    8   -0.17367      1.99921     4.15992    0.01454     6.17367
      H    9    0.22264      0.00000     0.77620    0.00116     0.77736
      C   10   -0.19934      1.99919     4.18515    0.01499     6.19934
      H   11    0.22250      0.00000     0.77623    0.00127     0.77750
      C   12   -0.19128      1.99909     4.17503    0.01716     6.19128
      H   13    0.23874      0.00000     0.75859    0.00267     0.76126
      C   14   -0.33666      1.99898     4.31361    0.02408     6.33666
      C   15   -0.19856      1.99909     4.18450    0.01496     6.19856
      H   16    0.22187      0.00000     0.77642    0.00171     0.77813
      C   17   -0.19018      1.99920     4.17626    0.01472     6.19018
      H   18    0.22188      0.00000     0.77690    0.00123     0.77812
      C   19   -0.18539      1.99920     4.17141    0.01478     6.18539
      H   20    0.22197      0.00000     0.77685    0.00118     0.77803
      C   21   -0.19027      1.99919     4.17614    0.01494     6.19027
      H   22    0.22296      0.00000     0.77578    0.00126     0.77704
      C   23   -0.19474      1.99909     4.18057    0.01509     6.19474
      H   24    0.20859      0.00000     0.78933    0.00207     0.79141
      C   25   -0.74090      1.99937     4.71649    0.02505     6.74090
      H   26    0.25834      0.00000     0.73893    0.00273     0.74166
      C   27   -0.23588      1.99928     4.21685    0.01975     6.23588
      H   28    0.20922      0.00000     0.78782    0.00296     0.79078
      H   29    0.17957      0.00000     0.81518    0.00525     0.82043
      C   30   -0.34293      1.99898     4.32068    0.02327     6.34293
      C   31   -0.19715      1.99909     4.18310    0.01495     6.19715
      H   32    0.21516      0.00000     0.78270    0.00215     0.78484
      C   33   -0.19120      1.99920     4.17746    0.01454     6.19120
      H   34    0.22061      0.00000     0.77814    0.00125     0.77939
      C   35   -0.18239      1.99920     4.16854    0.01465     6.18239
      H   36    0.22251      0.00000     0.77632    0.00117     0.77749
      C   37   -0.19051      1.99920     4.17661    0.01469     6.19051
      H   38    0.22263      0.00000     0.77615    0.00122     0.77737
      C   39   -0.20055      1.99910     4.18633    0.01512     6.20055
      H   40    0.22213      0.00000     0.77612    0.00174     0.77787
      C   41   -0.34781      1.99899     4.32547    0.02335     6.34781
      C   42   -0.19382      1.99909     4.17869    0.01603     6.19382
      H   43    0.22032      0.00000     0.77762    0.00206     0.77968
      C   44   -0.19187      1.99920     4.17810    0.01458     6.19187
      H   45    0.22305      0.00000     0.77572    0.00123     0.77695
      C   46   -0.17483      1.99921     4.16111    0.01451     6.17483
      H   47    0.22323      0.00000     0.77560    0.00117     0.77677
      C   48   -0.19492      1.99920     4.18116    0.01456     6.19492
      H   49    0.22144      0.00000     0.77733    0.00123     0.77856
      C   50   -0.19047      1.99910     4.17597    0.01541     6.19047
      H   51    0.22042      0.00000     0.77759    0.00199     0.77958
     Rh   52   -0.39990     35.98592     9.38531    0.02868    45.39990
      C   53   -0.18367      1.99907     4.16511    0.01950     6.18367
      C   54   -0.15315      1.99908     4.13450    0.01958     6.15315
      C   55   -0.18096      1.99907     4.16227    0.01962     6.18096
      C   56   -0.15579      1.99908     4.13699    0.01972     6.15579
      C   57   -0.42353      1.99936     4.41233    0.01184     6.42353
      H   58    0.22545      0.00000     0.77257    0.00198     0.77455
      H   59    0.23300      0.00000     0.76500    0.00200     0.76700
      C   60   -0.41809      1.99935     4.40614    0.01259     6.41809
      C   61   -0.42394      1.99936     4.41272    0.01186     6.42394
      H   62    0.22498      0.00000     0.77289    0.00212     0.77502
      C   63   -0.41850      1.99935     4.40654    0.01260     6.41850
      H   64    0.23007      0.00000     0.76785    0.00208     0.76993
      H   65    0.22724      0.00000     0.77127    0.00149     0.77276
      H   66    0.21499      0.00000     0.78303    0.00198     0.78501
      H   67    0.23388      0.00000     0.76422    0.00190     0.76612
      H   68    0.21620      0.00000     0.78223    0.00157     0.78380
      H   69    0.21493      0.00000     0.78308    0.00199     0.78507
      H   70    0.22706      0.00000     0.77143    0.00151     0.77294
      H   71    0.21574      0.00000     0.78269    0.00157     0.78426
      H   72    0.23413      0.00000     0.76397    0.00190     0.76587
      N   73   -0.42411      1.99954     5.40216    0.02241     7.42411
      C   74   -0.21547      1.99934     4.20126    0.01488     6.21547
      H   75    0.15969      0.00000     0.83557    0.00474     0.84031
      H   76    0.19307      0.00000     0.80396    0.00296     0.80693
      C   77   -0.21495      1.99938     4.20140    0.01418     6.21495
      H   78    0.15345      0.00000     0.84289    0.00365     0.84655
      H   79    0.19079      0.00000     0.80643    0.00278     0.80921
      N   80   -0.60219      1.99959     5.58387    0.01872     7.60219
      H   81    0.34384      0.00000     0.65319    0.00297     0.65616
      C   82   -0.40154      1.99943     4.39146    0.01066     6.40154
      H   83    0.16217      0.00000     0.83488    0.00295     0.83783
      H   84    0.20166      0.00000     0.79712    0.00122     0.79834
      H   85    0.18633      0.00000     0.81200    0.00167     0.81367
      C   86   -0.40716      1.99937     4.39737    0.01042     6.40716
      H   87    0.16924      0.00000     0.82719    0.00356     0.83076
      H   88    0.20604      0.00000     0.79225    0.00171     0.79396
      H   89    0.19857      0.00000     0.79994    0.00149     0.80143
 =======================================================================
   * Total *    1.00000    135.94674   225.16695    0.88631   362.00000

 Normal termination of Gaussian 16 at Wed Jan 22 04:43:13 2025.
