 Gaussian 16, Revision B.01,
 Gaussian 16:  ES64L-G16RevB.01 20-Dec-2017

 ------------------------------------------
 # nmr=giao b3lyp/genecp pop=nbo scfcyc=200
 ------------------------------------------

 ---------
 MS-30_SPE
 ---------
 Symbolic Z-matrix:
 Charge =  1 Multiplicity = 1

                         Standard orientation:
 ---------------------------------------------------------------------
 Center     Atomic      Atomic             Coordinates (Angstroms)
 Number     Number       Type             X           Y           Z
 ---------------------------------------------------------------------
      1         15           0        1.283061    0.584283   -0.101200
      2         15           0       -1.355169   -0.421757   -0.081820
      3          7           0       -1.116882    2.876625   -2.137050
      4          6           0        2.492330    1.010073   -1.427870
      5          6           0        3.841844    0.724410   -1.181130
      6          1           0        4.151844    0.328475   -0.221100
      7          6           0        4.802182    0.967907   -2.153860
      8          1           0        5.842163    0.746619   -1.948970
      9          6           0        4.428276    1.496999   -3.386530
     10          1           0        5.176907    1.687066   -4.145190
     11          6           0        3.092672    1.787593   -3.635300
     12          1           0        2.796931    2.210708   -4.587140
     13          6           0        2.123854    1.545625   -2.663970
     14          1           0        1.094871    1.803594   -2.878550
     15          6           0        1.848951    1.588801    1.332260
     16          6           0        2.348307    2.883706    1.154230
     17          1           0        2.411436    3.313709    0.162900
     18          6           0        2.779051    3.620747    2.250280
     19          1           0        3.166491    4.621466    2.105290
     20          6           0        2.720938    3.073344    3.529770
     21          1           0        3.063330    3.648881    4.380630
     22          6           0        2.234252    1.783410    3.712220
     23          1           0        2.198003    1.351369    4.704420
     24          6           0        1.803158    1.041889    2.617060
     25          1           0        1.430458    0.034941    2.758060
     26          6           0       -2.396727   -0.056019    1.389380
     27          6           0       -1.979186   -0.487138    2.650880
     28          1           0       -1.046029   -1.028302    2.749350
     29          6           0       -2.758739   -0.230656    3.774350
     30          1           0       -2.430122   -0.571040    4.748320
     31          6           0       -3.963462    0.451334    3.643060
     32          1           0       -4.574242    0.645594    4.515790
     33          6           0       -4.391113    0.873543    2.386290
     34          1           0       -5.334059    1.395456    2.281150
     35          6           0       -3.615251    0.620251    1.262310
     36          1           0       -3.964177    0.940054    0.288790
     37          6           0       -2.589656   -0.887128   -1.372060
     38          6           0       -2.673797   -0.262072   -2.618240
     39          1           0       -2.052429    0.590078   -2.860950
     40          6           0       -3.594565   -0.710628   -3.562440
     41          1           0       -3.657290   -0.212601   -4.521880
     42          6           0       -4.431912   -1.781879   -3.277040
     43          1           0       -5.145615   -2.126214   -4.014740
     44          6           0       -4.355791   -2.406105   -2.034640
     45          1           0       -5.010540   -3.236298   -1.801090
     46          6           0       -3.441013   -1.963620   -1.088380
     47          1           0       -3.406719   -2.449088   -0.120020
     48          6           0       -0.431685    1.106729   -0.726250
     49          1           0       -0.318959    0.788194   -1.766220
     50          6           0       -0.968385    2.517642   -0.844910
     51          6           0       -1.288138    3.388616    0.209690
     52          6           0       -1.772480    4.653852   -0.145010
     53          1           0       -2.030815    5.354240    0.641340
     54          6           0       -1.923398    5.016875   -1.469920
     55          1           0       -2.297186    5.993286   -1.748740
     56          6           0       -1.578002    4.083502   -2.440920
     57          1           0       -1.674233    4.310747   -3.496990
     58         45           0        0.633752   -1.663239    0.204610
     59          6           0        2.596655   -2.731982   -0.269270
     60          6           0        2.535173   -2.494275    1.087360
     61          6           0       -0.126708   -3.691856    0.923410
     62          6           0       -0.160359   -3.666878   -0.455230
     63          6           0        2.329531   -4.065035   -0.941560
     64          1           0        3.121319   -2.002886   -0.876140
     65          1           0        3.057170   -1.619639    1.462570
     66          6           0        2.115172   -3.474186    2.155970
     67          6           0        0.928237   -4.383654    1.767440
     68          1           0       -1.048240   -3.445202    1.440240
     69          6           0        0.866720   -4.241717   -1.398660
     70          1           0       -1.108081   -3.429035   -0.925480
     71          1           0        2.976945   -4.145873   -1.816250
     72          1           0        2.621651   -4.876711   -0.275560
     73          1           0        2.973162   -4.092143    2.448830
     74          1           0        1.848503   -2.900529    3.046680
     75          1           0        1.286830   -5.271507    1.247040
     76          1           0        0.457264   -4.744788    2.683230
     77          1           0        0.733055   -3.755244   -2.367090
     78          1           0        0.655792   -5.305358   -1.566990
     79          6           0       -1.150822    3.078243    1.676410
     80          1           0       -0.450176    3.771278    2.146210
     81          1           0       -2.112698    3.193785    2.179460
     82          1           0       -0.798233    2.072820    1.871050
 ---------------------------------------------------------------------

 SCF Done:  E(RB3LYP) =  -2358.09682700     A.U. after   16 cycles

      1  P    Isotropic =   282.8902   Anisotropy =    57.7170

      2  P    Isotropic =   281.7060   Anisotropy =    58.9858

      3  N    Isotropic =   -97.9279   Anisotropy =   503.8881

      4  C    Isotropic =    43.0097   Anisotropy =   167.5956

      5  C    Isotropic =    47.7779   Anisotropy =   185.4704

      6  H    Isotropic =    25.0647   Anisotropy =    11.3454

      7  C    Isotropic =    48.7047   Anisotropy =   190.0636

      8  H    Isotropic =    24.3303   Anisotropy =     6.8215

      9  C    Isotropic =    46.8274   Anisotropy =   194.9217

     10  H    Isotropic =    24.1362   Anisotropy =     3.6330

     11  C    Isotropic =    48.9885   Anisotropy =   189.0481

     12  H    Isotropic =    24.0408   Anisotropy =     6.8665

     13  C    Isotropic =    48.0843   Anisotropy =   189.8222

     14  H    Isotropic =    22.8825   Anisotropy =    11.1715

     15  C    Isotropic =    43.3814   Anisotropy =   176.6783

     16  C    Isotropic =    43.5810   Anisotropy =   194.2841

     17  H    Isotropic =    25.1913   Anisotropy =    10.6355

     18  C    Isotropic =    48.9527   Anisotropy =   190.2025

     19  H    Isotropic =    24.5907   Anisotropy =     6.2571

     20  C    Isotropic =    44.9645   Anisotropy =   197.9583

     21  H    Isotropic =    24.1120   Anisotropy =     3.5417

     22  C    Isotropic =    49.9849   Anisotropy =   186.9281

     23  H    Isotropic =    24.0815   Anisotropy =     6.9613

     24  C    Isotropic =    41.5155   Anisotropy =   180.3179

     25  H    Isotropic =    23.1083   Anisotropy =     9.2857

     26  C    Isotropic =    43.4728   Anisotropy =   177.3569

     27  C    Isotropic =    41.0680   Anisotropy =   179.2744

     28  H    Isotropic =    22.9438   Anisotropy =     9.6680

     29  C    Isotropic =    49.9987   Anisotropy =   186.5856

     30  H    Isotropic =    24.0517   Anisotropy =     6.9304

     31  C    Isotropic =    44.9872   Anisotropy =   198.2613

     32  H    Isotropic =    24.0912   Anisotropy =     3.5314

     33  C    Isotropic =    48.9349   Anisotropy =   190.0730

     34  H    Isotropic =    24.5706   Anisotropy =     6.2845

     35  C    Isotropic =    43.6038   Anisotropy =   194.3068

     36  H    Isotropic =    25.1734   Anisotropy =    10.5071

     37  C    Isotropic =    43.2099   Anisotropy =   168.4294

     38  C    Isotropic =    47.9164   Anisotropy =   190.6210

     39  H    Isotropic =    22.8709   Anisotropy =    11.2122

     40  C    Isotropic =    49.0547   Anisotropy =   188.8337

     41  H    Isotropic =    24.0434   Anisotropy =     6.8962

     42  C    Isotropic =    46.6603   Anisotropy =   194.7446

     43  H    Isotropic =    24.1431   Anisotropy =     3.6182

     44  C    Isotropic =    48.6245   Anisotropy =   190.1317

     45  H    Isotropic =    24.3247   Anisotropy =     6.7476

     46  C    Isotropic =    47.5937   Anisotropy =   186.2441

     47  H    Isotropic =    25.0613   Anisotropy =    11.4315

     48  C    Isotropic =   111.6192   Anisotropy =    82.5202

     49  H    Isotropic =    24.4743   Anisotropy =     7.7537

     50  C    Isotropic =    27.2600   Anisotropy =   150.8815

     51  C    Isotropic =    40.5223   Anisotropy =   195.8496

     52  C    Isotropic =    38.1022   Anisotropy =   191.2780

     53  H    Isotropic =    24.5364   Anisotropy =     9.4853

     54  C    Isotropic =    55.0912   Anisotropy =   177.5370

     55  H    Isotropic =    24.5792   Anisotropy =     4.0107

     56  C    Isotropic =    31.7695   Anisotropy =   169.1146

     57  H    Isotropic =    23.0800   Anisotropy =     5.5873

     58  Rh   Isotropic =  -296.2274   Anisotropy =   328.0359

     59  C    Isotropic =    73.3351   Anisotropy =   130.1910

     60  C    Isotropic =    78.9581   Anisotropy =   114.1921

     61  C    Isotropic =    81.1015   Anisotropy =   118.7958

     62  C    Isotropic =    70.3979   Anisotropy =   127.3840

     63  C    Isotropic =   154.0192   Anisotropy =    24.8735

     64  H    Isotropic =    27.0555   Anisotropy =     6.7170

     65  H    Isotropic =    26.1683   Anisotropy =     4.0486

     66  C    Isotropic =   147.5832   Anisotropy =    29.1772

     67  C    Isotropic =   153.8586   Anisotropy =    25.4017

     68  H    Isotropic =    26.7130   Anisotropy =     6.4319

     69  C    Isotropic =   148.2397   Anisotropy =    29.2032

     70  H    Isotropic =    26.6403   Anisotropy =     5.5584

     71  H    Isotropic =    30.0710   Anisotropy =    11.1432

     72  H    Isotropic =    29.8045   Anisotropy =     9.6924

     73  H    Isotropic =    28.9273   Anisotropy =    12.7696

     74  H    Isotropic =    28.7774   Anisotropy =     8.0652

     75  H    Isotropic =    29.6489   Anisotropy =     9.7858

     76  H    Isotropic =    29.6595   Anisotropy =    11.6008

     77  H    Isotropic =    29.4825   Anisotropy =     6.8102

     78  H    Isotropic =    29.3791   Anisotropy =    12.5879

     79  C    Isotropic =   166.8896   Anisotropy =    25.8635

     80  H    Isotropic =    31.6605   Anisotropy =     6.7564

     81  H    Isotropic =    31.5323   Anisotropy =     6.6251

     82  H    Isotropic =    31.8457   Anisotropy =     5.3965

 The electronic state is 1-A.
 Alpha  occ. eigenvalues --  -77.23711 -77.23706 -14.40887 -10.31943 -10.31064
 Alpha  occ. eigenvalues --  -10.29768 -10.29401 -10.29391 -10.29138 -10.29133
 Alpha  occ. eigenvalues --  -10.28969 -10.28788 -10.28692 -10.28601 -10.28557
 Alpha  occ. eigenvalues --  -10.28339 -10.28322 -10.28139 -10.28139 -10.27985
 Alpha  occ. eigenvalues --  -10.27807 -10.27798 -10.27709 -10.27707 -10.27606
 Alpha  occ. eigenvalues --  -10.27599 -10.27511 -10.27508 -10.27493 -10.27484
 Alpha  occ. eigenvalues --  -10.27417 -10.27319 -10.27109 -10.27078 -10.27054
 Alpha  occ. eigenvalues --  -10.27050 -10.26940 -10.26939 -10.26916 -10.26881
 Alpha  occ. eigenvalues --  -10.26881 -10.25670  -6.69630  -6.69627  -4.85920
 Alpha  occ. eigenvalues --   -4.85917  -4.85846  -4.85842  -4.85538  -4.85536
 Alpha  occ. eigenvalues --   -3.31241  -2.08121  -2.07500  -2.04692  -1.04550
 Alpha  occ. eigenvalues --   -0.96685  -0.96518  -0.95738  -0.95694  -0.94163
 Alpha  occ. eigenvalues --   -0.91099  -0.90721  -0.88881  -0.87728  -0.87108
 Alpha  occ. eigenvalues --   -0.87104  -0.85307  -0.85242  -0.84894  -0.84693
 Alpha  occ. eigenvalues --   -0.84594  -0.84578  -0.83228  -0.80066  -0.79214
 Alpha  occ. eigenvalues --   -0.77533  -0.75447  -0.74305  -0.71887  -0.71185
 Alpha  occ. eigenvalues --   -0.71056  -0.70596  -0.70512  -0.70250  -0.70080
 Alpha  occ. eigenvalues --   -0.69963  -0.69737  -0.66811  -0.65760  -0.65569
 Alpha  occ. eigenvalues --   -0.62379  -0.62288  -0.62103  -0.61897  -0.60086
 Alpha  occ. eigenvalues --   -0.59857  -0.59724  -0.59021  -0.56838  -0.56395
 Alpha  occ. eigenvalues --   -0.56077  -0.56040  -0.55881  -0.55792  -0.55307
 Alpha  occ. eigenvalues --   -0.55298  -0.55086  -0.54523  -0.54191  -0.53357
 Alpha  occ. eigenvalues --   -0.53046  -0.52936  -0.52780  -0.52529  -0.52506
 Alpha  occ. eigenvalues --   -0.52288  -0.52108  -0.51941  -0.51925  -0.51177
 Alpha  occ. eigenvalues --   -0.50191  -0.49255  -0.48990  -0.48809  -0.48398
 Alpha  occ. eigenvalues --   -0.48012  -0.48010  -0.47608  -0.47248  -0.46971
 Alpha  occ. eigenvalues --   -0.46878  -0.45949  -0.45726  -0.45669  -0.45292
 Alpha  occ. eigenvalues --   -0.45144  -0.44993  -0.44809  -0.44456  -0.43876
 Alpha  occ. eigenvalues --   -0.43327  -0.43163  -0.42969  -0.42789  -0.42311
 Alpha  occ. eigenvalues --   -0.41150  -0.37935  -0.37814  -0.37251  -0.36742
 Alpha  occ. eigenvalues --   -0.36420  -0.36257  -0.36060  -0.35934  -0.35347
 Alpha  occ. eigenvalues --   -0.35311  -0.35012  -0.34925  -0.34457  -0.34061
 Alpha  occ. eigenvalues --   -0.33979  -0.33538  -0.30416
 Alpha virt. eigenvalues --   -0.16041  -0.14663  -0.13918  -0.13814  -0.12712
 Alpha virt. eigenvalues --   -0.12325  -0.11715  -0.11540  -0.11480  -0.10799
 Alpha virt. eigenvalues --   -0.10592  -0.09729  -0.08999  -0.07464  -0.06132

 Mulliken charges:
               1
     1  P    0.422604
     2  P    0.443033
     3  N   -0.095596
     4  C   -0.184865
     5  C   -0.114755
     6  H    0.160178
     7  C   -0.095249
     8  H    0.130953
     9  C   -0.084497
    10  H    0.136683
    11  C   -0.133007
    12  H    0.129794
    13  C   -0.040434
    14  H    0.177666
    15  C   -0.306322
    16  C    0.006389
    17  H    0.154373
    18  C   -0.104619
    19  H    0.135654
    20  C   -0.094345
    21  H    0.137895
    22  C   -0.100820
    23  H    0.131113
    24  C   -0.023033
    25  H    0.153505
    26  C   -0.347227
    27  C   -0.000988
    28  H    0.164138
    29  C   -0.114104
    30  H    0.130233
    31  C   -0.085554
    32  H    0.138380
    33  C   -0.111607
    34  H    0.135224
    35  C    0.019372
    36  H    0.154065
    37  C   -0.190868
    38  C   -0.048478
    39  H    0.175175
    40  C   -0.133193
    41  H    0.130083
    42  C   -0.087055
    43  H    0.136729
    44  C   -0.090793
    45  H    0.131385
    46  C   -0.107755
    47  H    0.160410
    48  C   -0.797900
    49  H    0.264893
    50  C    0.233172
    51  C    0.031007
    52  C   -0.189001
    53  H    0.125767
    54  C    0.009534
    55  H    0.151458
    56  C   -0.130191
    57  H    0.117767
    58  Rh  -0.692133
    59  C   -0.028816
    60  C   -0.107184
    61  C   -0.033250
    62  C   -0.101950
    63  C   -0.349993
    64  H    0.215539
    65  H    0.195074
    66  C   -0.226182
    67  C   -0.349236
    68  H    0.187103
    69  C   -0.227697
    70  H    0.224424
    71  H    0.169804
    72  H    0.166010
    73  H    0.171779
    74  H    0.128594
    75  H    0.169564
    76  H    0.167635
    77  H    0.137735
    78  H    0.170247
    79  C   -0.393868
    80  H    0.166070
    81  H    0.163694
    82  H    0.160660
 Sum of Mulliken charges =   1.00000

 Dipole moment (field-independent basis, Debye):
    X=             -0.1898    Y=              0.5438    Z=              1.4599  Tot=              1.5694
 Quadrupole moment (field-independent basis, Debye-Ang):
   XX=           -226.8716   YY=           -220.9302   ZZ=           -232.6973
   XY=             -2.8617   XZ=             -0.0146   YZ=             -0.7123

 Summary of Natural Population Analysis:

                                       Natural Population
                Natural  -----------------------------------------------
    Atom  No    Charge         Core      Valence    Rydberg      Total
 -----------------------------------------------------------------------
      P    1    1.13829      9.99635     3.81382    0.05154    13.86171
      P    2    1.13772      9.99635     3.81444    0.05148    13.86228
      N    3   -0.44047      1.99944     5.42188    0.01915     7.44047
      C    4   -0.33926      1.99899     4.31702    0.02325     6.33926
      C    5   -0.20088      1.99909     4.18644    0.01535     6.20088
      H    6    0.21456      0.00000     0.78364    0.00181     0.78544
      C    7   -0.19189      1.99919     4.17809    0.01461     6.19189
      H    8    0.22171      0.00000     0.77706    0.00123     0.77829
      C    9   -0.18214      1.99920     4.16832    0.01462     6.18214
      H   10    0.22207      0.00000     0.77675    0.00118     0.77793
      C   11   -0.18812      1.99920     4.17439    0.01452     6.18812
      H   12    0.22111      0.00000     0.77767    0.00122     0.77889
      C   13   -0.20337      1.99908     4.18890    0.01539     6.20337
      H   14    0.22987      0.00000     0.76763    0.00250     0.77013
      C   15   -0.35333      1.99898     4.32972    0.02462     6.35333
      C   16   -0.18314      1.99909     4.16771    0.01635     6.18314
      H   17    0.22412      0.00000     0.77356    0.00233     0.77588
      C   18   -0.19509      1.99919     4.18099    0.01491     6.19509
      H   19    0.22361      0.00000     0.77512    0.00128     0.77639
      C   20   -0.17533      1.99920     4.16151    0.01462     6.17533
      H   21    0.22292      0.00000     0.77591    0.00118     0.77708
      C   22   -0.19930      1.99919     4.18539    0.01471     6.19930
      H   23    0.22078      0.00000     0.77796    0.00126     0.77922
      C   24   -0.18695      1.99909     4.17267    0.01520     6.18695
      H   25    0.21813      0.00000     0.77954    0.00233     0.78187
      C   26   -0.35412      1.99899     4.33045    0.02469     6.35412
      C   27   -0.18593      1.99908     4.17162    0.01523     6.18593
      H   28    0.21969      0.00000     0.77824    0.00207     0.78031
      C   29   -0.19949      1.99919     4.18561    0.01468     6.19949
      H   30    0.22063      0.00000     0.77812    0.00125     0.77937
      C   31   -0.17497      1.99921     4.16115    0.01461     6.17497
      H   32    0.22281      0.00000     0.77601    0.00117     0.77719
      C   33   -0.19514      1.99919     4.18105    0.01489     6.19514
      H   34    0.22346      0.00000     0.77526    0.00128     0.77654
      C   35   -0.18278      1.99909     4.16733    0.01636     6.18278
      H   36    0.22385      0.00000     0.77382    0.00233     0.77615
      C   37   -0.34030      1.99899     4.31822    0.02309     6.34030
      C   38   -0.20288      1.99909     4.18839    0.01540     6.20288
      H   39    0.22956      0.00000     0.76794    0.00249     0.77044
      C   40   -0.18814      1.99920     4.17442    0.01453     6.18814
      H   41    0.22114      0.00000     0.77764    0.00122     0.77886
      C   42   -0.18201      1.99920     4.16819    0.01462     6.18201
      H   43    0.22213      0.00000     0.77670    0.00118     0.77787
      C   44   -0.19174      1.99919     4.17791    0.01464     6.19174
      H   45    0.22186      0.00000     0.77691    0.00123     0.77814
      C   46   -0.20248      1.99909     4.18811    0.01529     6.20248
      H   47    0.21580      0.00000     0.78240    0.00181     0.78420
      C   48   -0.78623      1.99925     4.76043    0.02655     6.78623
      H   49    0.28442      0.00000     0.71215    0.00343     0.71558
      C   50    0.14883      1.99897     3.82257    0.02963     5.85117
      C   51   -0.02659      1.99899     4.01108    0.01651     6.02659
      C   52   -0.15294      1.99913     4.13970    0.01411     6.15294
      H   53    0.21778      0.00000     0.78080    0.00143     0.78222
      C   54   -0.22454      1.99915     4.21137    0.01401     6.22454
      H   55    0.22707      0.00000     0.77175    0.00118     0.77293
      C   56    0.03636      1.99925     3.94171    0.02267     5.96364
      H   57    0.20001      0.00000     0.79845    0.00154     0.79999
     Rh   58   -0.39341     35.98571     9.37913    0.02857    45.39341
      C   59   -0.16377      1.99906     4.14537    0.01934     6.16377
      C   60   -0.17134      1.99907     4.15236    0.01991     6.17134
      C   61   -0.18353      1.99906     4.16492    0.01954     6.18353
      C   62   -0.15253      1.99907     4.13364    0.01982     6.15253
      C   63   -0.42350      1.99936     4.41233    0.01181     6.42350
      H   64    0.23152      0.00000     0.76613    0.00234     0.76848
      H   65    0.22521      0.00000     0.77281    0.00198     0.77479
      C   66   -0.41730      1.99935     4.40522    0.01273     6.41730
      C   67   -0.42293      1.99936     4.41175    0.01181     6.42293
      H   68    0.22487      0.00000     0.77319    0.00194     0.77513
      C   69   -0.41896      1.99935     4.40704    0.01257     6.41896
      H   70    0.23210      0.00000     0.76561    0.00230     0.76790
      H   71    0.22951      0.00000     0.76899    0.00150     0.77049
      H   72    0.21336      0.00000     0.78465    0.00199     0.78664
      H   73    0.23329      0.00000     0.76479    0.00192     0.76671
      H   74    0.21172      0.00000     0.78671    0.00157     0.78828
      H   75    0.21533      0.00000     0.78269    0.00198     0.78467
      H   76    0.22730      0.00000     0.77121    0.00149     0.77270
      H   77    0.22018      0.00000     0.77833    0.00149     0.77982
      H   78    0.23311      0.00000     0.76496    0.00194     0.76689
      C   79   -0.62255      1.99941     4.61406    0.00908     6.62255
      H   80    0.22721      0.00000     0.77055    0.00223     0.77279
      H   81    0.22667      0.00000     0.77115    0.00218     0.77333
      H   82    0.21771      0.00000     0.78025    0.00204     0.78229
 =======================================================================
   * Total *    1.00000    135.94471   217.17946    0.87583   354.00000

 Normal termination of Gaussian 16 at Wed Jan 22 05:00:46 2025.
