 Gaussian 16, Revision B.01,
 Gaussian 16:  ES64L-G16RevB.01 20-Dec-2017

 ------------------------------------------
 # nmr=giao b3lyp/genecp pop=nbo scfcyc=200
 ------------------------------------------

 --------
 MS-3_SPE
 --------
 Symbolic Z-matrix:
 Charge =  1 Multiplicity = 1

                         Standard orientation:
 ---------------------------------------------------------------------
 Center     Atomic      Atomic             Coordinates (Angstroms)
 Number     Number       Type             X           Y           Z
 ---------------------------------------------------------------------
      1         15           0       -1.322883   -0.846814    0.097621
      2         15           0        1.391638   -0.723865    0.130531
      3          6           0       -2.269055   -1.456870   -1.461919
      4          6           0        2.451275   -1.270280   -1.379359
      5          6           0        0.087472   -2.056730    0.431441
      6          1           0        0.079052   -2.179080    1.520831
      7          6           0        2.648747   -0.944441    1.568851
      8          6           0       -2.607344   -1.212799    1.480781
      9         45           0       -0.049435    1.072011   -0.013529
     10          6           0       -1.575629    2.663057   -0.737979
     11          6           0       -1.617109    2.610727    0.636531
     12          6           0        1.324472    2.878245    0.476581
     13          6           0        1.378461    2.642005   -0.877979
     14          6           0       -0.860604    3.708884   -1.570039
     15          1           0       -2.304311    2.060530   -1.270389
     16          1           0       -2.403741    2.009390    1.081621
     17          6           0       -0.892975    3.503924    1.609781
     18          6           0        0.513017    3.958838    1.163511
     19          1           0        2.103191    2.424452    1.080791
     20          6           0        0.582674    3.324438   -1.959619
     21          1           0        2.216379    2.055351   -1.241539
     22          1           0       -1.430864    3.859566   -2.487389
     23          1           0       -0.874520    4.663104   -1.045319
     24          1           0       -1.516241    4.381937    1.819391
     25          1           0       -0.814037    2.967734    2.557561
     26          1           0        0.445450    4.830628    0.514241
     27          1           0        1.061358    4.282886    2.048791
     28          1           0        0.557281    2.658198   -2.824249
     29          1           0        1.125988    4.217466   -2.292169
     30          9           0       -2.947540   -2.502508    1.540761
     31          9           0       -3.710091   -0.479275    1.292901
     32          9           0       -2.056173   -0.867521    2.655851
     33          9           0        2.010278   -0.673738    2.718691
     34          9           0        3.137012   -2.185043    1.643221
     35          9           0        3.663250   -0.084315    1.428551
     36          9           0        3.376909   -0.332603   -1.624599
     37          9           0        3.065551   -2.440452   -1.199869
     38          9           0        1.648435   -1.368456   -2.448569
     39          9           0       -1.412315   -1.490024   -2.492669
     40          9           0       -2.805620   -2.669438   -1.315499
     41          9           0       -3.246402   -0.585786   -1.745709
     42          6           0        0.156307   -3.426520   -0.241349
     43          1           0        1.055324   -3.951014    0.083211
     44          1           0       -0.705376   -4.024917    0.055691
     45          1           0        0.170427   -3.358940   -1.327479
 ---------------------------------------------------------------------

 SCF Done:  E(RB3LYP) =  -2535.05671248     A.U. after   16 cycles

      1  P    Isotropic =   271.1033   Anisotropy =   124.2609

      2  P    Isotropic =   271.6459   Anisotropy =   125.0526

      3  C    Isotropic =    47.1536   Anisotropy =     5.8149

      4  C    Isotropic =    46.9904   Anisotropy =     5.8504

      5  C    Isotropic =   118.0920   Anisotropy =    59.3399

      6  H    Isotropic =    27.4484   Anisotropy =     2.0245

      7  C    Isotropic =    46.5185   Anisotropy =     4.7742

      8  C    Isotropic =    46.2711   Anisotropy =     4.8490

      9  Rh   Isotropic =  -309.4429   Anisotropy =   397.9394

     10  C    Isotropic =    64.5895   Anisotropy =   143.8658

     11  C    Isotropic =    64.6110   Anisotropy =   135.9126

     12  C    Isotropic =    64.6390   Anisotropy =   143.1086

     13  C    Isotropic =    64.5945   Anisotropy =   136.6753

     14  C    Isotropic =   154.3515   Anisotropy =    25.3105

     15  H    Isotropic =    26.2470   Anisotropy =     6.5012

     16  H    Isotropic =    25.6363   Anisotropy =     4.2295

     17  C    Isotropic =   147.9917   Anisotropy =    29.1832

     18  C    Isotropic =   154.3864   Anisotropy =    25.3948

     19  H    Isotropic =    26.2791   Anisotropy =     6.5800

     20  C    Isotropic =   147.8788   Anisotropy =    28.9350

     21  H    Isotropic =    25.5607   Anisotropy =     4.1170

     22  H    Isotropic =    29.7247   Anisotropy =    11.5060

     23  H    Isotropic =    29.5233   Anisotropy =     8.8999

     24  H    Isotropic =    28.9660   Anisotropy =    12.2322

     25  H    Isotropic =    29.0352   Anisotropy =     7.4631

     26  H    Isotropic =    29.5229   Anisotropy =     8.8427

     27  H    Isotropic =    29.7296   Anisotropy =    11.5269

     28  H    Isotropic =    29.0308   Anisotropy =     7.3052

     29  H    Isotropic =    28.9629   Anisotropy =    12.2427

     30  F    Isotropic =   221.6616   Anisotropy =   134.2625

     31  F    Isotropic =   223.9947   Anisotropy =   128.2448

     32  F    Isotropic =   223.0209   Anisotropy =   137.3150

     33  F    Isotropic =   223.0622   Anisotropy =   136.9363

     34  F    Isotropic =   221.5877   Anisotropy =   134.0283

     35  F    Isotropic =   223.6849   Anisotropy =   128.9618

     36  F    Isotropic =   215.9424   Anisotropy =   141.9955

     37  F    Isotropic =   215.0365   Anisotropy =   128.1320

     38  F    Isotropic =   215.8618   Anisotropy =   130.3674

     39  F    Isotropic =   216.3841   Anisotropy =   130.5733

     40  F    Isotropic =   215.3486   Anisotropy =   128.6461

     41  F    Isotropic =   215.7766   Anisotropy =   142.8503

     42  C    Isotropic =   169.1050   Anisotropy =    26.0132

     43  H    Isotropic =    30.2211   Anisotropy =    10.6419

     44  H    Isotropic =    30.2209   Anisotropy =    10.6038

     45  H    Isotropic =    29.9024   Anisotropy =     4.9277

 The electronic state is 1-A.
 Alpha  occ. eigenvalues --  -77.31508 -77.31495 -24.86670 -24.86648 -24.86616
 Alpha  occ. eigenvalues --  -24.86616 -24.86610 -24.86581 -24.86564 -24.86523
 Alpha  occ. eigenvalues --  -24.86499 -24.86488 -24.86482 -24.86461 -10.58317
 Alpha  occ. eigenvalues --  -10.58283 -10.58263 -10.58237 -10.38601 -10.34038
 Alpha  occ. eigenvalues --  -10.34004 -10.33872 -10.33857 -10.31937 -10.31486
 Alpha  occ. eigenvalues --  -10.31471 -10.31218 -10.31203  -6.77599  -6.77590
 Alpha  occ. eigenvalues --   -4.93857  -4.93851  -4.93849  -4.93840  -4.93430
 Alpha  occ. eigenvalues --   -4.93420  -3.38004  -2.15181  -2.14258  -2.11184
 Alpha  occ. eigenvalues --   -1.47068  -1.47056  -1.46845  -1.46831  -1.38302
 Alpha  occ. eigenvalues --   -1.38281  -1.38223  -1.38186  -1.38118  -1.38079
 Alpha  occ. eigenvalues --   -1.38025  -1.38013  -0.98947  -0.97616  -0.93929
 Alpha  occ. eigenvalues --   -0.92167  -0.90666  -0.88959  -0.85682  -0.85571
 Alpha  occ. eigenvalues --   -0.84713  -0.83073  -0.82164  -0.80800  -0.77487
 Alpha  occ. eigenvalues --   -0.74975  -0.74904  -0.74782  -0.74726  -0.74711
 Alpha  occ. eigenvalues --   -0.74618  -0.74522  -0.74371  -0.74360  -0.73226
 Alpha  occ. eigenvalues --   -0.72737  -0.70085  -0.67626  -0.66666  -0.65204
 Alpha  occ. eigenvalues --   -0.64285  -0.62509  -0.62499  -0.62214  -0.62162
 Alpha  occ. eigenvalues --   -0.61957  -0.61791  -0.61775  -0.61700  -0.61667
 Alpha  occ. eigenvalues --   -0.60414  -0.60124  -0.59906  -0.59533  -0.59136
 Alpha  occ. eigenvalues --   -0.58970  -0.58149  -0.58050  -0.57856  -0.57763
 Alpha  occ. eigenvalues --   -0.57641  -0.56868  -0.56776  -0.56648  -0.56515
 Alpha  occ. eigenvalues --   -0.56365  -0.56182  -0.56053  -0.55972  -0.53385
 Alpha  occ. eigenvalues --   -0.52869  -0.52105  -0.51155  -0.50869  -0.50237
 Alpha  occ. eigenvalues --   -0.49999  -0.48952  -0.48609  -0.48206  -0.47363
 Alpha  occ. eigenvalues --   -0.46641  -0.42601  -0.42244  -0.41573  -0.41083
 Alpha  occ. eigenvalues --   -0.39946  -0.36990
 Alpha virt. eigenvalues --   -0.22824  -0.21040  -0.16226  -0.14353  -0.13816
 Alpha virt. eigenvalues --   -0.13677  -0.12528  -0.11701  -0.10200  -0.08816
 Alpha virt. eigenvalues --   -0.08754  -0.07658  -0.07118  -0.06540  -0.06490

 Mulliken charges:
               1
     1  P    0.217122
     2  P    0.208890
     3  C    0.418295
     4  C    0.415093
     5  C   -0.478235
     6  H    0.260068
     7  C    0.401756
     8  C    0.395249
     9  Rh  -0.490184
    10  C    0.011253
    11  C   -0.100169
    12  C    0.008794
    13  C   -0.097691
    14  C   -0.352938
    15  H    0.204149
    16  H    0.209725
    17  C   -0.227201
    18  C   -0.355418
    19  H    0.201820
    20  C   -0.226994
    21  H    0.213474
    22  H    0.189021
    23  H    0.177685
    24  H    0.195565
    25  H    0.154669
    26  H    0.178451
    27  H    0.188767
    28  H    0.154567
    29  H    0.195211
    30  F   -0.112535
    31  F   -0.123389
    32  F   -0.130483
    33  F   -0.130306
    34  F   -0.112174
    35  F   -0.123157
    36  F   -0.126954
    37  F   -0.111855
    38  F   -0.130484
    39  F   -0.130689
    40  F   -0.112096
    41  F   -0.126082
    42  C   -0.318773
    43  H    0.176248
    44  H    0.176167
    45  H    0.165766
 Sum of Mulliken charges =   1.00000

 Dipole moment (field-independent basis, Debye):
    X=             -0.2118    Y=              4.5178    Z=              0.1433  Tot=              4.5250
 Quadrupole moment (field-independent basis, Debye-Ang):
   XX=           -182.9198   YY=           -143.5910   ZZ=           -182.6553
   XY=             -1.8003   XZ=             -0.3522   YZ=             -2.5349

 Summary of Natural Population Analysis:

                                       Natural Population
                Natural  -----------------------------------------------
    Atom  No    Charge         Core      Valence    Rydberg      Total
 -----------------------------------------------------------------------
      P    1    0.88048      9.99579     4.07070    0.05303    14.11952
      P    2    0.87915      9.99579     4.07206    0.05300    14.12085
      C    3    0.75237      1.99963     3.18870    0.05930     5.24763
      C    4    0.75213      1.99963     3.18899    0.05925     5.24787
      C    5   -0.72788      1.99943     4.70758    0.02087     6.72788
      H    6    0.28371      0.00000     0.71451    0.00178     0.71629
      C    7    0.74986      1.99963     3.19133    0.05917     5.25014
      C    8    0.74917      1.99963     3.19213    0.05906     5.25083
     Rh    9   -0.46160     35.98530     9.44930    0.02700    45.46160
      C   10   -0.14656      1.99907     4.12649    0.02100     6.14656
      C   11   -0.13564      1.99907     4.11515    0.02142     6.13564
      C   12   -0.14645      1.99907     4.12629    0.02109     6.14645
      C   13   -0.13804      1.99908     4.11732    0.02164     6.13804
      C   14   -0.42898      1.99936     4.41766    0.01197     6.42898
      H   15    0.24082      0.00000     0.75764    0.00153     0.75918
      H   16    0.23663      0.00000     0.76172    0.00165     0.76337
      C   17   -0.43059      1.99935     4.41850    0.01274     6.43059
      C   18   -0.42891      1.99936     4.41759    0.01197     6.42891
      H   19    0.23891      0.00000     0.75956    0.00153     0.76109
      C   20   -0.43075      1.99935     4.41864    0.01276     6.43075
      H   21    0.24187      0.00000     0.75659    0.00154     0.75813
      H   22    0.24161      0.00000     0.75703    0.00136     0.75839
      H   23    0.21917      0.00000     0.77887    0.00196     0.78083
      H   24    0.24980      0.00000     0.74854    0.00167     0.75020
      H   25    0.23056      0.00000     0.76793    0.00151     0.76944
      H   26    0.21932      0.00000     0.77872    0.00196     0.78068
      H   27    0.24139      0.00000     0.75724    0.00137     0.75861
      H   28    0.23060      0.00000     0.76788    0.00152     0.76940
      H   29    0.24998      0.00000     0.74835    0.00166     0.75002
      F   30   -0.28835      1.99992     7.27892    0.00951     9.28835
      F   31   -0.29208      1.99992     7.28313    0.00903     9.29208
      F   32   -0.29842      1.99992     7.28937    0.00913     9.29842
      F   33   -0.29803      1.99992     7.28892    0.00919     9.29803
      F   34   -0.28837      1.99992     7.27896    0.00949     9.28837
      F   35   -0.29178      1.99992     7.28269    0.00918     9.29178
      F   36   -0.29493      1.99992     7.28584    0.00917     9.29493
      F   37   -0.28687      1.99992     7.27733    0.00963     9.28687
      F   38   -0.29572      1.99992     7.28660    0.00921     9.29572
      F   39   -0.29583      1.99992     7.28668    0.00923     9.29583
      F   40   -0.28722      1.99992     7.27769    0.00960     9.28722
      F   41   -0.29373      1.99992     7.28472    0.00909     9.29373
      C   42   -0.62200      1.99939     4.61172    0.01088     6.62200
      H   43    0.24524      0.00000     0.75334    0.00142     0.75476
      H   44    0.24523      0.00000     0.75335    0.00142     0.75477
      H   45    0.23075      0.00000     0.76779    0.00146     0.76925
 =======================================================================
   * Total *    1.00000    107.96698   173.36007    0.67296   282.00000

 Normal termination of Gaussian 16 at Wed Jan 22 01:53:54 2025.
