 Gaussian 16, Revision B.01,
 Gaussian 16:  ES64L-G16RevB.01 20-Dec-2017

 ------------------------------------------
 # nmr=giao b3lyp/genecp pop=nbo scfcyc=200
 ------------------------------------------

 ---------
 MS-42_SPE
 ---------
 Symbolic Z-matrix:
 Charge =  1 Multiplicity = 1

                         Standard orientation:
 ---------------------------------------------------------------------
 Center     Atomic      Atomic             Coordinates (Angstroms)
 Number     Number       Type             X           Y           Z
 ---------------------------------------------------------------------
      1          6           0        1.292400    0.815460   -1.783451
      2          6           0        0.977760    2.050570   -2.400071
      3          1           0        0.228900    2.069560   -3.182981
      4          6           0        1.627800    3.200530   -2.052231
      5          1           0        1.394530    4.135220   -2.548381
      6          6           0        2.617400    3.187650   -1.041901
      7          6           0        3.284180    4.378620   -0.659331
      8          1           0        3.033259    5.299910   -1.171871
      9          6           0        4.223310    4.371290    0.337709
     10          1           0        4.728199    5.285840    0.621979
     11          6           0        4.529580    3.163700    0.998219
     12          1           0        5.266290    3.159990    1.791969
     13          6           0        3.907830    1.992950    0.644189
     14          1           0        4.167220    1.083050    1.164709
     15          6           0        2.938620    1.953660   -0.392951
     16          6           0        2.264070    0.747000   -0.798441
     17          6           0        2.653270   -0.564400   -0.185341
     18          6           0        4.012410   -1.010080   -0.369061
     19          6           0        4.898690   -0.382210   -1.285371
     20          1           0        4.551950    0.458550   -1.868121
     21          6           0        6.183450   -0.832350   -1.456431
     22          1           0        6.832130   -0.341139   -2.170891
     23          6           0        6.668710   -1.928409   -0.713801
     24          1           0        7.688780   -2.264109   -0.851011
     25          6           0        5.839620   -2.572420    0.166379
     26          1           0        6.191800   -3.428690    0.729379
     27          6           0        4.500260   -2.146990    0.344879
     28          6           0        3.614900   -2.839630    1.199939
     29          1           0        3.977900   -3.689730    1.765369
     30          6           0        2.302310   -2.474820    1.268549
     31          1           0        1.628400   -3.063280    1.879859
     32          6           0        1.777040   -1.357100    0.559979
     33          6           0        0.258950   -1.261350    0.574999
     34          1           0       -0.066350   -2.235970    0.935659
     35          6           0        0.599770   -0.422570   -2.268821
     36          1           0        0.069190   -0.218400   -3.197771
     37          1           0        1.328250   -1.208970   -2.472541
     38          6           0       -0.859910   -2.921620   -1.807891
     39          6           0       -2.041520   -3.630140   -1.130581
     40          1           0       -2.214930   -4.588200   -1.627471
     41          1           0       -1.843760   -3.844300   -0.081981
     42          1           0       -2.962330   -3.049740   -1.190531
     43          6           0        0.408600   -3.768310   -1.620311
     44          1           0        1.290730   -3.322900   -2.080791
     45          1           0        0.634480   -3.952100   -0.570201
     46          1           0        0.253600   -4.741700   -2.094051
     47          6           0       -1.152900   -2.783730   -3.315261
     48          1           0       -1.398660   -3.770830   -3.714421
     49          1           0       -2.001840   -2.131560   -3.526541
     50          1           0       -0.293520   -2.416150   -3.875021
     51         15           0       -0.646150   -1.148450   -1.080551
     52         15           0       -0.985780   -0.167240    1.609829
     53         45           0       -2.470260    0.130530   -0.300631
     54          6           0       -3.885440   -0.294280   -1.984861
     55          6           0       -3.253210    0.903000   -2.269021
     56          6           0       -4.465870    0.892960    0.590469
     57          6           0       -3.616550    1.959600    0.412869
     58          1           0       -3.493290   -1.182270   -2.465091
     59          6           0       -5.266410   -0.477740   -1.408631
     60          6           0       -3.871080    2.281420   -2.118431
     61          1           0       -2.389060    0.856350   -2.922261
     62          1           0       -4.481850    0.440790    1.573599
     63          6           0       -5.632150    0.536500   -0.308041
     64          1           0       -3.062860    2.293470    1.281599
     65          6           0       -3.612940    2.929170   -0.741951
     66          1           0       -6.011590   -0.441461   -2.213261
     67          1           0       -5.323850   -1.487980   -0.996771
     68          1           0       -3.458730    2.933340   -2.890191
     69          1           0       -4.941380    2.224230   -2.317171
     70          1           0       -6.045780    1.443569   -0.748361
     71          1           0       -6.427350    0.112369    0.307379
     72          1           0       -4.349110    3.722240   -0.560421
     73          1           0       -2.639600    3.423610   -0.758501
     74          6           0       -0.133260    1.385510    2.391059
     75          6           0       -1.591040   -1.355800    3.031229
     76          6           0       -2.848750   -0.767220    3.698749
     77          1           0       -3.678820   -0.707650    2.996299
     78          1           0       -3.156300   -1.440890    4.502979
     79          1           0       -2.697370    0.212550    4.139689
     80          6           0       -2.022850   -2.698150    2.417789
     81          1           0       -2.716540   -2.562070    1.587759
     82          1           0       -1.183110   -3.307860    2.082909
     83          1           0       -2.537070   -3.279140    3.187379
     84          6           0       -0.514360   -1.623610    4.093839
     85          1           0       -0.300390   -0.747400    4.702749
     86          1           0       -0.875090   -2.404080    4.769899
     87          1           0        0.422830   -1.975060    3.660769
     88          6           0       -0.974600    1.972060    3.538189
     89          1           0       -0.536250    2.936050    3.809929
     90          1           0       -2.010970    2.160470    3.255299
     91          1           0       -0.963790    1.352910    4.432999
     92          6           0       -0.047880    2.454410    1.289749
     93          1           0        0.554900    3.289050    1.655889
     94          1           0        0.415400    2.086610    0.381229
     95          1           0       -1.031140    2.842930    1.032299
     96          6           0        1.271970    1.070420    2.925429
     97          1           0        1.933300    0.693750    2.152589
     98          1           0        1.710110    1.995480    3.309649
     99          1           0        1.258140    0.351950    3.741719
 ---------------------------------------------------------------------

 SCF Done:  E(RB3LYP) =  -2426.74323236     A.U. after   19 cycles

      1  C    Isotropic =    48.0225   Anisotropy =   182.8605

      2  C    Isotropic =    52.2302   Anisotropy =   153.0941

      3  H    Isotropic =    24.1643   Anisotropy =     7.7339

      4  C    Isotropic =    47.8668   Anisotropy =   165.3693

      5  H    Isotropic =    23.5942   Anisotropy =     6.5648

      6  C    Isotropic =    43.3703   Anisotropy =   219.1025

      7  C    Isotropic =    50.0075   Anisotropy =   163.4009

      8  H    Isotropic =    23.6945   Anisotropy =     7.2301

      9  C    Isotropic =    51.5712   Anisotropy =   185.9081

     10  H    Isotropic =    24.1031   Anisotropy =     3.6527

     11  C    Isotropic =    51.5242   Anisotropy =   184.9401

     12  H    Isotropic =    24.4579   Anisotropy =     8.2382

     13  C    Isotropic =    50.1602   Anisotropy =   182.0183

     14  H    Isotropic =    25.0866   Anisotropy =    14.1573

     15  C    Isotropic =    43.6493   Anisotropy =   211.7360

     16  C    Isotropic =    40.4581   Anisotropy =   159.8918

     17  C    Isotropic =    38.5694   Anisotropy =   166.1294

     18  C    Isotropic =    42.1792   Anisotropy =   207.5450

     19  C    Isotropic =    51.0465   Anisotropy =   179.2661

     20  H    Isotropic =    24.8293   Anisotropy =    16.5781

     21  C    Isotropic =    50.8165   Anisotropy =   185.0713

     22  H    Isotropic =    24.3870   Anisotropy =     8.5563

     23  C    Isotropic =    50.4570   Anisotropy =   188.1116

     24  H    Isotropic =    24.0339   Anisotropy =     3.9843

     25  C    Isotropic =    51.0072   Anisotropy =   163.0267

     26  H    Isotropic =    23.7092   Anisotropy =     7.6397

     27  C    Isotropic =    44.7450   Anisotropy =   215.6390

     28  C    Isotropic =    48.7752   Anisotropy =   161.3848

     29  H    Isotropic =    23.7378   Anisotropy =     7.8369

     30  C    Isotropic =    50.4870   Anisotropy =   141.7530

     31  H    Isotropic =    24.3854   Anisotropy =    10.5533

     32  C    Isotropic =    41.9077   Anisotropy =   174.4438

     33  C    Isotropic =   115.0900   Anisotropy =    67.2734

     34  H    Isotropic =    26.3357   Anisotropy =     3.0555

     35  C    Isotropic =   148.6912   Anisotropy =    38.0954

     36  H    Isotropic =    29.0986   Anisotropy =     5.5010

     37  H    Isotropic =    28.4334   Anisotropy =     2.6515

     38  C    Isotropic =   134.1997   Anisotropy =    34.4138

     39  C    Isotropic =   153.6767   Anisotropy =    38.6789

     40  H    Isotropic =    30.8096   Anisotropy =    10.6075

     41  H    Isotropic =    30.2428   Anisotropy =     6.9403

     42  H    Isotropic =    30.2029   Anisotropy =     6.7368

     43  C    Isotropic =   157.6427   Anisotropy =    39.2349

     44  H    Isotropic =    31.4921   Anisotropy =     6.0857

     45  H    Isotropic =    31.0703   Anisotropy =     7.8245

     46  H    Isotropic =    31.1548   Anisotropy =    10.6214

     47  C    Isotropic =   156.8966   Anisotropy =    39.1891

     48  H    Isotropic =    31.0862   Anisotropy =    11.4200

     49  H    Isotropic =    31.0552   Anisotropy =     6.9837

     50  H    Isotropic =    30.9796   Anisotropy =     6.8410

     51  P    Isotropic =   244.4174   Anisotropy =    80.5382

     52  P    Isotropic =   236.9595   Anisotropy =    55.9493

     53  Rh   Isotropic =  -335.0474   Anisotropy =   384.7918

     54  C    Isotropic =    83.9264   Anisotropy =   107.7801

     55  C    Isotropic =    84.6389   Anisotropy =   114.3487

     56  C    Isotropic =    74.9016   Anisotropy =   128.6557

     57  C    Isotropic =    76.1179   Anisotropy =   118.9570

     58  H    Isotropic =    26.6048   Anisotropy =     4.0518

     59  C    Isotropic =   146.8605   Anisotropy =    31.3675

     60  C    Isotropic =   154.4016   Anisotropy =    24.7704

     61  H    Isotropic =    26.9075   Anisotropy =     5.9155

     62  H    Isotropic =    26.7217   Anisotropy =     6.1816

     63  C    Isotropic =   154.5911   Anisotropy =    25.3441

     64  H    Isotropic =    26.3953   Anisotropy =     2.2877

     65  C    Isotropic =   149.0517   Anisotropy =    27.3801

     66  H    Isotropic =    29.0606   Anisotropy =    13.0015

     67  H    Isotropic =    29.0761   Anisotropy =     7.3063

     68  H    Isotropic =    29.7423   Anisotropy =    10.8835

     69  H    Isotropic =    29.7673   Anisotropy =    10.2144

     70  H    Isotropic =    29.8768   Anisotropy =     9.8598

     71  H    Isotropic =    29.8930   Anisotropy =    11.9989

     72  H    Isotropic =    29.2837   Anisotropy =    12.8243

     73  H    Isotropic =    29.2520   Anisotropy =     6.6013

     74  C    Isotropic =   129.9828   Anisotropy =    40.9251

     75  C    Isotropic =   130.3162   Anisotropy =    40.6197

     76  C    Isotropic =   154.6693   Anisotropy =    39.5839

     77  H    Isotropic =    30.8429   Anisotropy =     6.5524

     78  H    Isotropic =    30.9544   Anisotropy =    11.1218

     79  H    Isotropic =    30.3696   Anisotropy =     5.6594

     80  C    Isotropic =   147.5168   Anisotropy =    38.8955

     81  H    Isotropic =    29.8666   Anisotropy =     6.5947

     82  H    Isotropic =    30.0377   Anisotropy =     4.6645

     83  H    Isotropic =    30.5468   Anisotropy =     9.3107

     84  C    Isotropic =   154.9372   Anisotropy =    34.1649

     85  H    Isotropic =    30.3024   Anisotropy =     6.5849

     86  H    Isotropic =    30.6602   Anisotropy =    11.2461

     87  H    Isotropic =    30.1289   Anisotropy =     6.3110

     88  C    Isotropic =   151.3646   Anisotropy =    37.3335

     89  H    Isotropic =    31.2426   Anisotropy =     9.5569

     90  H    Isotropic =    31.1006   Anisotropy =     6.2610

     91  H    Isotropic =    30.7140   Anisotropy =     8.4288

     92  C    Isotropic =   154.2334   Anisotropy =    40.1707

     93  H    Isotropic =    32.9010   Anisotropy =     6.7903

     94  H    Isotropic =    32.9815   Anisotropy =    19.7103

     95  H    Isotropic =    31.2538   Anisotropy =     6.3863

     96  C    Isotropic =   155.7125   Anisotropy =    31.0881

     97  H    Isotropic =    30.7407   Anisotropy =    10.1588

     98  H    Isotropic =    32.0323   Anisotropy =     7.9066

     99  H    Isotropic =    30.8378   Anisotropy =     6.2354

 The electronic state is 1-A.
 Alpha  occ. eigenvalues --  -77.22663 -77.22647 -10.31097 -10.30901 -10.30715
 Alpha  occ. eigenvalues --  -10.30471 -10.29452 -10.29024 -10.28842 -10.28836
 Alpha  occ. eigenvalues --  -10.28831 -10.28745 -10.28662 -10.28559 -10.28311
 Alpha  occ. eigenvalues --  -10.27716 -10.27699 -10.27345 -10.27340 -10.27273
 Alpha  occ. eigenvalues --  -10.27269 -10.27177 -10.27111 -10.26953 -10.26791
 Alpha  occ. eigenvalues --  -10.26731 -10.26705 -10.26685 -10.26661 -10.26299
 Alpha  occ. eigenvalues --  -10.26260 -10.26213 -10.26188 -10.26179 -10.25896
 Alpha  occ. eigenvalues --  -10.25807 -10.25802 -10.25741 -10.25703 -10.25682
 Alpha  occ. eigenvalues --  -10.25645 -10.25602 -10.25081 -10.25039  -6.68643
 Alpha  occ. eigenvalues --   -6.68464  -4.84928  -4.84832  -4.84776  -4.84643
 Alpha  occ. eigenvalues --   -4.84554  -4.84377  -3.31026  -2.07869  -2.07270
 Alpha  occ. eigenvalues --   -2.04466  -0.98352  -0.96394  -0.94380  -0.93743
 Alpha  occ. eigenvalues --   -0.92794  -0.92122  -0.91883  -0.90966  -0.89018
 Alpha  occ. eigenvalues --   -0.88799  -0.87922  -0.87438  -0.86470  -0.84436
 Alpha  occ. eigenvalues --   -0.82416  -0.81748  -0.81177  -0.80258  -0.79785
 Alpha  occ. eigenvalues --   -0.79464  -0.79289  -0.78991  -0.78414  -0.78345
 Alpha  occ. eigenvalues --   -0.78101  -0.77649  -0.73836  -0.73210  -0.71327
 Alpha  occ. eigenvalues --   -0.70814  -0.70434  -0.69738  -0.68973  -0.67808
 Alpha  occ. eigenvalues --   -0.66189  -0.65892  -0.65339  -0.63133  -0.62527
 Alpha  occ. eigenvalues --   -0.62200  -0.61430  -0.61098  -0.60269  -0.60066
 Alpha  occ. eigenvalues --   -0.59061  -0.58378  -0.57693  -0.57367  -0.57056
 Alpha  occ. eigenvalues --   -0.56350  -0.55885  -0.55584  -0.55059  -0.54674
 Alpha  occ. eigenvalues --   -0.54479  -0.54288  -0.54040  -0.53837  -0.53658
 Alpha  occ. eigenvalues --   -0.53489  -0.53103  -0.52946  -0.52580  -0.52368
 Alpha  occ. eigenvalues --   -0.52183  -0.51876  -0.50918  -0.50866  -0.50576
 Alpha  occ. eigenvalues --   -0.50362  -0.50232  -0.49659  -0.49500  -0.49103
 Alpha  occ. eigenvalues --   -0.48786  -0.48389  -0.48351  -0.48276  -0.47985
 Alpha  occ. eigenvalues --   -0.47801  -0.47609  -0.47431  -0.47084  -0.46930
 Alpha  occ. eigenvalues --   -0.46745  -0.46424  -0.46268  -0.46005  -0.45792
 Alpha  occ. eigenvalues --   -0.45169  -0.44851  -0.44699  -0.44305  -0.44059
 Alpha  occ. eigenvalues --   -0.43813  -0.43740  -0.43229  -0.43154  -0.42976
 Alpha  occ. eigenvalues --   -0.42852  -0.42705  -0.42518  -0.41392  -0.41024
 Alpha  occ. eigenvalues --   -0.40651  -0.40298  -0.39764  -0.39690  -0.37857
 Alpha  occ. eigenvalues --   -0.37053  -0.36220  -0.35683  -0.34532  -0.34095
 Alpha  occ. eigenvalues --   -0.33560  -0.33274  -0.33179  -0.31107  -0.30350
 Alpha  occ. eigenvalues --   -0.30215
 Alpha virt. eigenvalues --   -0.15817  -0.14856  -0.13956  -0.13176  -0.11440
 Alpha virt. eigenvalues --   -0.10963  -0.09178  -0.08423  -0.07863  -0.07547
 Alpha virt. eigenvalues --   -0.07032  -0.06714  -0.06340  -0.05996  -0.05728

 Mulliken charges:
               1
     1  C    0.202635
     2  C   -0.197417
     3  H    0.111151
     4  C   -0.126945
     5  H    0.113445
     6  C   -0.027722
     7  C   -0.151711
     8  H    0.114970
     9  C   -0.080307
    10  H    0.121807
    11  C   -0.078174
    12  H    0.119985
    13  C   -0.103365
    14  H    0.160585
    15  C    0.065443
    16  C   -0.066811
    17  C   -0.158964
    18  C   -0.050518
    19  C   -0.081462
    20  H    0.149060
    21  C   -0.069259
    22  H    0.121917
    23  C   -0.076671
    24  H    0.125172
    25  C   -0.138798
    26  H    0.117843
    27  C    0.007466
    28  C   -0.158111
    29  H    0.115208
    30  C   -0.194940
    31  H    0.117302
    32  C    0.314503
    33  C   -0.641715
    34  H    0.159009
    35  C   -0.551229
    36  H    0.209773
    37  H    0.213857
    38  C   -0.059259
    39  C   -0.389072
    40  H    0.155125
    41  H    0.137545
    42  H    0.136338
    43  C   -0.369691
    44  H    0.146637
    45  H    0.136608
    46  H    0.153210
    47  C   -0.410689
    48  H    0.158107
    49  H    0.149089
    50  H    0.159435
    51  P    0.542572
    52  P    0.448099
    53  Rh  -0.543815
    54  C   -0.087823
    55  C   -0.003083
    56  C    0.005809
    57  C   -0.151351
    58  H    0.167726
    59  C   -0.225978
    60  C   -0.369736
    61  H    0.161142
    62  H    0.185777
    63  C   -0.342429
    64  H    0.186507
    65  C   -0.214804
    66  H    0.168199
    67  H    0.132796
    68  H    0.164139
    69  H    0.169687
    70  H    0.167825
    71  H    0.167668
    72  H    0.170655
    73  H    0.135607
    74  C   -0.038177
    75  C   -0.034324
    76  C   -0.409174
    77  H    0.124648
    78  H    0.155577
    79  H    0.166824
    80  C   -0.478059
    81  H    0.168407
    82  H    0.145513
    83  H    0.160602
    84  C   -0.397406
    85  H    0.147224
    86  H    0.149286
    87  H    0.147941
    88  C   -0.438226
    89  H    0.156269
    90  H    0.146483
    91  H    0.147834
    92  C   -0.316627
    93  H    0.152455
    94  H    0.107520
    95  H    0.119650
    96  C   -0.382405
    97  H    0.153640
    98  H    0.146081
    99  H    0.152862
 Sum of Mulliken charges =   1.00000

 Dipole moment (field-independent basis, Debye):
    X=             -3.2220    Y=             -1.0411    Z=              0.3853  Tot=              3.4078
 Quadrupole moment (field-independent basis, Debye-Ang):
   XX=           -234.9188   YY=           -258.7995   ZZ=           -267.8026
   XY=             -1.6673   XZ=              3.5236   YZ=             -3.1132

 Summary of Natural Population Analysis:

                                       Natural Population
                Natural  -----------------------------------------------
    Atom  No    Charge         Core      Valence    Rydberg      Total
 -----------------------------------------------------------------------
      C    1   -0.02950      1.99899     4.01086    0.01964     6.02950
      C    2   -0.20283      1.99911     4.18878    0.01494     6.20283
      H    3    0.20857      0.00000     0.78976    0.00167     0.79143
      C    4   -0.15740      1.99913     4.14427    0.01401     6.15740
      H    5    0.21666      0.00000     0.78174    0.00161     0.78334
      C    6   -0.06391      1.99907     4.04799    0.01684     6.06391
      C    7   -0.17406      1.99914     4.16047    0.01445     6.17406
      H    8    0.21386      0.00000     0.78452    0.00162     0.78614
      C    9   -0.19462      1.99919     4.18032    0.01510     6.19462
      H   10    0.21985      0.00000     0.77903    0.00111     0.78015
      C   11   -0.19027      1.99920     4.17597    0.01510     6.19027
      H   12    0.21806      0.00000     0.78062    0.00132     0.78194
      C   13   -0.19156      1.99911     4.17715    0.01529     6.19156
      H   14    0.21918      0.00000     0.77878    0.00204     0.78082
      C   15   -0.04238      1.99900     4.02506    0.01833     6.04238
      C   16   -0.03068      1.99890     4.00968    0.02210     6.03068
      C   17   -0.01659      1.99893     3.99640    0.02127     6.01659
      C   18   -0.04676      1.99902     4.02998    0.01776     6.04676
      C   19   -0.18457      1.99912     4.17108    0.01437     6.18457
      H   20    0.22001      0.00000     0.77790    0.00209     0.77999
      C   21   -0.18767      1.99921     4.17346    0.01500     6.18767
      H   22    0.21900      0.00000     0.77968    0.00132     0.78100
      C   23   -0.18887      1.99920     4.17463    0.01504     6.18887
      H   24    0.22024      0.00000     0.77865    0.00111     0.77976
      C   25   -0.17421      1.99915     4.16074    0.01432     6.17421
      H   26    0.21460      0.00000     0.78380    0.00160     0.78540
      C   27   -0.05946      1.99908     4.04362    0.01676     6.05946
      C   28   -0.15633      1.99911     4.14294    0.01427     6.15633
      H   29    0.21794      0.00000     0.78045    0.00161     0.78206
      C   30   -0.21166      1.99910     4.19724    0.01532     6.21166
      H   31    0.20084      0.00000     0.79687    0.00229     0.79916
      C   32   -0.04820      1.99894     4.02541    0.02385     6.04820
      C   33   -0.78884      1.99922     4.76491    0.02471     6.78884
      H   34    0.25966      0.00000     0.73661    0.00373     0.74034
      C   35   -0.70517      1.99932     4.69092    0.01493     6.70517
      H   36    0.24124      0.00000     0.75668    0.00208     0.75876
      H   37    0.24444      0.00000     0.75258    0.00297     0.75556
      C   38   -0.25626      1.99942     4.23956    0.01729     6.25626
      C   39   -0.59875      1.99936     4.59130    0.00808     6.59875
      H   40    0.21913      0.00000     0.77898    0.00190     0.78087
      H   41    0.20765      0.00000     0.79069    0.00166     0.79235
      H   42    0.21326      0.00000     0.78501    0.00174     0.78674
      C   43   -0.60441      1.99936     4.59550    0.00956     6.60441
      H   44    0.20915      0.00000     0.78921    0.00164     0.79085
      H   45    0.20752      0.00000     0.79055    0.00193     0.79248
      H   46    0.22240      0.00000     0.77573    0.00187     0.77760
      C   47   -0.60410      1.99935     4.59654    0.00821     6.60410
      H   48    0.22457      0.00000     0.77356    0.00187     0.77543
      H   49    0.20464      0.00000     0.79385    0.00151     0.79536
      H   50    0.21177      0.00000     0.78686    0.00137     0.78823
      P   51    1.12488      9.99684     3.83050    0.04778    13.87512
      P   52    1.04266      9.99688     3.91484    0.04563    13.95734
     Rh   53   -0.31545     35.98598     9.30183    0.02763    45.31545
      C   54   -0.17641      1.99911     4.15780    0.01950     6.17641
      C   55   -0.17707      1.99910     4.15882    0.01915     6.17707
      C   56   -0.17790      1.99910     4.15944    0.01937     6.17790
      C   57   -0.17042      1.99910     4.15149    0.01983     6.17042
      H   58    0.21559      0.00000     0.78206    0.00235     0.78441
      C   59   -0.41421      1.99934     4.40223    0.01265     6.41421
      C   60   -0.42062      1.99935     4.40944    0.01183     6.42062
      H   61    0.21763      0.00000     0.78027    0.00209     0.78237
      H   62    0.22058      0.00000     0.77707    0.00235     0.77942
      C   63   -0.42342      1.99935     4.41223    0.01183     6.42342
      H   64    0.21929      0.00000     0.77834    0.00237     0.78071
      C   65   -0.41791      1.99934     4.40606    0.01251     6.41791
      H   66    0.23183      0.00000     0.76627    0.00190     0.76817
      H   67    0.21571      0.00000     0.78243    0.00186     0.78429
      H   68    0.22647      0.00000     0.77204    0.00148     0.77353
      H   69    0.21596      0.00000     0.78212    0.00192     0.78404
      H   70    0.21572      0.00000     0.78236    0.00192     0.78428
      H   71    0.22839      0.00000     0.77013    0.00147     0.77161
      H   72    0.23255      0.00000     0.76557    0.00188     0.76745
      H   73    0.21866      0.00000     0.77952    0.00182     0.78134
      C   74   -0.25087      1.99940     4.23318    0.01829     6.25087
      C   75   -0.24976      1.99940     4.23336    0.01700     6.24976
      C   76   -0.60187      1.99934     4.59404    0.00849     6.60187
      H   77    0.20618      0.00000     0.79226    0.00156     0.79382
      H   78    0.21931      0.00000     0.77882    0.00187     0.78069
      H   79    0.21549      0.00000     0.78292    0.00159     0.78451
      C   80   -0.60454      1.99935     4.59621    0.00898     6.60454
      H   81    0.22043      0.00000     0.77803    0.00155     0.77957
      H   82    0.19647      0.00000     0.80189    0.00164     0.80353
      H   83    0.22554      0.00000     0.77253    0.00192     0.77446
      C   84   -0.61062      1.99934     4.60199    0.00928     6.61062
      H   85    0.20989      0.00000     0.78835    0.00175     0.79011
      H   86    0.21958      0.00000     0.77858    0.00184     0.78042
      H   87    0.20837      0.00000     0.78992    0.00172     0.79163
      C   88   -0.60399      1.99935     4.59462    0.01002     6.60399
      H   89    0.22463      0.00000     0.77367    0.00170     0.77537
      H   90    0.20455      0.00000     0.79405    0.00140     0.79545
      H   91    0.20739      0.00000     0.79099    0.00162     0.79261
      C   92   -0.59975      1.99937     4.59009    0.01029     6.59975
      H   93    0.21884      0.00000     0.77865    0.00250     0.78116
      H   94    0.22458      0.00000     0.77302    0.00239     0.77542
      H   95    0.20376      0.00000     0.79404    0.00221     0.79624
      C   96   -0.61013      1.99935     4.59939    0.01139     6.61013
      H   97    0.22005      0.00000     0.77810    0.00185     0.77995
      H   98    0.21985      0.00000     0.77855    0.00161     0.78015
      H   99    0.20894      0.00000     0.78951    0.00155     0.79106
 =======================================================================
   * Total *    1.00000    139.94610   239.19655    0.85734   380.00000

 Normal termination of Gaussian 16 at Wed Jan 22 18:40:29 2025.
