 Gaussian 16, Revision B.01,
 Gaussian 16:  ES64L-G16RevB.01 20-Dec-2017

 ------------------------------------------
 # nmr=giao b3lyp/genecp pop=nbo scfcyc=200
 ------------------------------------------

 ---------
 MS-47_SPE
 ---------
 Symbolic Z-matrix:
 Charge =  1 Multiplicity = 1

                         Standard orientation:
 ---------------------------------------------------------------------
 Center     Atomic      Atomic             Coordinates (Angstroms)
 Number     Number       Type             X           Y           Z
 ---------------------------------------------------------------------
      1         15           0       -0.182428   -1.361000    0.253440
      2         15           0        0.578058    1.339421    0.280500
      3          6           0       -0.931611    0.296329    0.806230
      4          6           0       -1.531667   -2.392162   -0.466740
      5          6           0       -1.489575   -3.784841   -0.334940
      6          6           0       -2.427354   -4.580663   -0.984850
      7          6           0       -3.412695   -3.999454   -1.774890
      8          6           0       -3.453727   -2.616164   -1.919690
      9          6           0       -2.515228   -1.816873   -1.278320
     10          6           0        0.423913   -2.273149    1.725010
     11          6           0        1.801173   -2.433927    1.896380
     12          6           0        2.295064   -3.120477    3.001060
     13          6           0        1.416755   -3.650228    3.938970
     14          6           0        0.042554   -3.492129    3.774610
     15          6           0       -0.454387   -2.806630    2.675140
     16          6           0       -0.164064    2.899690   -0.363920
     17          6           0       -0.515994    2.977260   -1.714220
     18          6           0       -1.130976    4.120479   -2.215260
     19          6           0       -1.398467    5.193439   -1.371530
     20          6           0       -1.054667    5.120539   -0.024000
     21          6           0       -0.440685    3.980130    0.481300
     22          6           0        1.707807    1.872473    1.634150
     23          6           0        1.831868    1.218163    2.861690
     24          6           0        2.817528    1.615554    3.761140
     25          6           0        3.690186    2.649925    3.446340
     26          6           0        3.576465    3.298645    2.219910
     27          6           0        2.595746    2.911694    1.316270
     28          1           0       -1.625171    0.538558   -0.000280
     29          1           0       -0.732845   -4.253860    0.279340
     30          1           0       -2.386173   -5.656453   -0.869260
     31          1           0       -4.143244   -4.620505   -2.277610
     32          1           0       -4.217327   -2.155155   -2.533170
     33          1           0       -2.565189   -0.744853   -1.418910
     34          1           0        2.484162   -2.014876    1.168110
     35          1           0        3.363694   -3.241075    3.126390
     36          1           0        1.799885   -4.186377    4.798180
     37          1           0       -0.642275   -3.899130    4.507680
     38          1           0       -1.524197   -2.691052    2.561200
     39          1           0       -0.309163    2.142950   -2.373270
     40          1           0       -1.393346    4.174999   -3.264440
     41          1           0       -1.869708    6.086588   -1.762200
     42          1           0       -1.262058    5.953939    0.635390
     43          1           0       -0.171055    3.938040    1.528710
     44          1           0        1.142449    0.434972    3.136540
     45          1           0        2.893018    1.113174    4.717350
     46          1           0        4.451786    2.954826    4.153000
     47          1           0        4.248024    4.109426    1.966560
     48          1           0        2.516895    3.435284    0.371240
     49         45           0        1.420430   -0.350668   -1.132840
     50          6           0        2.525259    0.858824   -2.742830
     51          6           0        3.397519    0.569725   -1.716320
     52          6           0        2.461873   -2.187886   -2.007210
     53          6           0        1.398842   -1.841918   -2.815510
     54          6           0        2.457310    0.134964   -4.074870
     55          1           0        2.042857    1.829143   -2.712560
     56          1           0        3.551388    1.336345   -0.963800
     57          6           0        4.405370   -0.551934   -1.670610
     58          6           0        3.921942   -1.883114   -2.285750
     59          1           0        2.280374   -2.961267   -1.268680
     60          6           0        1.456261   -1.040218   -4.092550
     61          1           0        0.469993   -2.383959   -2.670230
     62          1           0        2.161929    0.851003   -4.843710
     63          1           0        3.452470   -0.209185   -4.355470
     64          1           0        5.331810   -0.230933   -2.163280
     65          1           0        4.669431   -0.715103   -0.623450
     66          1           0        4.100342   -1.892554   -3.360800
     67          1           0        4.529093   -2.691864   -1.875730
     68          1           0        0.452991   -0.653179   -4.284140
     69          1           0        1.682742   -1.707357   -4.933870
     70          6           0       -1.626131    0.412298    2.150770
     71          8           0       -1.020861    0.260179    3.199420
     72          7           0       -2.977971    0.638527    2.165670
     73          1           0       -3.354941    0.590416    3.104550
     74          6           0       -3.921541    0.838045    1.113050
     75          6           0       -5.015960   -0.023236    1.021200
     76          6           0       -3.808273    1.910745    0.228990
     77          6           0       -5.983430    0.182163    0.045400
     78          1           0       -5.104019   -0.851176    1.713890
     79          6           0       -4.766483    2.094084   -0.763610
     80          1           0       -2.992844    2.613747    0.334250
     81          6           0       -5.856362    1.234943   -0.856440
     82          1           0       -6.834280   -0.484768   -0.013120
     83          1           0       -4.672964    2.929814   -1.445420
     84          1           0       -6.610602    1.393412   -1.616660
 ---------------------------------------------------------------------

 SCF Done:  E(RB3LYP) =  -2471.48116393     A.U. after   16 cycles

      1  P    Isotropic =   285.1382   Anisotropy =    65.3628

      2  P    Isotropic =   278.4211   Anisotropy =   105.8314

      3  C    Isotropic =   113.9335   Anisotropy =    48.4451

      4  C    Isotropic =    45.8994   Anisotropy =   167.0865

      5  C    Isotropic =    47.1481   Anisotropy =   190.2547

      6  C    Isotropic =    48.9873   Anisotropy =   189.5251

      7  C    Isotropic =    46.8756   Anisotropy =   195.2741

      8  C    Isotropic =    49.2406   Anisotropy =   190.0533

      9  C    Isotropic =    49.8562   Anisotropy =   191.0230

     10  C    Isotropic =    51.4834   Anisotropy =   164.1251

     11  C    Isotropic =    39.8711   Anisotropy =   181.6144

     12  C    Isotropic =    49.8487   Anisotropy =   187.2480

     13  C    Isotropic =    43.8097   Anisotropy =   199.5451

     14  C    Isotropic =    49.2035   Anisotropy =   188.7123

     15  C    Isotropic =    41.9703   Anisotropy =   194.4593

     16  C    Isotropic =    42.4773   Anisotropy =   177.9729

     17  C    Isotropic =    43.3882   Anisotropy =   182.1064

     18  C    Isotropic =    48.7336   Anisotropy =   189.1701

     19  C    Isotropic =    44.7773   Anisotropy =   198.8024

     20  C    Isotropic =    47.9328   Anisotropy =   191.4005

     21  C    Isotropic =    44.7674   Anisotropy =   193.7707

     22  C    Isotropic =    48.1950   Anisotropy =   155.8907

     23  C    Isotropic =    43.0203   Anisotropy =   199.4959

     24  C    Isotropic =    49.1616   Anisotropy =   189.6478

     25  C    Isotropic =    46.5012   Anisotropy =   195.4143

     26  C    Isotropic =    49.9889   Anisotropy =   187.7695

     27  C    Isotropic =    48.5402   Anisotropy =   186.0807

     28  H    Isotropic =    26.2192   Anisotropy =     8.8237

     29  H    Isotropic =    24.9618   Anisotropy =    12.4853

     30  H    Isotropic =    24.4343   Anisotropy =     6.2554

     31  H    Isotropic =    24.2986   Anisotropy =     4.1019

     32  H    Isotropic =    24.7185   Anisotropy =     7.1137

     33  H    Isotropic =    25.3164   Anisotropy =     7.4746

     34  H    Isotropic =    23.2350   Anisotropy =     9.5172

     35  H    Isotropic =    24.0716   Anisotropy =     6.8378

     36  H    Isotropic =    23.8061   Anisotropy =     3.6291

     37  H    Isotropic =    24.0388   Anisotropy =     6.2293

     38  H    Isotropic =    24.3431   Anisotropy =    10.8066

     39  H    Isotropic =    23.4317   Anisotropy =     9.5525

     40  H    Isotropic =    23.8569   Anisotropy =     6.2120

     41  H    Isotropic =    23.7868   Anisotropy =     3.2735

     42  H    Isotropic =    24.0678   Anisotropy =     6.1451

     43  H    Isotropic =    24.2214   Anisotropy =    11.6045

     44  H    Isotropic =    23.1733   Anisotropy =     7.6587

     45  H    Isotropic =    24.4195   Anisotropy =     7.3708

     46  H    Isotropic =    24.1608   Anisotropy =     3.7004

     47  H    Isotropic =    24.3423   Anisotropy =     6.3668

     48  H    Isotropic =    24.9606   Anisotropy =    11.4794

     49  Rh   Isotropic =  -305.0202   Anisotropy =   332.0254

     50  C    Isotropic =    78.0047   Anisotropy =   122.2844

     51  C    Isotropic =    71.9416   Anisotropy =   124.1846

     52  C    Isotropic =    80.7696   Anisotropy =   119.2693

     53  C    Isotropic =    72.9983   Anisotropy =   122.9451

     54  C    Isotropic =   154.1086   Anisotropy =    24.7999

     55  H    Isotropic =    26.8033   Anisotropy =     5.7816

     56  H    Isotropic =    26.6664   Anisotropy =     4.0761

     57  C    Isotropic =   148.3280   Anisotropy =    28.4461

     58  C    Isotropic =   154.0428   Anisotropy =    25.0124

     59  H    Isotropic =    27.2489   Anisotropy =     6.1379

     60  C    Isotropic =   148.0247   Anisotropy =    29.3314

     61  H    Isotropic =    27.4493   Anisotropy =     4.4533

     62  H    Isotropic =    29.8313   Anisotropy =    11.4302

     63  H    Isotropic =    29.7936   Anisotropy =     9.8901

     64  H    Isotropic =    29.3012   Anisotropy =    12.7475

     65  H    Isotropic =    29.3731   Anisotropy =     7.1346

     66  H    Isotropic =    29.8825   Anisotropy =     9.9555

     67  H    Isotropic =    29.9223   Anisotropy =    11.5711

     68  H    Isotropic =    29.2796   Anisotropy =     7.0574

     69  H    Isotropic =    29.3585   Anisotropy =    12.4681

     70  C    Isotropic =    16.2179   Anisotropy =   103.8538

     71  O    Isotropic =  -116.2366   Anisotropy =   587.3596

     72  N    Isotropic =   104.8706   Anisotropy =   111.6904

     73  H    Isotropic =    25.4991   Anisotropy =     8.5304

     74  C    Isotropic =    40.4304   Anisotropy =   148.1827

     75  C    Isotropic =    52.7369   Anisotropy =   166.4926

     76  C    Isotropic =    53.6673   Anisotropy =   165.7306

     77  C    Isotropic =    48.0837   Anisotropy =   192.3840

     78  H    Isotropic =    25.1027   Anisotropy =     6.8072

     79  C    Isotropic =    49.0284   Anisotropy =   187.1369

     80  H    Isotropic =    26.3962   Anisotropy =     6.2958

     81  C    Isotropic =    50.4980   Anisotropy =   192.3167

     82  H    Isotropic =    24.3868   Anisotropy =     4.0760

     83  H    Isotropic =    24.7712   Anisotropy =     8.8564

     84  H    Isotropic =    24.3421   Anisotropy =     4.6263

 The electronic state is 1-A.
 Alpha  occ. eigenvalues --  -77.24318 -77.24229 -19.19325 -14.44815 -10.38520
 Alpha  occ. eigenvalues --  -10.31783 -10.31620 -10.29763 -10.29724 -10.29197
 Alpha  occ. eigenvalues --  -10.29089 -10.28956 -10.28899 -10.28732 -10.28673
 Alpha  occ. eigenvalues --  -10.28639 -10.28446 -10.28367 -10.28130 -10.28013
 Alpha  occ. eigenvalues --  -10.27956 -10.27956 -10.27917 -10.27840 -10.27580
 Alpha  occ. eigenvalues --  -10.27551 -10.27477 -10.27423 -10.27416 -10.27365
 Alpha  occ. eigenvalues --  -10.27276 -10.27276 -10.27224 -10.27190 -10.27142
 Alpha  occ. eigenvalues --  -10.27087 -10.27051 -10.27031 -10.26962 -10.26710
 Alpha  occ. eigenvalues --  -10.26701 -10.26627 -10.26561 -10.26329  -6.70195
 Alpha  occ. eigenvalues --   -6.70138  -4.86513  -4.86444  -4.86406  -4.86345
 Alpha  occ. eigenvalues --   -4.86087  -4.86040  -3.31444  -2.08345  -2.07697
 Alpha  occ. eigenvalues --   -2.04888  -1.14741  -1.03628  -0.96900  -0.96628
 Alpha  occ. eigenvalues --   -0.95856  -0.95405  -0.94780  -0.94296  -0.90061
 Alpha  occ. eigenvalues --   -0.89027  -0.87887  -0.87247  -0.85604  -0.85443
 Alpha  occ. eigenvalues --   -0.85133  -0.84929  -0.84701  -0.84626  -0.84517
 Alpha  occ. eigenvalues --   -0.84215  -0.83881  -0.80211  -0.77694  -0.75691
 Alpha  occ. eigenvalues --   -0.75639  -0.72275  -0.71447  -0.71192  -0.70947
 Alpha  occ. eigenvalues --   -0.70770  -0.70448  -0.70216  -0.70058  -0.69886
 Alpha  occ. eigenvalues --   -0.68911  -0.66874  -0.65695  -0.65290  -0.63689
 Alpha  occ. eigenvalues --   -0.62618  -0.62378  -0.61934  -0.60758  -0.60468
 Alpha  occ. eigenvalues --   -0.59840  -0.59454  -0.58566  -0.56949  -0.56421
 Alpha  occ. eigenvalues --   -0.56323  -0.56273  -0.56057  -0.55857  -0.55671
 Alpha  occ. eigenvalues --   -0.55352  -0.55100  -0.54825  -0.54305  -0.53894
 Alpha  occ. eigenvalues --   -0.53525  -0.53366  -0.52993  -0.52827  -0.52659
 Alpha  occ. eigenvalues --   -0.52520  -0.52390  -0.52356  -0.52176  -0.51836
 Alpha  occ. eigenvalues --   -0.51200  -0.50944  -0.49830  -0.48630  -0.48437
 Alpha  occ. eigenvalues --   -0.48151  -0.47711  -0.47416  -0.47229  -0.46905
 Alpha  occ. eigenvalues --   -0.46679  -0.46002  -0.45957  -0.45863  -0.45761
 Alpha  occ. eigenvalues --   -0.45327  -0.45022  -0.44758  -0.44682  -0.44159
 Alpha  occ. eigenvalues --   -0.43581  -0.43498  -0.43189  -0.43144  -0.42878
 Alpha  occ. eigenvalues --   -0.42778  -0.41295  -0.38737  -0.38005  -0.37631
 Alpha  occ. eigenvalues --   -0.37082  -0.36544  -0.36435  -0.36169  -0.36081
 Alpha  occ. eigenvalues --   -0.35727  -0.35340  -0.35078  -0.35028  -0.34737
 Alpha  occ. eigenvalues --   -0.34395  -0.33950  -0.33530  -0.33375  -0.30544
 Alpha virt. eigenvalues --   -0.16241  -0.14834  -0.14042  -0.13832  -0.12726
 Alpha virt. eigenvalues --   -0.12091  -0.11706  -0.11561  -0.11020  -0.10776
 Alpha virt. eigenvalues --   -0.10387  -0.09922  -0.09142  -0.08901  -0.07467

 Mulliken charges:
               1
     1  P    0.388844
     2  P    0.440186
     3  C   -0.545566
     4  C   -0.155507
     5  C   -0.052410
     6  C   -0.107448
     7  C   -0.088133
     8  C   -0.122852
     9  C   -0.063203
    10  C   -0.295740
    11  C   -0.038259
    12  C   -0.111322
    13  C   -0.093578
    14  C   -0.084094
    15  C   -0.005312
    16  C   -0.307351
    17  C   -0.043415
    18  C   -0.125726
    19  C   -0.088031
    20  C   -0.085761
    21  C   -0.059186
    22  C   -0.088511
    23  C   -0.056005
    24  C   -0.131813
    25  C   -0.093089
    26  C   -0.089896
    27  C   -0.166289
    28  H    0.205619
    29  H    0.165739
    30  H    0.135070
    31  H    0.137597
    32  H    0.129393
    33  H    0.134383
    34  H    0.170275
    35  H    0.129890
    36  H    0.136022
    37  H    0.133076
    38  H    0.146731
    39  H    0.179996
    40  H    0.131714
    41  H    0.140584
    42  H    0.139771
    43  H    0.165166
    44  H    0.201466
    45  H    0.130888
    46  H    0.133752
    47  H    0.131059
    48  H    0.168163
    49  Rh  -0.632831
    50  C   -0.049567
    51  C   -0.099543
    52  C   -0.041277
    53  C   -0.091339
    54  C   -0.342167
    55  H    0.198017
    56  H    0.203156
    57  C   -0.221123
    58  C   -0.354778
    59  H    0.195540
    60  C   -0.229524
    61  H    0.210703
    62  H    0.166652
    63  H    0.167227
    64  H    0.173050
    65  H    0.135706
    66  H    0.166800
    67  H    0.168575
    68  H    0.128296
    69  H    0.171253
    70  C    0.279246
    71  O   -0.356132
    72  N   -0.222800
    73  H    0.272564
    74  C    0.039002
    75  C   -0.125548
    76  C   -0.144586
    77  C   -0.132547
    78  H    0.137225
    79  C   -0.133240
    80  H    0.174614
    81  C   -0.083862
    82  H    0.131158
    83  H    0.130356
    84  H    0.134839
 Sum of Mulliken charges =   1.00000

 Dipole moment (field-independent basis, Debye):
    X=             -0.4902    Y=             -0.4206    Z=             -2.6799  Tot=              2.7567
 Quadrupole moment (field-independent basis, Debye-Ang):
   XX=           -225.1108   YY=           -234.3662   ZZ=           -252.2049
   XY=              1.7280   XZ=              6.4694   YZ=             -8.3249

 Summary of Natural Population Analysis:

                                       Natural Population
                Natural  -----------------------------------------------
    Atom  No    Charge         Core      Valence    Rydberg      Total
 -----------------------------------------------------------------------
      P    1    1.15223      9.99635     3.79917    0.05225    13.84777
      P    2    1.14036      9.99638     3.81089    0.05237    13.85964
      C    3   -0.84240      1.99924     4.81922    0.02394     6.84240
      C    4   -0.34903      1.99898     4.32635    0.02370     6.34903
      C    5   -0.19567      1.99910     4.18154    0.01504     6.19567
      C    6   -0.19062      1.99920     4.17670    0.01472     6.19062
      C    7   -0.18178      1.99920     4.16794    0.01464     6.18178
      C    8   -0.19028      1.99919     4.17637    0.01471     6.19028
      C    9   -0.19256      1.99909     4.17840    0.01508     6.19256
      C   10   -0.36132      1.99898     4.33753    0.02481     6.36132
      C   11   -0.17622      1.99909     4.16172    0.01541     6.17622
      C   12   -0.20152      1.99919     4.18778    0.01455     6.20152
      C   13   -0.16931      1.99921     4.15571    0.01440     6.16931
      C   14   -0.19338      1.99919     4.17970    0.01449     6.19338
      C   15   -0.16666      1.99909     4.15153    0.01605     6.16666
      C   16   -0.35066      1.99899     4.32769    0.02398     6.35066
      C   17   -0.19376      1.99909     4.17935    0.01532     6.19376
      C   18   -0.19851      1.99919     4.18455    0.01477     6.19851
      C   19   -0.17890      1.99920     4.16503    0.01467     6.17890
      C   20   -0.19263      1.99919     4.17883    0.01460     6.19263
      C   21   -0.19281      1.99909     4.17798    0.01574     6.19281
      C   22   -0.35043      1.99897     4.32749    0.02397     6.35043
      C   23   -0.18752      1.99909     4.17290    0.01553     6.18752
      C   24   -0.19034      1.99920     4.17684    0.01430     6.19034
      C   25   -0.18113      1.99920     4.16730    0.01463     6.18113
      C   26   -0.19777      1.99919     4.18379    0.01478     6.19777
      C   27   -0.20618      1.99909     4.19199    0.01510     6.20618
      H   28    0.27343      0.00000     0.72390    0.00267     0.72657
      H   29    0.22484      0.00000     0.77341    0.00175     0.77516
      H   30    0.22321      0.00000     0.77557    0.00122     0.77679
      H   31    0.22252      0.00000     0.77631    0.00117     0.77748
      H   32    0.22160      0.00000     0.77711    0.00130     0.77840
      H   33    0.21159      0.00000     0.78634    0.00207     0.78841
      H   34    0.22259      0.00000     0.77528    0.00213     0.77741
      H   35    0.22086      0.00000     0.77790    0.00125     0.77914
      H   36    0.22211      0.00000     0.77672    0.00117     0.77789
      H   37    0.22279      0.00000     0.77596    0.00124     0.77721
      H   38    0.21721      0.00000     0.78072    0.00207     0.78279
      H   39    0.22056      0.00000     0.77746    0.00198     0.77944
      H   40    0.22159      0.00000     0.77716    0.00124     0.77841
      H   41    0.22383      0.00000     0.77499    0.00118     0.77617
      H   42    0.22568      0.00000     0.77306    0.00125     0.77432
      H   43    0.22899      0.00000     0.76912    0.00189     0.77101
      H   44    0.25353      0.00000     0.74411    0.00235     0.74647
      H   45    0.22108      0.00000     0.77769    0.00122     0.77892
      H   46    0.22077      0.00000     0.77805    0.00118     0.77923
      H   47    0.22087      0.00000     0.77788    0.00125     0.77913
      H   48    0.21618      0.00000     0.78200    0.00181     0.78382
     Rh   49   -0.39995     35.98569     9.38520    0.02905    45.39995
      C   50   -0.17892      1.99907     4.16021    0.01964     6.17892
      C   51   -0.15577      1.99908     4.13690    0.01979     6.15577
      C   52   -0.18063      1.99907     4.16203    0.01953     6.18063
      C   53   -0.15501      1.99908     4.13627    0.01966     6.15501
      C   54   -0.42390      1.99936     4.41268    0.01185     6.42390
      H   55    0.22527      0.00000     0.77258    0.00215     0.77473
      H   56    0.23086      0.00000     0.76689    0.00225     0.76914
      C   57   -0.41921      1.99935     4.40727    0.01259     6.41921
      C   58   -0.42339      1.99936     4.41223    0.01179     6.42339
      H   59    0.22644      0.00000     0.77158    0.00198     0.77356
      C   60   -0.41762      1.99935     4.40567    0.01260     6.41762
      H   61    0.23193      0.00000     0.76606    0.00200     0.76807
      H   62    0.22703      0.00000     0.77146    0.00152     0.77297
      H   63    0.21530      0.00000     0.78271    0.00199     0.78470
      H   64    0.23456      0.00000     0.76354    0.00190     0.76544
      H   65    0.21751      0.00000     0.78093    0.00156     0.78249
      H   66    0.21472      0.00000     0.78330    0.00198     0.78528
      H   67    0.22830      0.00000     0.77022    0.00148     0.77170
      H   68    0.21542      0.00000     0.78303    0.00155     0.78458
      H   69    0.23375      0.00000     0.76435    0.00190     0.76625
      C   70    0.62493      1.99926     3.33587    0.03994     5.37507
      O   71   -0.58640      1.99976     6.57390    0.01274     8.58640
      N   72   -0.58025      1.99942     5.56351    0.01732     7.58025
      H   73    0.41327      0.00000     0.58413    0.00261     0.58673
      C   74    0.10482      1.99889     3.87746    0.01883     5.89518
      C   75   -0.20890      1.99909     4.19511    0.01470     6.20890
      C   76   -0.23150      1.99907     4.21640    0.01604     6.23150
      C   77   -0.18789      1.99921     4.17365    0.01503     6.18789
      H   78    0.21925      0.00000     0.77921    0.00154     0.78075
      C   79   -0.19331      1.99921     4.17859    0.01550     6.19331
      H   80    0.22301      0.00000     0.77425    0.00274     0.77699
      C   81   -0.20158      1.99920     4.18733    0.01505     6.20158
      H   82    0.22111      0.00000     0.77773    0.00116     0.77889
      H   83    0.21911      0.00000     0.77950    0.00139     0.78089
      H   84    0.22060      0.00000     0.77827    0.00113     0.77940
 =======================================================================
   * Total *    1.00000    139.94351   227.14506    0.91143   368.00000

 Normal termination of Gaussian 16 at Wed Jan 22 18:09:53 2025.
