 Gaussian 16, Revision B.01,
 Gaussian 16:  ES64L-G16RevB.01 20-Dec-2017

 ------------------------------------------
 # nmr=giao b3lyp/genecp pop=nbo scfcyc=200
 ------------------------------------------

 --------
 MS-4_SPE
 --------
 Symbolic Z-matrix:
 Charge =  1 Multiplicity = 1

                         Standard orientation:
 ---------------------------------------------------------------------
 Center     Atomic      Atomic             Coordinates (Angstroms)
 Number     Number       Type             X           Y           Z
 ---------------------------------------------------------------------
      1         15           0        0.372341    1.392690   -0.051651
      2         15           0        0.469340   -1.413670   -0.184541
      3          6           0        1.616740    0.016730    0.383359
      4          1           0        1.499460   -0.066890    1.464789
      5          6           0        0.630261    2.778830    1.199509
      6          1           0        1.653291    3.129800    1.040219
      7          6           0        0.495321    2.287590    2.644559
      8          1           0        0.624601    3.129470    3.328359
      9          1           0        1.245641    1.542420    2.909849
     10          1           0       -0.488459    1.854590    2.834529
     11          6           0       -0.333038    3.944880    0.932009
     12          1           0       -1.370489    3.658381    1.110499
     13          1           0       -0.259448    4.331300   -0.083441
     14          1           0       -0.102158    4.768590    1.611089
     15          6           0        0.902291    2.054220   -1.746011
     16          1           0        1.386811    1.182620   -2.190711
     17          6           0       -0.300039    2.442750   -2.614391
     18          1           0       -0.831339    3.312150   -2.221261
     19          1           0       -1.012359    1.622921   -2.710931
     20          1           0        0.049891    2.705260   -3.615321
     21          6           0        1.950151    3.172640   -1.700271
     22          1           0        2.298641    3.364080   -2.717731
     23          1           0        2.823511    2.900309   -1.111331
     24          1           0        1.540932    4.108390   -1.317601
     25          6           0        0.700950   -2.818120    1.056279
     26          1           0       -0.053051   -3.543430    0.735399
     27          6           0        0.334320   -2.365460    2.475739
     28          1           0        0.250839   -3.238220    3.126629
     29          1           0       -0.611080   -1.824240    2.508629
     30          1           0        1.103980   -1.722280    2.907969
     31          6           0        2.071649   -3.505610    1.031419
     32          1           0        2.888500   -2.798681    1.188279
     33          1           0        2.258819   -4.028020    0.095949
     34          1           0        2.119099   -4.246170    1.833589
     35          6           0        0.836680   -2.090210   -1.917241
     36          1           0        0.454990   -1.286350   -2.552901
     37          6           0       -0.042581   -3.331050   -2.146831
     38          1           0       -0.030431   -3.583060   -3.208941
     39          1           0       -1.082901   -3.182979   -1.858041
     40          1           0        0.339999   -4.198080   -1.605611
     41          6           0        2.284960   -2.373710   -2.329331
     42          1           0        2.739289   -3.164481   -1.733751
     43          1           0        2.908210   -1.487011   -2.267311
     44          1           0        2.280500   -2.715840   -3.367841
     45         45           0       -1.490850   -0.067719   -0.025681
     46          6           0       -3.128319    1.189351    0.940289
     47          6           0       -3.123289    1.455451   -0.412621
     48          6           0       -3.191780   -1.433529   -0.702761
     49          6           0       -2.927540   -1.693119    0.625109
     50          1           0       -2.568319    1.865721    1.574749
     51          6           0       -4.133840    0.314881    1.666679
     52          1           0       -2.594209    2.342701   -0.740441
     53          6           0       -4.042659    0.862481   -1.449551
     54          6           0       -4.364640   -0.630228   -1.231141
     55          1           0       -2.707600   -2.068579   -1.434531
     56          1           0       -2.298200   -2.548049    0.846219
     57          6           0       -3.690790   -1.156209    1.810409
     58          1           0       -5.098260    0.373312    1.162789
     59          1           0       -4.293069    0.727752    2.664219
     60          1           0       -4.974139    1.440382   -1.494371
     61          1           0       -3.569739    0.987881   -2.426031
     62          1           0       -4.675500   -1.061038   -2.184331
     63          1           0       -5.216460   -0.741968   -0.560881
     64          1           0       -4.565340   -1.789158    2.005949
     65          1           0       -3.053510   -1.252789    2.692149
     66          6           0        3.060530    0.155139    0.060049
     67          6           0        4.911640    0.459139   -0.999611
     68          6           0        5.250030    0.324889    0.317939
     69          1           0        5.562911    0.619269   -1.842791
     70          1           0        6.199460    0.347378    0.824719
     71          7           0        3.556070    0.353299   -1.147181
     72          7           0        4.069940    0.127759    0.999329
     73          6           0        3.970860   -0.002661    2.446999
     74          1           0        4.958420   -0.225491    2.844149
     75          1           0        3.614241    0.920709    2.906159
     76          1           0        3.307760   -0.822321    2.719079
 ---------------------------------------------------------------------

 SCF Done:  E(RB3LYP) =  -1883.44668690     A.U. after   16 cycles

      1  P    Isotropic =   258.1713   Anisotropy =    72.8942

      2  P    Isotropic =   256.0461   Anisotropy =    58.5894

      3  C    Isotropic =   134.7871   Anisotropy =    54.4336

      4  H    Isotropic =    27.2687   Anisotropy =     4.4215

      5  C    Isotropic =   150.0877   Anisotropy =    19.4513

      6  H    Isotropic =    29.7629   Anisotropy =     4.7299

      7  C    Isotropic =   164.6094   Anisotropy =    29.5587

      8  H    Isotropic =    30.5560   Anisotropy =    11.7598

      9  H    Isotropic =    30.6749   Anisotropy =     8.1682

     10  H    Isotropic =    30.7011   Anisotropy =     5.4695

     11  C    Isotropic =   165.1942   Anisotropy =    32.2309

     12  H    Isotropic =    31.3746   Anisotropy =     5.4684

     13  H    Isotropic =    30.7577   Anisotropy =     7.3485

     14  H    Isotropic =    30.6478   Anisotropy =    12.5793

     15  C    Isotropic =   146.6735   Anisotropy =    26.1810

     16  H    Isotropic =    28.0577   Anisotropy =     6.1150

     17  C    Isotropic =   159.2986   Anisotropy =    31.0098

     18  H    Isotropic =    30.5857   Anisotropy =     6.0346

     19  H    Isotropic =    29.7782   Anisotropy =     7.0325

     20  H    Isotropic =    30.2492   Anisotropy =    11.3439

     21  C    Isotropic =   164.2131   Anisotropy =    29.0256

     22  H    Isotropic =    30.5024   Anisotropy =    11.8087

     23  H    Isotropic =    31.0015   Anisotropy =     6.8963

     24  H    Isotropic =    30.9817   Anisotropy =     7.4894

     25  C    Isotropic =   147.6077   Anisotropy =    23.0843

     26  H    Isotropic =    29.5600   Anisotropy =     4.4615

     27  C    Isotropic =   162.3107   Anisotropy =    32.8903

     28  H    Isotropic =    30.2680   Anisotropy =    11.3529

     29  H    Isotropic =    29.9374   Anisotropy =     8.6519

     30  H    Isotropic =    30.6104   Anisotropy =     5.3673

     31  C    Isotropic =   163.6798   Anisotropy =    29.8050

     32  H    Isotropic =    31.2811   Anisotropy =     6.2138

     33  H    Isotropic =    30.4724   Anisotropy =     8.1070

     34  H    Isotropic =    30.6410   Anisotropy =    11.9629

     35  C    Isotropic =   141.7605   Anisotropy =    32.1988

     36  H    Isotropic =    29.0831   Anisotropy =     4.0366

     37  C    Isotropic =   164.6154   Anisotropy =    30.5709

     38  H    Isotropic =    30.4535   Anisotropy =    11.4928

     39  H    Isotropic =    31.0054   Anisotropy =     7.2597

     40  H    Isotropic =    30.9579   Anisotropy =     7.3522

     41  C    Isotropic =   163.7130   Anisotropy =    29.5758

     42  H    Isotropic =    31.1108   Anisotropy =     5.8703

     43  H    Isotropic =    28.7276   Anisotropy =    12.0534

     44  H    Isotropic =    30.8545   Anisotropy =    11.6052

     45  Rh   Isotropic =  -300.5618   Anisotropy =   334.4909

     46  C    Isotropic =    79.6827   Anisotropy =   122.0684

     47  C    Isotropic =    82.0522   Anisotropy =   112.8131

     48  C    Isotropic =    76.7224   Anisotropy =   124.8127

     49  C    Isotropic =    80.5362   Anisotropy =   112.8642

     50  H    Isotropic =    26.6141   Anisotropy =     6.1558

     51  C    Isotropic =   153.9248   Anisotropy =    26.0928

     52  H    Isotropic =    26.5009   Anisotropy =     3.8540

     53  C    Isotropic =   148.1382   Anisotropy =    29.6637

     54  C    Isotropic =   153.8996   Anisotropy =    25.9154

     55  H    Isotropic =    26.7429   Anisotropy =     6.9210

     56  H    Isotropic =    26.8054   Anisotropy =     3.7399

     57  C    Isotropic =   147.8174   Anisotropy =    28.9809

     58  H    Isotropic =    29.6967   Anisotropy =     9.6748

     59  H    Isotropic =    29.8048   Anisotropy =    11.4431

     60  H    Isotropic =    29.1230   Anisotropy =    12.7289

     61  H    Isotropic =    29.1747   Anisotropy =     7.4175

     62  H    Isotropic =    29.7881   Anisotropy =    11.7950

     63  H    Isotropic =    29.7323   Anisotropy =     9.6452

     64  H    Isotropic =    29.0984   Anisotropy =    12.6962

     65  H    Isotropic =    29.1781   Anisotropy =     7.1265

     66  C    Isotropic =    38.4622   Anisotropy =    93.8785

     67  C    Isotropic =    49.7629   Anisotropy =   124.7578

     68  C    Isotropic =    56.8003   Anisotropy =    96.3101

     69  H    Isotropic =    24.7199   Anisotropy =     3.6091

     70  H    Isotropic =    25.0928   Anisotropy =     4.6238

     71  N    Isotropic =   -53.0001   Anisotropy =   412.4788

     72  N    Isotropic =    75.1239   Anisotropy =   125.5148

     73  C    Isotropic =   150.3664   Anisotropy =    49.3439

     74  H    Isotropic =    28.1800   Anisotropy =    10.2660

     75  H    Isotropic =    28.4613   Anisotropy =     7.3927

     76  H    Isotropic =    28.2828   Anisotropy =     4.9647

 The electronic state is 1-A.
 Alpha  occ. eigenvalues --  -77.23377 -77.23020 -14.48310 -14.39685 -10.33778
 Alpha  occ. eigenvalues --  -10.32553 -10.32283 -10.30648 -10.30379 -10.30136
 Alpha  occ. eigenvalues --  -10.29703 -10.29370 -10.29259 -10.29212 -10.29136
 Alpha  occ. eigenvalues --  -10.29013 -10.28078 -10.27811 -10.27656 -10.27611
 Alpha  occ. eigenvalues --  -10.27592 -10.27544 -10.27427 -10.27233 -10.27226
 Alpha  occ. eigenvalues --  -10.27029 -10.26302 -10.25762 -10.25079  -6.69329
 Alpha  occ. eigenvalues --   -6.69017  -4.85646  -4.85503  -4.85325  -4.85231
 Alpha  occ. eigenvalues --   -4.85179  -4.84932  -3.31439  -2.08325  -2.07662
 Alpha  occ. eigenvalues --   -2.04878  -1.12679  -0.99422  -0.94725  -0.93088
 Alpha  occ. eigenvalues --   -0.91755  -0.89519  -0.89379  -0.89298  -0.88748
 Alpha  occ. eigenvalues --   -0.88232  -0.84061  -0.81591  -0.80588  -0.80024
 Alpha  occ. eigenvalues --   -0.79941  -0.78747  -0.78682  -0.78016  -0.75662
 Alpha  occ. eigenvalues --   -0.74114  -0.70802  -0.70662  -0.69897  -0.69403
 Alpha  occ. eigenvalues --   -0.67684  -0.66171  -0.64747  -0.64289  -0.62850
 Alpha  occ. eigenvalues --   -0.61511  -0.60384  -0.59009  -0.58096  -0.57748
 Alpha  occ. eigenvalues --   -0.57442  -0.57265  -0.56656  -0.56166  -0.55659
 Alpha  occ. eigenvalues --   -0.54954  -0.54852  -0.54316  -0.53850  -0.53522
 Alpha  occ. eigenvalues --   -0.52968  -0.52736  -0.52655  -0.52233  -0.51781
 Alpha  occ. eigenvalues --   -0.51639  -0.51315  -0.50884  -0.50753  -0.50328
 Alpha  occ. eigenvalues --   -0.49858  -0.49611  -0.48751  -0.48530  -0.48344
 Alpha  occ. eigenvalues --   -0.48075  -0.47821  -0.46842  -0.46602  -0.46432
 Alpha  occ. eigenvalues --   -0.46202  -0.46018  -0.45713  -0.45595  -0.45038
 Alpha  occ. eigenvalues --   -0.44916  -0.44459  -0.43571  -0.43319  -0.42982
 Alpha  occ. eigenvalues --   -0.42209  -0.41245  -0.41100  -0.40649  -0.37910
 Alpha  occ. eigenvalues --   -0.37473  -0.36593  -0.36499  -0.35058  -0.34482
 Alpha  occ. eigenvalues --   -0.33631  -0.32669  -0.30701
 Alpha virt. eigenvalues --   -0.16146  -0.13805  -0.11103  -0.09579  -0.09180
 Alpha virt. eigenvalues --   -0.08467  -0.07587  -0.06897  -0.06828  -0.06341
 Alpha virt. eigenvalues --   -0.05760  -0.04971  -0.04820  -0.04597  -0.04342

 Mulliken charges:
               1
     1  P    0.450711
     2  P    0.407546
     3  C   -0.681929
     4  H    0.179397
     5  C   -0.132333
     6  H    0.179988
     7  C   -0.410873
     8  H    0.163496
     9  H    0.118929
    10  H    0.136267
    11  C   -0.419823
    12  H    0.146920
    13  H    0.144047
    14  H    0.158946
    15  C   -0.172494
    16  H    0.179665
    17  C   -0.411861
    18  H    0.128434
    19  H    0.144847
    20  H    0.157307
    21  C   -0.368077
    22  H    0.147466
    23  H    0.160846
    24  H    0.126223
    25  C   -0.196599
    26  H    0.182369
    27  C   -0.431614
    28  H    0.165900
    29  H    0.146662
    30  H    0.125208
    31  C   -0.381340
    32  H    0.131610
    33  H    0.147044
    34  H    0.151790
    35  C   -0.124890
    36  H    0.161891
    37  C   -0.431108
    38  H    0.160411
    39  H    0.134018
    40  H    0.151460
    41  C   -0.382320
    42  H    0.124265
    43  H    0.196304
    44  H    0.140898
    45  Rh  -0.542010
    46  C   -0.031233
    47  C   -0.080970
    48  C   -0.037005
    49  C   -0.096833
    50  H    0.159095
    51  C   -0.343395
    52  H    0.196428
    53  C   -0.240364
    54  C   -0.340232
    55  H    0.177082
    56  H    0.188980
    57  C   -0.235890
    58  H    0.171650
    59  H    0.168390
    60  H    0.171342
    61  H    0.136047
    62  H    0.169942
    63  H    0.167820
    64  H    0.172028
    65  H    0.129729
    66  C    0.140618
    67  C   -0.098599
    68  C   -0.077095
    69  H    0.136990
    70  H    0.157233
    71  N   -0.174438
    72  N   -0.036595
    73  C   -0.290434
    74  H    0.166172
    75  H    0.170686
    76  H    0.139258
 Sum of Mulliken charges =   1.00000

 Dipole moment (field-independent basis, Debye):
    X=              0.7897    Y=             -0.3996    Z=              2.8195  Tot=              2.9551
 Quadrupole moment (field-independent basis, Debye-Ang):
   XX=           -165.0643   YY=           -186.7155   ZZ=           -192.3627
   XY=              0.2726   XZ=             11.4316   YZ=              0.7135

 Summary of Natural Population Analysis:

                                       Natural Population
                Natural  -----------------------------------------------
    Atom  No    Charge         Core      Valence    Rydberg      Total
 -----------------------------------------------------------------------
      P    1    1.11109      9.99678     3.84544    0.04669    13.88891
      P    2    1.09232      9.99677     3.86304    0.04787    13.90768
      C    3   -0.79601      1.99923     4.77262    0.02416     6.79601
      H    4    0.25940      0.00000     0.73694    0.00366     0.74060
      C    5   -0.47916      1.99940     4.46461    0.01515     6.47916
      H    6    0.22576      0.00000     0.77166    0.00258     0.77424
      C    7   -0.59058      1.99941     4.58379    0.00738     6.59058
      H    8    0.22547      0.00000     0.77300    0.00152     0.77453
      H    9    0.19628      0.00000     0.80211    0.00161     0.80372
      H   10    0.21142      0.00000     0.78706    0.00152     0.78858
      C   11   -0.59509      1.99941     4.58805    0.00764     6.59509
      H   12    0.20481      0.00000     0.79359    0.00160     0.79519
      H   13    0.21105      0.00000     0.78709    0.00186     0.78895
      H   14    0.22545      0.00000     0.77306    0.00149     0.77455
      C   15   -0.47177      1.99938     4.45612    0.01627     6.47177
      H   16    0.24838      0.00000     0.74929    0.00232     0.75162
      C   17   -0.58935      1.99941     4.58282    0.00712     6.58935
      H   18    0.19956      0.00000     0.79877    0.00167     0.80044
      H   19    0.21393      0.00000     0.78443    0.00165     0.78607
      H   20    0.22233      0.00000     0.77611    0.00156     0.77767
      C   21   -0.59915      1.99940     4.59100    0.00875     6.59915
      H   22    0.22582      0.00000     0.77269    0.00149     0.77418
      H   23    0.21936      0.00000     0.77887    0.00177     0.78064
      H   24    0.19884      0.00000     0.79954    0.00162     0.80116
      C   25   -0.47378      1.99939     4.45990    0.01448     6.47378
      H   26    0.22591      0.00000     0.77218    0.00192     0.77409
      C   27   -0.59151      1.99941     4.58458    0.00753     6.59151
      H   28    0.22570      0.00000     0.77282    0.00149     0.77430
      H   29    0.21941      0.00000     0.77876    0.00182     0.78059
      H   30    0.19199      0.00000     0.80627    0.00174     0.80801
      C   31   -0.59723      1.99941     4.58870    0.00912     6.59723
      H   32    0.20027      0.00000     0.79794    0.00180     0.79973
      H   33    0.21433      0.00000     0.78393    0.00174     0.78567
      H   34    0.22156      0.00000     0.77684    0.00160     0.77844
      C   35   -0.45630      1.99938     4.44192    0.01500     6.45630
      H   36    0.22591      0.00000     0.77213    0.00195     0.77409
      C   37   -0.59426      1.99941     4.58716    0.00770     6.59426
      H   38    0.22848      0.00000     0.77003    0.00149     0.77152
      H   39    0.20263      0.00000     0.79577    0.00160     0.79737
      H   40    0.20583      0.00000     0.79258    0.00159     0.79417
      C   41   -0.61127      1.99939     4.60380    0.00807     6.61127
      H   42    0.19914      0.00000     0.79918    0.00168     0.80086
      H   43    0.24689      0.00000     0.75117    0.00194     0.75311
      H   44    0.21620      0.00000     0.78232    0.00148     0.78380
     Rh   45   -0.37834     35.98631     9.36203    0.03000    45.37834
      C   46   -0.17062      1.99908     4.15184    0.01969     6.17062
      C   47   -0.17561      1.99909     4.15662    0.01990     6.17561
      C   48   -0.17205      1.99908     4.15332    0.01965     6.17205
      C   49   -0.17334      1.99909     4.15411    0.02014     6.17334
      H   50    0.21804      0.00000     0.77955    0.00242     0.78196
      C   51   -0.42409      1.99935     4.41259    0.01215     6.42409
      H   52    0.22435      0.00000     0.77344    0.00221     0.77565
      C   53   -0.41731      1.99935     4.40510    0.01286     6.41731
      C   54   -0.42327      1.99935     4.41198    0.01194     6.42327
      H   55    0.21953      0.00000     0.77819    0.00228     0.78047
      H   56    0.21873      0.00000     0.77913    0.00214     0.78127
      C   57   -0.41644      1.99935     4.40426    0.01283     6.41644
      H   58    0.21634      0.00000     0.78169    0.00197     0.78366
      H   59    0.22785      0.00000     0.77066    0.00150     0.77215
      H   60    0.23329      0.00000     0.76478    0.00193     0.76671
      H   61    0.21657      0.00000     0.78166    0.00178     0.78343
      H   62    0.22924      0.00000     0.76929    0.00148     0.77076
      H   63    0.21533      0.00000     0.78271    0.00196     0.78467
      H   64    0.23298      0.00000     0.76509    0.00193     0.76702
      H   65    0.21304      0.00000     0.78510    0.00186     0.78696
      C   66    0.28526      1.99918     3.68448    0.03108     5.71474
      C   67   -0.08085      1.99920     4.06067    0.02098     6.08085
      C   68   -0.08453      1.99912     4.06727    0.01814     6.08453
      H   69    0.21832      0.00000     0.78024    0.00144     0.78168
      H   70    0.22435      0.00000     0.77421    0.00144     0.77565
      N   71   -0.46836      1.99939     5.45001    0.01896     7.46836
      N   72   -0.31772      1.99940     5.30150    0.01683     7.31772
      C   73   -0.39895      1.99933     4.38996    0.00966     6.39895
      H   74    0.22832      0.00000     0.77038    0.00130     0.77168
      H   75    0.20597      0.00000     0.79228    0.00175     0.79403
      H   76    0.20395      0.00000     0.79407    0.00198     0.79605
 =======================================================================
   * Total *    1.00000    109.96125   173.43788    0.60087   284.00000

 Normal termination of Gaussian 16 at Wed Jan 22 02:18:44 2025.
