 Gaussian 16, Revision B.01,
 Gaussian 16:  ES64L-G16RevB.01 20-Dec-2017

 ------------------------------------------
 # nmr=giao b3lyp/genecp pop=nbo scfcyc=200
 ------------------------------------------

 ---------
 MS-56_SPE
 ---------
 Symbolic Z-matrix:
 Charge =  1 Multiplicity = 1

                         Standard orientation:
 ---------------------------------------------------------------------
 Center     Atomic      Atomic             Coordinates (Angstroms)
 Number     Number       Type             X           Y           Z
 ---------------------------------------------------------------------
      1         15           0        0.393970   -1.325739    0.079689
      2         15           0        0.835369    1.436391    0.017829
      3          6           0        0.271450   -2.058020    1.767399
      4          6           0        1.313380   -1.874799    2.680629
      5          1           0        2.192320   -1.315589    2.383489
      6          6           0        1.228190   -2.410689    3.962139
      7          1           0        2.043740   -2.268699    4.660189
      8          6           0        0.103930   -3.136520    4.340369
      9          1           0        0.041261   -3.560880    5.334569
     10          6           0       -0.936329   -3.328610    3.434539
     11          1           0       -1.807509   -3.903750    3.722529
     12          6           0       -0.855200   -2.794620    2.153789
     13          1           0       -1.657830   -2.973150    1.448999
     14          6           0       -0.351030   -2.599510   -1.023201
     15          6           0        0.208641   -3.884500   -0.985861
     16          1           0        0.989121   -4.123169   -0.272761
     17          6           0       -0.247199   -4.873890   -1.846631
     18          1           0        0.187981   -5.864550   -1.804361
     19          6           0       -1.261449   -4.591890   -2.758621
     20          1           0       -1.617599   -5.363730   -3.429251
     21          6           0       -1.818869   -3.319950   -2.799181
     22          1           0       -2.615960   -3.096381   -3.497021
     23          6           0       -1.366500   -2.320520   -1.940281
     24          1           0       -1.837710   -1.347470   -1.978061
     25          6           0       -0.640561    0.255450    0.044629
     26          1           0       -0.979931    0.323330   -0.995121
     27          6           0       -1.866641    0.484920    0.927079
     28          1           0       -1.888421   -0.213290    1.765399
     29          1           0       -1.825101    1.480520    1.377089
     30          6           0        1.029119    2.303501    1.631499
     31          6           0        0.635699    1.720791    2.839889
     32          1           0        0.131189    0.764840    2.853379
     33          6           0        0.898319    2.358221    4.048189
     34          1           0        0.580559    1.897681    4.975329
     35          6           0        1.565798    3.577871    4.067579
     36          1           0        1.767998    4.072791    5.008959
     37          6           0        1.974528    4.158191    2.870909
     38          1           0        2.497518    5.106301    2.876659
     39          6           0        1.711988    3.526461    1.661049
     40          1           0        2.031398    3.997331    0.739899
     41          6           0        0.364528    2.738501   -1.197041
     42          6           0       -0.430242    3.833600   -0.841131
     43          1           0       -0.724222    3.987080    0.189089
     44          6           0       -0.839622    4.742630   -1.809411
     45          1           0       -1.452243    5.589060   -1.525191
     46          6           0       -0.465442    4.567180   -3.138571
     47          1           0       -0.785433    5.278290   -3.889661
     48          6           0        0.318748    3.477451   -3.500241
     49          1           0        0.610038    3.336041   -4.533421
     50          6           0        0.733268    2.566721   -2.534331
     51          1           0        1.338089    1.715021   -2.820391
     52         45           0        2.407799   -0.236409   -0.481341
     53          6           0        3.903240   -1.967208   -0.400391
     54          6           0        3.387770   -1.873928   -1.675781
     55          6           0        4.076859    0.966232   -1.494091
     56          6           0        4.311889    0.918662   -0.136681
     57          6           0        5.264470   -1.463748    0.042039
     58          1           0        3.430730   -2.678318    0.268649
     59          1           0        2.563280   -2.532609   -1.928201
     60          6           0        4.028310   -1.199818   -2.864071
     61          6           0        4.770209    0.115502   -2.541971
     62          1           0        3.568019    1.846702   -1.869641
     63          6           0        5.243499   -0.020138    0.589659
     64          1           0        3.992739    1.772602    0.452349
     65          1           0        5.640670   -2.123698    0.825579
     66          1           0        5.971900   -1.546818   -0.782671
     67          1           0        4.713940   -1.900558   -3.357051
     68          1           0        3.239480   -0.997078   -3.591701
     69          1           0        5.793079   -0.091508   -2.228101
     70          1           0        4.852619    0.697762   -3.461291
     71          1           0        4.940369   -0.039418    1.638869
     72          1           0        6.259869    0.393503    0.582079
     73          7           0       -4.334801    0.442189    0.837549
     74          6           0       -4.359931    0.538499    2.302079
     75          1           0       -4.115991   -0.411081    2.786499
     76          1           0       -3.669361    1.302629    2.658049
     77          1           0       -5.361561    0.830389    2.605609
     78          6           0       -3.175011    0.389739    0.119999
     79          8           0       -3.150221    0.288319   -1.098881
     80          6           0       -5.600901    0.319288    0.159089
     81          6           0       -5.982221    1.254848   -0.798541
     82          6           0       -6.458140   -0.725962    0.493879
     83          6           0       -7.220251    1.140278   -1.419151
     84          1           0       -5.309481    2.059569   -1.061231
     85          6           0       -7.700410   -0.829882   -0.123481
     86          1           0       -6.156200   -1.460002    1.230979
     87          6           0       -8.083281    0.101688   -1.082081
     88          1           0       -7.513341    1.868698   -2.164751
     89          1           0       -8.364360   -1.643063    0.141629
     90          1           0       -9.048951    0.019287   -1.564461
 ---------------------------------------------------------------------

 SCF Done:  E(RB3LYP) =  -2550.13013235     A.U. after   16 cycles

      1  P    Isotropic =   287.5326   Anisotropy =    65.9436

      2  P    Isotropic =   285.5595   Anisotropy =    98.9772

      3  C    Isotropic =    45.4609   Anisotropy =   173.5286

      4  C    Isotropic =    39.8607   Anisotropy =   182.8713

      5  H    Isotropic =    23.0848   Anisotropy =     9.2539

      6  C    Isotropic =    49.3245   Anisotropy =   187.6709

      7  H    Isotropic =    23.9927   Anisotropy =     6.8076

      8  C    Isotropic =    45.1409   Anisotropy =   198.1069

      9  H    Isotropic =    23.8710   Anisotropy =     3.6390

     10  C    Isotropic =    49.0253   Anisotropy =   188.4924

     11  H    Isotropic =    24.1313   Anisotropy =     6.3477

     12  C    Isotropic =    43.2877   Anisotropy =   192.8326

     13  H    Isotropic =    24.7033   Anisotropy =    10.9927

     14  C    Isotropic =    45.8938   Anisotropy =   165.7290

     15  C    Isotropic =    48.4991   Anisotropy =   185.3803

     16  H    Isotropic =    25.1005   Anisotropy =    11.3971

     17  C    Isotropic =    49.1377   Anisotropy =   189.2669

     18  H    Isotropic =    24.3803   Anisotropy =     6.4961

     19  C    Isotropic =    46.7694   Anisotropy =   195.3913

     20  H    Isotropic =    24.2173   Anisotropy =     3.5249

     21  C    Isotropic =    48.4888   Anisotropy =   191.6318

     22  H    Isotropic =    24.2952   Anisotropy =     6.9000

     23  C    Isotropic =    46.2434   Anisotropy =   199.0342

     24  H    Isotropic =    23.1693   Anisotropy =     8.9029

     25  C    Isotropic =   120.5808   Anisotropy =    55.3757

     26  H    Isotropic =    25.8235   Anisotropy =     6.5078

     27  C    Isotropic =   147.6162   Anisotropy =    37.7775

     28  H    Isotropic =    29.2489   Anisotropy =     7.0990

     29  H    Isotropic =    29.3342   Anisotropy =     6.2625

     30  C    Isotropic =    46.8348   Anisotropy =   167.1582

     31  C    Isotropic =    47.6511   Anisotropy =   186.6878

     32  H    Isotropic =    24.8971   Anisotropy =     7.3095

     33  C    Isotropic =    50.0169   Anisotropy =   188.3295

     34  H    Isotropic =    24.4010   Anisotropy =     7.7667

     35  C    Isotropic =    46.9149   Anisotropy =   195.3958

     36  H    Isotropic =    24.0925   Anisotropy =     3.8958

     37  C    Isotropic =    48.2002   Anisotropy =   191.1819

     38  H    Isotropic =    24.1848   Anisotropy =     5.9948

     39  C    Isotropic =    46.5089   Anisotropy =   190.8312

     40  H    Isotropic =    24.6202   Anisotropy =    11.4519

     41  C    Isotropic =    44.1476   Anisotropy =   175.6249

     42  C    Isotropic =    47.3630   Anisotropy =   188.2711

     43  H    Isotropic =    24.5369   Anisotropy =    11.9290

     44  C    Isotropic =    48.9164   Anisotropy =   189.2220

     45  H    Isotropic =    24.2264   Anisotropy =     6.4865

     46  C    Isotropic =    44.8770   Anisotropy =   198.2675

     47  H    Isotropic =    23.9184   Anisotropy =     3.4435

     48  C    Isotropic =    48.3413   Anisotropy =   189.3769

     49  H    Isotropic =    23.9550   Anisotropy =     6.9477

     50  C    Isotropic =    43.5999   Anisotropy =   180.1985

     51  H    Isotropic =    23.4282   Anisotropy =    10.2706

     52  Rh   Isotropic =  -301.4359   Anisotropy =   335.3775

     53  C    Isotropic =    80.4318   Anisotropy =   120.1213

     54  C    Isotropic =    71.1487   Anisotropy =   125.7019

     55  C    Isotropic =    78.6608   Anisotropy =   121.5862

     56  C    Isotropic =    73.7419   Anisotropy =   121.1832

     57  C    Isotropic =   153.9137   Anisotropy =    25.0159

     58  H    Isotropic =    26.8882   Anisotropy =     5.9220

     59  H    Isotropic =    26.7337   Anisotropy =     4.9104

     60  C    Isotropic =   148.1635   Anisotropy =    29.2257

     61  C    Isotropic =   153.9743   Anisotropy =    24.9102

     62  H    Isotropic =    26.8135   Anisotropy =     6.0574

     63  C    Isotropic =   147.9557   Anisotropy =    28.9149

     64  H    Isotropic =    26.7061   Anisotropy =     4.0336

     65  H    Isotropic =    29.8509   Anisotropy =    11.4060

     66  H    Isotropic =    29.7574   Anisotropy =     9.9919

     67  H    Isotropic =    29.2228   Anisotropy =    12.6131

     68  H    Isotropic =    29.1567   Anisotropy =     7.0529

     69  H    Isotropic =    29.7604   Anisotropy =     9.8614

     70  H    Isotropic =    29.7807   Anisotropy =    11.6183

     71  H    Isotropic =    29.3271   Anisotropy =     7.0281

     72  H    Isotropic =    29.2288   Anisotropy =    12.6632

     73  N    Isotropic =   114.8456   Anisotropy =   135.7155

     74  C    Isotropic =   145.5271   Anisotropy =    51.9036

     75  H    Isotropic =    28.7216   Anisotropy =     7.0997

     76  H    Isotropic =    29.0045   Anisotropy =     4.3971

     77  H    Isotropic =    29.0632   Anisotropy =     7.0282

     78  C    Isotropic =    11.0237   Anisotropy =   111.4272

     79  O    Isotropic =   -77.7799   Anisotropy =   620.5025

     80  C    Isotropic =    32.6932   Anisotropy =   145.8757

     81  C    Isotropic =    50.6645   Anisotropy =   172.0489

     82  C    Isotropic =    56.1481   Anisotropy =   165.8591

     83  C    Isotropic =    50.3721   Anisotropy =   185.7003

     84  H    Isotropic =    24.7341   Anisotropy =    10.1947

     85  C    Isotropic =    49.6012   Anisotropy =   187.2519

     86  H    Isotropic =    24.8970   Anisotropy =     9.7880

     87  C    Isotropic =    50.6557   Anisotropy =   188.6114

     88  H    Isotropic =    24.4338   Anisotropy =     6.1572

     89  H    Isotropic =    24.3636   Anisotropy =     5.5386

     90  H    Isotropic =    24.4208   Anisotropy =     3.6593

 The electronic state is 1-A.
 Alpha  occ. eigenvalues --  -77.23459 -77.23285 -19.18234 -14.44294 -10.36664
 Alpha  occ. eigenvalues --  -10.30475 -10.29717 -10.29666 -10.29490 -10.29146
 Alpha  occ. eigenvalues --  -10.29098 -10.29085 -10.28749 -10.28687 -10.28573
 Alpha  occ. eigenvalues --  -10.28413 -10.28391 -10.28390 -10.28346 -10.28276
 Alpha  occ. eigenvalues --  -10.28159 -10.27862 -10.27831 -10.27831 -10.27730
 Alpha  occ. eigenvalues --  -10.27707 -10.27578 -10.27502 -10.27451 -10.27431
 Alpha  occ. eigenvalues --  -10.27196 -10.27160 -10.27096 -10.27067 -10.27056
 Alpha  occ. eigenvalues --  -10.26949 -10.26893 -10.26778 -10.26664 -10.26504
 Alpha  occ. eigenvalues --  -10.26333 -10.25151 -10.24830 -10.24749 -10.24603
 Alpha  occ. eigenvalues --  -10.24415  -6.69415  -6.69242  -4.85691  -4.85647
 Alpha  occ. eigenvalues --   -4.85520  -4.85466  -4.85316  -4.85149  -3.31068
 Alpha  occ. eigenvalues --   -2.07963  -2.07308  -2.04533  -1.13478  -1.03409
 Alpha  occ. eigenvalues --   -0.96744  -0.96526  -0.95805  -0.95334  -0.94016
 Alpha  occ. eigenvalues --   -0.93030  -0.90860  -0.88741  -0.87617  -0.87043
 Alpha  occ. eigenvalues --   -0.86457  -0.85418  -0.85212  -0.84930  -0.84602
 Alpha  occ. eigenvalues --   -0.84474  -0.84157  -0.83038  -0.82513  -0.80694
 Alpha  occ. eigenvalues --   -0.79926  -0.78822  -0.77422  -0.75358  -0.72631
 Alpha  occ. eigenvalues --   -0.71304  -0.71081  -0.70771  -0.70257  -0.70182
 Alpha  occ. eigenvalues --   -0.70009  -0.69801  -0.69490  -0.68515  -0.66739
 Alpha  occ. eigenvalues --   -0.65724  -0.65423  -0.63723  -0.62339  -0.61958
 Alpha  occ. eigenvalues --   -0.61861  -0.60977  -0.60222  -0.59626  -0.59500
 Alpha  occ. eigenvalues --   -0.59048  -0.57654  -0.56639  -0.56571  -0.56157
 Alpha  occ. eigenvalues --   -0.56023  -0.55911  -0.55794  -0.55576  -0.55276
 Alpha  occ. eigenvalues --   -0.54984  -0.54820  -0.54364  -0.53684  -0.53319
 Alpha  occ. eigenvalues --   -0.53222  -0.52879  -0.52723  -0.52513  -0.52327
 Alpha  occ. eigenvalues --   -0.52160  -0.52145  -0.51801  -0.51549  -0.51341
 Alpha  occ. eigenvalues --   -0.51066  -0.50067  -0.49812  -0.49471  -0.48694
 Alpha  occ. eigenvalues --   -0.48157  -0.47940  -0.47754  -0.47508  -0.47216
 Alpha  occ. eigenvalues --   -0.47073  -0.46669  -0.46441  -0.45678  -0.45608
 Alpha  occ. eigenvalues --   -0.45431  -0.45127  -0.44889  -0.44654  -0.44423
 Alpha  occ. eigenvalues --   -0.43790  -0.43623  -0.43366  -0.43028  -0.42953
 Alpha  occ. eigenvalues --   -0.42681  -0.42503  -0.42121  -0.42085  -0.40945
 Alpha  occ. eigenvalues --   -0.37811  -0.37166  -0.36833  -0.36421  -0.36041
 Alpha  occ. eigenvalues --   -0.35832  -0.35810  -0.35482  -0.35265  -0.35222
 Alpha  occ. eigenvalues --   -0.34886  -0.34675  -0.34063  -0.33665  -0.33221
 Alpha  occ. eigenvalues --   -0.32907  -0.31527  -0.30242
 Alpha virt. eigenvalues --   -0.16028  -0.14456  -0.13572  -0.12867  -0.12413
 Alpha virt. eigenvalues --   -0.12224  -0.11443  -0.10670  -0.10298  -0.09870
 Alpha virt. eigenvalues --   -0.09438  -0.08847  -0.08429  -0.07279  -0.07003

 Mulliken charges:
               1
     1  P    0.461426
     2  P    0.418597
     3  C   -0.354636
     4  C   -0.037916
     5  H    0.185943
     6  C   -0.095059
     7  H    0.132642
     8  C   -0.102614
     9  H    0.138401
    10  C   -0.076973
    11  H    0.136354
    12  C   -0.065034
    13  H    0.161956
    14  C   -0.176255
    15  C   -0.098885
    16  H    0.152598
    17  C   -0.092160
    18  H    0.130207
    19  C   -0.087680
    20  H    0.135455
    21  C   -0.138103
    22  H    0.134739
    23  C   -0.043986
    24  H    0.174959
    25  C   -0.608171
    26  H    0.275814
    27  C   -0.244128
    28  H    0.203235
    29  H    0.198266
    30  C   -0.104379
    31  C   -0.096324
    32  H    0.173764
    33  C   -0.122878
    34  H    0.129871
    35  C   -0.098509
    36  H    0.137522
    37  C   -0.084555
    38  H    0.135998
    39  C   -0.143470
    40  H    0.166617
    41  C   -0.210765
    42  C   -0.079544
    43  H    0.152083
    44  C   -0.093539
    45  H    0.132616
    46  C   -0.087263
    47  H    0.137639
    48  C   -0.099739
    49  H    0.129920
    50  C   -0.076828
    51  H    0.178771
    52  Rh  -0.676706
    53  C   -0.042927
    54  C   -0.092548
    55  C   -0.051633
    56  C   -0.090494
    57  C   -0.351578
    58  H    0.185406
    59  H    0.215749
    60  C   -0.224677
    61  C   -0.345673
    62  H    0.200825
    63  C   -0.227535
    64  H    0.200476
    65  H    0.167782
    66  H    0.167224
    67  H    0.171266
    68  H    0.133514
    69  H    0.166266
    70  H    0.167508
    71  H    0.132607
    72  H    0.171118
    73  N   -0.160636
    74  C   -0.296215
    75  H    0.155843
    76  H    0.144120
    77  H    0.175805
    78  C    0.225844
    79  O   -0.371636
    80  C    0.085508
    81  C   -0.115988
    82  C   -0.160555
    83  C   -0.091261
    84  H    0.131622
    85  C   -0.081072
    86  H    0.121380
    87  C   -0.109940
    88  H    0.122817
    89  H    0.123565
    90  H    0.128829
 Sum of Mulliken charges =   1.00000

 Dipole moment (field-independent basis, Debye):
    X=              2.4163    Y=              0.2734    Z=              2.7910  Tot=              3.7018
 Quadrupole moment (field-independent basis, Debye-Ang):
   XX=           -232.1516   YY=           -249.3281   ZZ=           -253.4378
   XY=              1.8878   XZ=             -6.7805   YZ=             -3.4460

 Summary of Natural Population Analysis:

                                       Natural Population
                Natural  -----------------------------------------------
    Atom  No    Charge         Core      Valence    Rydberg      Total
 -----------------------------------------------------------------------
      P    1    1.13243      9.99637     3.81968    0.05151    13.86757
      P    2    1.13738      9.99636     3.81397    0.05229    13.86262
      C    3   -0.35148      1.99899     4.32813    0.02437     6.35148
      C    4   -0.18826      1.99909     4.17352    0.01565     6.18826
      H    5    0.22537      0.00000     0.77257    0.00206     0.77463
      C    6   -0.19933      1.99919     4.18549    0.01465     6.19933
      H    7    0.22148      0.00000     0.77729    0.00124     0.77852
      C    8   -0.17723      1.99921     4.16342    0.01461     6.17723
      H    9    0.22281      0.00000     0.77601    0.00118     0.77719
      C   10   -0.19622      1.99920     4.18228    0.01475     6.19622
      H   11    0.22243      0.00000     0.77633    0.00124     0.77757
      C   12   -0.19512      1.99910     4.18002    0.01600     6.19512
      H   13    0.22302      0.00000     0.77510    0.00188     0.77698
      C   14   -0.34692      1.99899     4.32476    0.02317     6.34692
      C   15   -0.20392      1.99909     4.18954    0.01529     6.20392
      H   16    0.21412      0.00000     0.78407    0.00181     0.78588
      C   17   -0.19465      1.99919     4.18074    0.01472     6.19465
      H   18    0.22078      0.00000     0.77797    0.00124     0.77922
      C   19   -0.18274      1.99920     4.16891    0.01462     6.18274
      H   20    0.22111      0.00000     0.77770    0.00118     0.77889
      C   21   -0.18688      1.99920     4.17313    0.01454     6.18688
      H   22    0.22341      0.00000     0.77538    0.00121     0.77659
      C   23   -0.20041      1.99909     4.18587    0.01545     6.20041
      H   24    0.24481      0.00000     0.75303    0.00216     0.75519
      C   25   -0.76453      1.99937     4.73878    0.02638     6.76453
      H   26    0.30278      0.00000     0.69412    0.00310     0.69722
      C   27   -0.52029      1.99926     4.50575    0.01527     6.52029
      H   28    0.23609      0.00000     0.76106    0.00284     0.76391
      H   29    0.23914      0.00000     0.75800    0.00286     0.76086
      C   30   -0.34445      1.99899     4.32189    0.02357     6.34445
      C   31   -0.20146      1.99909     4.18724    0.01513     6.20146
      H   32    0.21527      0.00000     0.78267    0.00206     0.78473
      C   33   -0.19351      1.99920     4.17965    0.01467     6.19351
      H   34    0.22012      0.00000     0.77862    0.00126     0.77988
      C   35   -0.18304      1.99920     4.16915    0.01468     6.18304
      H   36    0.22267      0.00000     0.77616    0.00117     0.77733
      C   37   -0.19059      1.99920     4.17672    0.01467     6.19059
      H   38    0.22309      0.00000     0.77569    0.00122     0.77691
      C   39   -0.20002      1.99910     4.18568    0.01524     6.20002
      H   40    0.22149      0.00000     0.77672    0.00179     0.77851
      C   41   -0.34707      1.99899     4.32455    0.02354     6.34707
      C   42   -0.19068      1.99909     4.17586    0.01573     6.19068
      H   43    0.21769      0.00000     0.78040    0.00191     0.78231
      C   44   -0.19126      1.99920     4.17750    0.01456     6.19126
      H   45    0.22161      0.00000     0.77715    0.00124     0.77839
      C   46   -0.17411      1.99921     4.16040    0.01450     6.17411
      H   47    0.22237      0.00000     0.77645    0.00118     0.77763
      C   48   -0.19228      1.99920     4.17857    0.01452     6.19228
      H   49    0.22121      0.00000     0.77756    0.00123     0.77879
      C   50   -0.18701      1.99910     4.17263    0.01529     6.18701
      H   51    0.22046      0.00000     0.77763    0.00190     0.77954
     Rh   52   -0.39806     35.98576     9.38407    0.02823    45.39806
      C   53   -0.18044      1.99907     4.16182    0.01955     6.18044
      C   54   -0.15600      1.99907     4.13720    0.01972     6.15600
      C   55   -0.17824      1.99906     4.15965    0.01953     6.17824
      C   56   -0.15733      1.99908     4.13851    0.01974     6.15733
      C   57   -0.42341      1.99936     4.41221    0.01184     6.42341
      H   58    0.22444      0.00000     0.77361    0.00195     0.77556
      H   59    0.23362      0.00000     0.76415    0.00223     0.76638
      C   60   -0.41867      1.99935     4.40673    0.01259     6.41867
      C   61   -0.42360      1.99936     4.41243    0.01181     6.42360
      H   62    0.22649      0.00000     0.77134    0.00217     0.77351
      C   63   -0.41801      1.99935     4.40605    0.01261     6.41801
      H   64    0.22843      0.00000     0.76944    0.00213     0.77157
      H   65    0.22736      0.00000     0.77117    0.00148     0.77264
      H   66    0.21475      0.00000     0.78328    0.00198     0.78525
      H   67    0.23358      0.00000     0.76452    0.00190     0.76642
      H   68    0.21765      0.00000     0.78082    0.00153     0.78235
      H   69    0.21428      0.00000     0.78373    0.00199     0.78572
      H   70    0.22761      0.00000     0.77088    0.00151     0.77239
      H   71    0.21500      0.00000     0.78345    0.00155     0.78500
      H   72    0.23349      0.00000     0.76460    0.00191     0.76651
      N   73   -0.41066      1.99938     5.39061    0.02067     7.41066
      C   74   -0.40278      1.99933     4.39489    0.00856     6.40278
      H   75    0.19316      0.00000     0.80503    0.00181     0.80684
      H   76    0.20246      0.00000     0.79594    0.00160     0.79754
      H   77    0.22899      0.00000     0.76966    0.00135     0.77101
      C   78    0.65675      1.99936     3.30800    0.03589     5.34325
      O   79   -0.61227      1.99976     6.60019    0.01232     8.61227
      C   80    0.12984      1.99887     3.85271    0.01858     5.87016
      C   81   -0.19130      1.99907     4.17781    0.01442     6.19130
      C   82   -0.22150      1.99907     4.20831    0.01412     6.22150
      C   83   -0.19222      1.99921     4.17819    0.01482     6.19222
      H   84    0.21925      0.00000     0.77912    0.00163     0.78075
      C   85   -0.19355      1.99922     4.17931    0.01503     6.19355
      H   86    0.20929      0.00000     0.78899    0.00172     0.79071
      C   87   -0.19873      1.99920     4.18472    0.01480     6.19873
      H   88    0.21656      0.00000     0.78226    0.00118     0.78344
      H   89    0.21652      0.00000     0.78227    0.00121     0.78348
      H   90    0.21753      0.00000     0.78129    0.00118     0.78247
 =======================================================================
   * Total *    1.00000    143.94239   239.12045    0.93716   384.00000

 Normal termination of Gaussian 16 at Wed Jan 22 19:33:53 2025.
