 Gaussian 16, Revision B.01,
 Gaussian 16:  ES64L-G16RevB.01 20-Dec-2017

 ------------------------------------------
 # nmr=giao b3lyp/genecp pop=nbo scfcyc=200
 ------------------------------------------

 ---------
 MS-59_SPE
 ---------
 Symbolic Z-matrix:
 Charge =  1 Multiplicity = 1

                         Standard orientation:
 ---------------------------------------------------------------------
 Center     Atomic      Atomic             Coordinates (Angstroms)
 Number     Number       Type             X           Y           Z
 ---------------------------------------------------------------------
      1         15           0       -0.128819   -1.079410    0.235761
      2         15           0        1.412480    1.240721   -0.001109
      3          6           0       -0.432740    0.783790    0.018361
      4          6           0       -1.323159   -2.011750   -0.813209
      5          6           0       -2.052139   -3.096840   -0.323209
      6          6           0       -2.862988   -3.838931   -1.177559
      7          6           0       -2.950978   -3.510361   -2.524529
      8          6           0       -2.217739   -2.436280   -3.022659
      9          6           0       -1.402589   -1.697080   -2.175249
     10          6           0       -0.434789   -1.547390    1.987021
     11          6           0        0.634591   -2.035319    2.745701
     12          6           0        0.444211   -2.404659    4.072801
     13          6           0       -0.814539   -2.288230    4.652821
     14          6           0       -1.881519   -1.797450    3.905041
     15          6           0       -1.700089   -1.426680    2.576891
     16          6           0        1.540159    2.588171   -1.254199
     17          6           0        1.753449    2.234991   -2.590449
     18          6           0        1.776179    3.209981   -3.582069
     19          6           0        1.590078    4.547271   -3.248129
     20          6           0        1.375838    4.906981   -1.920829
     21          6           0        1.348038    3.935031   -0.926859
     22          6           0        1.951129    1.988841    1.593101
     23          6           0        1.336239    1.680201    2.809701
     24          6           0        1.847049    2.180581    4.002991
     25          6           0        2.983069    2.981782    3.999761
     26          6           0        3.612939    3.278832    2.795081
     27          6           0        3.104839    2.784492    1.599971
     28          1           0       -0.658700    0.863240   -1.049279
     29          1           0       -1.998189   -3.366280    0.722321
     30          1           0       -3.428558   -4.673921   -0.783729
     31          1           0       -3.583178   -4.089571   -3.185499
     32          1           0       -2.274619   -2.179320   -4.073209
     33          1           0       -0.819700   -0.880700   -2.585959
     34          1           0        1.616701   -2.114799    2.297501
     35          1           0        1.277501   -2.783509    4.651211
     36          1           0       -0.964449   -2.579160    5.685171
     37          1           0       -2.862029   -1.704291    4.355371
     38          1           0       -2.531270   -1.034841    2.001661
     39          1           0        1.902170    1.194751   -2.853599
     40          1           0        1.946229    2.925751   -4.612999
     41          1           0        1.614658    5.307591   -4.018539
     42          1           0        1.230768    5.947071   -1.656839
     43          1           0        1.187598    4.231641    0.101321
     44          1           0        0.465370    1.041841    2.843261
     45          1           0        1.353959    1.939641    4.936321
     46          1           0        3.377619    3.370522    4.929951
     47          1           0        4.501148    3.898042    2.783181
     48          1           0        3.606269    3.031522    0.672631
     49         45           0        2.131020   -0.953519   -0.424859
     50          6           0        4.102110   -0.598758   -1.552359
     51          6           0        4.362280   -0.705978   -0.203719
     52          6           0        2.757981   -3.153548   -0.322769
     53          6           0        2.266491   -2.880119   -1.581809
     54          6           0        4.316511   -1.691258   -2.583129
     55          1           0        3.995750    0.404242   -1.949349
     56          1           0        4.460150    0.217912    0.357671
     57          6           0        4.843601   -1.931717    0.532771
     58          6           0        4.224481   -3.262358    0.051661
     59          1           0        2.061742   -3.590469    0.384731
     60          6           0        3.071661   -2.573228   -2.820459
     61          1           0        1.231051   -3.140239   -1.774839
     62          1           0        4.594371   -1.225018   -3.529999
     63          1           0        5.168111   -2.306447   -2.293489
     64          1           0        5.937701   -1.989407    0.471741
     65          1           0        4.614291   -1.791628    1.591491
     66          1           0        4.789652   -3.661867   -0.790159
     67          1           0        4.324132   -3.996988    0.852501
     68          1           0        2.408481   -2.073388   -3.530089
     69          1           0        3.369692   -3.512068   -3.304239
     70          6           0       -2.887511    1.527419    0.284981
     71          6           0       -3.455521    2.727039   -0.462029
     72          1           0       -4.461571    2.449759   -0.778359
     73          6           0       -2.645391    3.069519   -1.721709
     74          1           0       -1.623831    3.375840   -1.486699
     75          1           0       -2.601251    2.225049   -2.412749
     76          1           0       -3.118982    3.900079   -2.248599
     77          6           0       -3.584412    3.945719    0.469591
     78          1           0       -4.183882    3.712929    1.351171
     79          1           0       -2.612242    4.313319    0.806111
     80          1           0       -4.075992    4.762859   -0.061709
     81          6           0       -4.865340    0.231698    0.157851
     82          6           0       -5.895490    0.387868    1.089771
     83          6           0       -5.164300   -0.252282   -1.118269
     84          6           0       -7.207350    0.095257    0.735751
     85          1           0       -5.661320    0.740768    2.086651
     86          6           0       -6.479100   -0.549342   -1.460959
     87          1           0       -4.364320   -0.403671   -1.831919
     88          6           0       -7.506620   -0.374463   -0.539769
     89          1           0       -7.998430    0.231337    1.462961
     90          1           0       -6.699750   -0.919902   -2.454689
     91          1           0       -8.528660   -0.606103   -0.810449
     92          6           0       -1.455461    1.615940    0.809581
     93          1           0       -1.124651    2.655710    0.788731
     94          1           0       -1.462561    1.311550    1.855101
     95          7           0       -3.526680    0.462139    0.556511
 ---------------------------------------------------------------------

 SCF Done:  E(RB3LYP) =  -2553.50828983     A.U. after   17 cycles

      1  P    Isotropic =   285.9877   Anisotropy =    66.8486

      2  P    Isotropic =   285.2153   Anisotropy =    97.0330

      3  C    Isotropic =   107.0554   Anisotropy =    47.4090

      4  C    Isotropic =    43.1748   Anisotropy =   173.1865

      5  C    Isotropic =    46.9532   Anisotropy =   192.9135

      6  C    Isotropic =    48.4866   Anisotropy =   191.9824

      7  C    Isotropic =    47.0872   Anisotropy =   196.1697

      8  C    Isotropic =    49.6144   Anisotropy =   189.0520

      9  C    Isotropic =    49.5252   Anisotropy =   186.6841

     10  C    Isotropic =    53.0210   Anisotropy =   163.2670

     11  C    Isotropic =    39.4028   Anisotropy =   180.0932

     12  C    Isotropic =    49.2611   Anisotropy =   187.9154

     13  C    Isotropic =    44.1322   Anisotropy =   199.1896

     14  C    Isotropic =    48.7800   Anisotropy =   189.0435

     15  C    Isotropic =    39.0663   Anisotropy =   206.2560

     16  C    Isotropic =    43.5431   Anisotropy =   177.9536

     17  C    Isotropic =    43.7995   Anisotropy =   180.1096

     18  C    Isotropic =    48.1817   Anisotropy =   189.4280

     19  C    Isotropic =    44.8601   Anisotropy =   198.4187

     20  C    Isotropic =    48.6274   Anisotropy =   190.2202

     21  C    Isotropic =    45.8730   Anisotropy =   191.5156

     22  C    Isotropic =    48.0405   Anisotropy =   163.3664

     23  C    Isotropic =    47.5011   Anisotropy =   186.6273

     24  C    Isotropic =    49.6785   Anisotropy =   188.7131

     25  C    Isotropic =    46.9125   Anisotropy =   195.2551

     26  C    Isotropic =    48.5990   Anisotropy =   190.4775

     27  C    Isotropic =    47.0975   Anisotropy =   189.0533

     28  H    Isotropic =    27.5854   Anisotropy =     3.8377

     29  H    Isotropic =    24.7991   Anisotropy =    12.0316

     30  H    Isotropic =    24.5168   Anisotropy =     5.7206

     31  H    Isotropic =    24.1899   Anisotropy =     2.8768

     32  H    Isotropic =    23.9871   Anisotropy =     6.7100

     33  H    Isotropic =    23.9255   Anisotropy =     9.8592

     34  H    Isotropic =    23.2823   Anisotropy =     9.9337

     35  H    Isotropic =    24.0177   Anisotropy =     6.8699

     36  H    Isotropic =    23.7784   Anisotropy =     3.6323

     37  H    Isotropic =    23.8474   Anisotropy =     6.8453

     38  H    Isotropic =    22.0467   Anisotropy =     8.2988

     39  H    Isotropic =    23.2441   Anisotropy =     9.8644

     40  H    Isotropic =    23.8714   Anisotropy =     6.6910

     41  H    Isotropic =    23.9097   Anisotropy =     3.4863

     42  H    Isotropic =    24.1544   Anisotropy =     6.1854

     43  H    Isotropic =    24.2515   Anisotropy =    11.3179

     44  H    Isotropic =    25.2558   Anisotropy =     7.1299

     45  H    Isotropic =    24.6190   Anisotropy =     8.2520

     46  H    Isotropic =    24.1812   Anisotropy =     3.9764

     47  H    Isotropic =    24.2294   Anisotropy =     6.1244

     48  H    Isotropic =    24.6778   Anisotropy =    11.6065

     49  Rh   Isotropic =  -298.0736   Anisotropy =   329.6579

     50  C    Isotropic =    78.1449   Anisotropy =   122.3674

     51  C    Isotropic =    73.9022   Anisotropy =   121.1977

     52  C    Isotropic =    80.3009   Anisotropy =   119.3875

     53  C    Isotropic =    72.1017   Anisotropy =   123.6805

     54  C    Isotropic =   153.9575   Anisotropy =    25.0369

     55  H    Isotropic =    26.8005   Anisotropy =     5.8602

     56  H    Isotropic =    26.6783   Anisotropy =     4.3390

     57  C    Isotropic =   148.0962   Anisotropy =    28.5360

     58  C    Isotropic =   154.0666   Anisotropy =    24.8742

     59  H    Isotropic =    27.1274   Anisotropy =     6.1309

     60  C    Isotropic =   147.8395   Anisotropy =    28.9307

     61  H    Isotropic =    27.0808   Anisotropy =     4.4040

     62  H    Isotropic =    29.7303   Anisotropy =    11.5199

     63  H    Isotropic =    29.7261   Anisotropy =     9.9745

     64  H    Isotropic =    29.2202   Anisotropy =    12.9212

     65  H    Isotropic =    29.3411   Anisotropy =     7.3060

     66  H    Isotropic =    29.7818   Anisotropy =    10.0933

     67  H    Isotropic =    29.8495   Anisotropy =    11.6451

     68  H    Isotropic =    29.0199   Anisotropy =     7.1893

     69  H    Isotropic =    29.2093   Anisotropy =    12.6400

     70  C    Isotropic =    -1.4799   Anisotropy =   174.0366

     71  C    Isotropic =   145.7838   Anisotropy =    23.2474

     72  H    Isotropic =    29.5381   Anisotropy =    10.1170

     73  C    Isotropic =   165.7302   Anisotropy =    29.7509

     74  H    Isotropic =    32.1329   Anisotropy =    12.2549

     75  H    Isotropic =    31.5835   Anisotropy =     5.3929

     76  H    Isotropic =    31.4445   Anisotropy =     9.7234

     77  C    Isotropic =   164.2754   Anisotropy =    35.9682

     78  H    Isotropic =    31.2460   Anisotropy =    10.1483

     79  H    Isotropic =    31.3776   Anisotropy =     3.9709

     80  H    Isotropic =    31.2258   Anisotropy =    11.2520

     81  C    Isotropic =    26.9642   Anisotropy =   157.7526

     82  C    Isotropic =    62.0131   Anisotropy =   155.7610

     83  C    Isotropic =    64.8626   Anisotropy =   151.0742

     84  C    Isotropic =    49.3522   Anisotropy =   187.8329

     85  H    Isotropic =    25.2478   Anisotropy =     8.8969

     86  C    Isotropic =    50.4042   Anisotropy =   185.9817

     87  H    Isotropic =    26.7310   Anisotropy =     7.1893

     88  C    Isotropic =    54.9686   Anisotropy =   182.3038

     89  H    Isotropic =    24.4527   Anisotropy =     4.9714

     90  H    Isotropic =    24.8333   Anisotropy =     7.5220

     91  H    Isotropic =    24.7659   Anisotropy =     3.8816

     92  C    Isotropic =   149.8538   Anisotropy =    26.2641

     93  H    Isotropic =    29.3294   Anisotropy =     7.5625

     94  H    Isotropic =    28.8861   Anisotropy =     3.4529

     95  N    Isotropic =  -123.0773   Anisotropy =   424.0813

 The electronic state is 1-A.
 Alpha  occ. eigenvalues --  -77.23653 -77.23394 -14.39858 -10.31641 -10.31344
 Alpha  occ. eigenvalues --  -10.29670 -10.29614 -10.29121 -10.29063 -10.28755
 Alpha  occ. eigenvalues --  -10.28657 -10.28505 -10.28464 -10.28379 -10.28376
 Alpha  occ. eigenvalues --  -10.28262 -10.28237 -10.28086 -10.28048 -10.27932
 Alpha  occ. eigenvalues --  -10.27911 -10.27786 -10.27735 -10.27682 -10.27467
 Alpha  occ. eigenvalues --  -10.27365 -10.27329 -10.27308 -10.27254 -10.27244
 Alpha  occ. eigenvalues --  -10.27229 -10.27179 -10.27171 -10.27134 -10.27044
 Alpha  occ. eigenvalues --  -10.26983 -10.26978 -10.26943 -10.26846 -10.26777
 Alpha  occ. eigenvalues --  -10.24925 -10.24626 -10.24395 -10.24334 -10.24326
 Alpha  occ. eigenvalues --  -10.24264 -10.23703  -6.69604  -6.69330  -4.85879
 Alpha  occ. eigenvalues --   -4.85840  -4.85603  -4.85554  -4.85503  -4.85247
 Alpha  occ. eigenvalues --   -3.31128  -2.08018  -2.07358  -2.04606  -1.02714
 Alpha  occ. eigenvalues --   -0.96839  -0.96230  -0.96036  -0.95587  -0.94092
 Alpha  occ. eigenvalues --   -0.92859  -0.90536  -0.88815  -0.88485  -0.87704
 Alpha  occ. eigenvalues --   -0.87058  -0.85919  -0.85461  -0.85113  -0.84837
 Alpha  occ. eigenvalues --   -0.84804  -0.84726  -0.84347  -0.82228  -0.81841
 Alpha  occ. eigenvalues --   -0.80032  -0.78879  -0.77510  -0.77368  -0.75416
 Alpha  occ. eigenvalues --   -0.72648  -0.71427  -0.71041  -0.70881  -0.70420
 Alpha  occ. eigenvalues --   -0.70283  -0.70268  -0.70219  -0.69730  -0.68310
 Alpha  occ. eigenvalues --   -0.67997  -0.66856  -0.65807  -0.65494  -0.62813
 Alpha  occ. eigenvalues --   -0.62405  -0.62053  -0.61793  -0.60713  -0.60319
 Alpha  occ. eigenvalues --   -0.59705  -0.59645  -0.56784  -0.56673  -0.56508
 Alpha  occ. eigenvalues --   -0.56188  -0.56008  -0.55792  -0.55609  -0.55492
 Alpha  occ. eigenvalues --   -0.55414  -0.54885  -0.54825  -0.54059  -0.53699
 Alpha  occ. eigenvalues --   -0.53407  -0.53360  -0.52911  -0.52811  -0.52491
 Alpha  occ. eigenvalues --   -0.52394  -0.52309  -0.52225  -0.52126  -0.51846
 Alpha  occ. eigenvalues --   -0.51069  -0.50915  -0.50387  -0.50045  -0.49341
 Alpha  occ. eigenvalues --   -0.48649  -0.48509  -0.48208  -0.47885  -0.47773
 Alpha  occ. eigenvalues --   -0.47512  -0.47116  -0.46992  -0.46802  -0.46743
 Alpha  occ. eigenvalues --   -0.45861  -0.45795  -0.45707  -0.45197  -0.44794
 Alpha  occ. eigenvalues --   -0.44595  -0.44437  -0.44284  -0.43883  -0.43612
 Alpha  occ. eigenvalues --   -0.43126  -0.43065  -0.42884  -0.42786  -0.42647
 Alpha  occ. eigenvalues --   -0.42374  -0.42129  -0.41584  -0.41002  -0.38505
 Alpha  occ. eigenvalues --   -0.37730  -0.37456  -0.36794  -0.36564  -0.36313
 Alpha  occ. eigenvalues --   -0.35897  -0.35675  -0.35487  -0.35281  -0.35176
 Alpha  occ. eigenvalues --   -0.34807  -0.34225  -0.33729  -0.33241  -0.32629
 Alpha  occ. eigenvalues --   -0.30336  -0.29760
 Alpha virt. eigenvalues --   -0.16048  -0.14488  -0.13895  -0.12882  -0.12469
 Alpha virt. eigenvalues --   -0.12048  -0.11529  -0.10874  -0.10618  -0.10424
 Alpha virt. eigenvalues --   -0.10074  -0.08986  -0.08091  -0.07493  -0.07306

 Mulliken charges:
               1
     1  P    0.387604
     2  P    0.434110
     3  C   -0.616098
     4  C   -0.123206
     5  C   -0.065723
     6  C   -0.089608
     7  C   -0.093461
     8  C   -0.121359
     9  C   -0.085084
    10  C   -0.424917
    11  C    0.043668
    12  C   -0.145036
    13  C   -0.065475
    14  C   -0.139780
    15  C   -0.011452
    16  C   -0.229809
    17  C   -0.084687
    18  C   -0.103329
    19  C   -0.089394
    20  C   -0.088477
    21  C   -0.092986
    22  C   -0.101613
    23  C   -0.061556
    24  C   -0.135717
    25  C   -0.093012
    26  C   -0.090731
    27  C   -0.138271
    28  H    0.228696
    29  H    0.164595
    30  H    0.132640
    31  H    0.135587
    32  H    0.127270
    33  H    0.130308
    34  H    0.169861
    35  H    0.128455
    36  H    0.135758
    37  H    0.132548
    38  H    0.268265
    39  H    0.181956
    40  H    0.130685
    41  H    0.139084
    42  H    0.135664
    43  H    0.161906
    44  H    0.162421
    45  H    0.131412
    46  H    0.137086
    47  H    0.134796
    48  H    0.165529
    49  Rh  -0.621843
    50  C   -0.051924
    51  C   -0.103207
    52  C   -0.040561
    53  C   -0.091389
    54  C   -0.342997
    55  H    0.200188
    56  H    0.195443
    57  C   -0.212641
    58  C   -0.356823
    59  H    0.194811
    60  C   -0.236138
    61  H    0.217158
    62  H    0.166202
    63  H    0.166309
    64  H    0.171886
    65  H    0.132891
    66  H    0.165603
    67  H    0.167664
    68  H    0.127250
    69  H    0.171552
    70  C   -0.016820
    71  C   -0.025315
    72  H    0.173279
    73  C   -0.417533
    74  H    0.141408
    75  H    0.127836
    76  H    0.152783
    77  C   -0.388039
    78  H    0.140901
    79  H    0.116261
    80  H    0.148486
    81  C   -0.120902
    82  C   -0.113386
    83  C   -0.098934
    84  C   -0.103424
    85  H    0.107168
    86  C   -0.120652
    87  H    0.142863
    88  C   -0.095272
    89  H    0.120932
    90  H    0.113692
    91  H    0.123292
    92  C   -0.200217
    93  H    0.172817
    94  H    0.165217
    95  N   -0.074994
 Sum of Mulliken charges =   1.00000

 Dipole moment (field-independent basis, Debye):
    X=              3.5453    Y=              0.8701    Z=             -0.5068  Tot=              3.6856
 Quadrupole moment (field-independent basis, Debye-Ang):
   XX=           -251.7418   YY=           -262.0155   ZZ=           -257.4966
   XY=              1.9716   XZ=              0.3887   YZ=             -0.9304

 Summary of Natural Population Analysis:

                                       Natural Population
                Natural  -----------------------------------------------
    Atom  No    Charge         Core      Valence    Rydberg      Total
 -----------------------------------------------------------------------
      P    1    1.13576      9.99634     3.81309    0.05482    13.86424
      P    2    1.12870      9.99636     3.82325    0.05168    13.87130
      C    3   -0.71919      1.99936     4.69569    0.02415     6.71919
      C    4   -0.33454      1.99897     4.31068    0.02488     6.33454
      C    5   -0.18712      1.99910     4.17273    0.01530     6.18712
      C    6   -0.18454      1.99920     4.17066    0.01469     6.18454
      C    7   -0.18258      1.99920     4.16861    0.01477     6.18258
      C    8   -0.19826      1.99919     4.18419    0.01487     6.19826
      C    9   -0.20347      1.99909     4.18903    0.01535     6.20347
      C   10   -0.36540      1.99898     4.34179    0.02463     6.36540
      C   11   -0.17934      1.99910     4.16423    0.01601     6.17934
      C   12   -0.20362      1.99919     4.18963    0.01479     6.20362
      C   13   -0.17323      1.99920     4.15946    0.01457     6.17323
      C   14   -0.19809      1.99919     4.18391    0.01500     6.19809
      C   15   -0.20451      1.99909     4.18781    0.01760     6.20451
      C   16   -0.34608      1.99899     4.32334    0.02374     6.34608
      C   17   -0.19399      1.99910     4.17944    0.01545     6.19399
      C   18   -0.19461      1.99920     4.18078    0.01463     6.19461
      C   19   -0.17624      1.99920     4.16246    0.01458     6.17624
      C   20   -0.19238      1.99919     4.17855    0.01463     6.19238
      C   21   -0.19627      1.99909     4.18134    0.01584     6.19627
      C   22   -0.34559      1.99898     4.32315    0.02346     6.34559
      C   23   -0.19355      1.99909     4.17944    0.01502     6.19355
      C   24   -0.19026      1.99920     4.17654    0.01452     6.19026
      C   25   -0.18200      1.99920     4.16817    0.01462     6.18200
      C   26   -0.19189      1.99920     4.17803    0.01466     6.19189
      C   27   -0.20143      1.99910     4.18718    0.01515     6.20143
      H   28    0.25700      0.00000     0.74033    0.00267     0.74300
      H   29    0.22473      0.00000     0.77347    0.00180     0.77527
      H   30    0.22281      0.00000     0.77598    0.00121     0.77719
      H   31    0.22190      0.00000     0.77693    0.00118     0.77810
      H   32    0.21965      0.00000     0.77907    0.00128     0.78035
      H   33    0.20819      0.00000     0.78981    0.00200     0.79181
      H   34    0.22190      0.00000     0.77594    0.00216     0.77810
      H   35    0.22050      0.00000     0.77827    0.00123     0.77950
      H   36    0.22150      0.00000     0.77735    0.00115     0.77850
      H   37    0.22225      0.00000     0.77648    0.00127     0.77775
      H   38    0.25748      0.00000     0.73994    0.00259     0.74252
      H   39    0.22001      0.00000     0.77803    0.00197     0.77999
      H   40    0.22141      0.00000     0.77736    0.00123     0.77859
      H   41    0.22350      0.00000     0.77533    0.00117     0.77650
      H   42    0.22349      0.00000     0.77526    0.00125     0.77651
      H   43    0.22263      0.00000     0.77542    0.00196     0.77737
      H   44    0.21677      0.00000     0.78106    0.00218     0.78323
      H   45    0.22149      0.00000     0.77726    0.00124     0.77851
      H   46    0.22255      0.00000     0.77628    0.00117     0.77745
      H   47    0.22251      0.00000     0.77626    0.00123     0.77749
      H   48    0.21937      0.00000     0.77885    0.00178     0.78063
     Rh   49   -0.40169     35.98590     9.38771    0.02808    45.40169
      C   50   -0.17862      1.99907     4.15991    0.01965     6.17862
      C   51   -0.15906      1.99908     4.14020    0.01978     6.15906
      C   52   -0.18433      1.99907     4.16580    0.01947     6.18433
      C   53   -0.15388      1.99908     4.13521    0.01959     6.15388
      C   54   -0.42386      1.99936     4.41264    0.01185     6.42386
      H   55    0.22547      0.00000     0.77239    0.00214     0.77453
      H   56    0.22851      0.00000     0.76935    0.00214     0.77149
      C   57   -0.41844      1.99935     4.40653    0.01256     6.41844
      C   58   -0.42338      1.99936     4.41220    0.01182     6.42338
      H   59    0.22672      0.00000     0.77133    0.00195     0.77328
      C   60   -0.41733      1.99935     4.40538    0.01260     6.41733
      H   61    0.23368      0.00000     0.76437    0.00195     0.76632
      H   62    0.22671      0.00000     0.77180    0.00149     0.77329
      H   63    0.21511      0.00000     0.78291    0.00198     0.78489
      H   64    0.23392      0.00000     0.76418    0.00189     0.76608
      H   65    0.21636      0.00000     0.78207    0.00156     0.78364
      H   66    0.21475      0.00000     0.78326    0.00199     0.78525
      H   67    0.22770      0.00000     0.77082    0.00149     0.77230
      H   68    0.21421      0.00000     0.78420    0.00159     0.78579
      H   69    0.23366      0.00000     0.76443    0.00191     0.76634
      C   70    0.37023      1.99918     3.60382    0.02677     5.62977
      C   71   -0.29385      1.99932     4.28161    0.01292     6.29385
      H   72    0.22811      0.00000     0.76985    0.00204     0.77189
      C   73   -0.58912      1.99942     4.58179    0.00791     6.58912
      H   74    0.19774      0.00000     0.80016    0.00210     0.80226
      H   75    0.20495      0.00000     0.79387    0.00119     0.79505
      H   76    0.21989      0.00000     0.77879    0.00132     0.78011
      C   77   -0.58275      1.99942     4.57605    0.00728     6.58275
      H   78    0.21399      0.00000     0.78483    0.00119     0.78601
      H   79    0.19445      0.00000     0.80417    0.00138     0.80555
      H   80    0.21781      0.00000     0.78089    0.00129     0.78219
      C   81    0.10513      1.99891     3.87444    0.02152     5.89487
      C   82   -0.23279      1.99907     4.21879    0.01493     6.23279
      C   83   -0.24192      1.99906     4.22681    0.01605     6.24192
      C   84   -0.18526      1.99921     4.17112    0.01492     6.18526
      H   85    0.21065      0.00000     0.78757    0.00178     0.78935
      C   86   -0.18775      1.99922     4.17324    0.01529     6.18775
      H   87    0.20998      0.00000     0.78709    0.00293     0.79002
      C   88   -0.22190      1.99920     4.20728    0.01542     6.22190
      H   89    0.21505      0.00000     0.78375    0.00119     0.78495
      H   90    0.21229      0.00000     0.78635    0.00136     0.78771
      H   91    0.21608      0.00000     0.78275    0.00117     0.78392
      C   92   -0.48045      1.99928     4.46256    0.01861     6.48045
      H   93    0.22220      0.00000     0.77490    0.00290     0.77780
      H   94    0.23617      0.00000     0.76159    0.00223     0.76383
      N   95   -0.43306      1.99926     5.41068    0.02313     7.43306
 =======================================================================
   * Total *    1.00000    145.94127   245.09929    0.95944   392.00000

 Normal termination of Gaussian 16 at Wed Jan 22 20:14:03 2025.
