 Gaussian 16, Revision B.01,
 Gaussian 16:  ES64L-G16RevB.01 20-Dec-2017

 ------------------------------------------
 # nmr=giao b3lyp/genecp pop=nbo scfcyc=200
 ------------------------------------------

 ---------
 MS-50_SPE
 ---------
 Symbolic Z-matrix:
 Charge =  1 Multiplicity = 1

                         Standard orientation:
 ---------------------------------------------------------------------
 Center     Atomic      Atomic             Coordinates (Angstroms)
 Number     Number       Type             X           Y           Z
 ---------------------------------------------------------------------
      1          6           0       -0.058010    0.952879    1.198559
      2          1           0        0.538760    0.698939    2.077589
      3          6           0       -0.856942   -1.782490    2.179849
      4          6           0       -1.927322   -2.671510    2.312389
      5          1           0       -2.683332   -2.732489    1.541809
      6          6           0       -2.036712   -3.480930    3.439799
      7          1           0       -2.874163   -4.161719    3.528229
      8          6           0       -1.082242   -3.414260    4.447359
      9          1           0       -1.172353   -4.040370    5.325959
     10          6           0       -0.003932   -2.543551    4.316679
     11          1           0        0.750218   -2.491981    5.092139
     12          6           0        0.114448   -1.743191    3.187329
     13          1           0        0.981319   -1.100391    3.093849
     14          6           0       -2.295351   -0.652890   -0.087721
     15          6           0       -3.340451   -0.200909    0.723779
     16          1           0       -3.134421    0.061271    1.752759
     17          6           0       -4.645541   -0.080728    0.271659
     18          1           0       -5.412671    0.273602    0.943339
     19          6           0       -4.929271   -0.420218   -1.052491
     20          6           0       -3.907241   -0.874759   -1.892511
     21          1           0       -4.174901   -1.131449   -2.905891
     22          6           0       -2.605391   -0.993729   -1.425061
     23          6           0        2.677330    2.096378    0.608099
     24          6           0        2.698050    2.516248    1.939259
     25          1           0        1.853090    2.338899    2.589929
     26          6           0        3.801451    3.199318    2.444339
     27          1           0        3.800101    3.527898    3.476079
     28          6           0        4.894181    3.466257    1.628669
     29          1           0        5.750351    3.998267    2.023579
     30          6           0        4.880921    3.053067    0.299019
     31          1           0        5.726191    3.262807   -0.344371
     32          6           0        3.782420    2.371308   -0.208111
     33          1           0        3.781590    2.069018   -1.248801
     34          6           0        0.707570    2.187839   -1.517441
     35          6           0        0.236770    1.576179   -2.682571
     36          1           0        0.213110    0.495349   -2.746761
     37          6           0       -0.200750    2.351010   -3.752101
     38          1           0       -0.559430    1.871700   -4.654541
     39          6           0       -0.162959    3.738819   -3.669111
     40          1           0       -0.495409    4.341480   -4.505081
     41          6           0        0.311891    4.353369   -2.513351
     42          1           0        0.346602    5.433589   -2.447441
     43          6           0        0.746071    3.584449   -1.440861
     44          1           0        1.117501    4.073389   -0.549911
     45          6           0       -1.017100    2.040910    1.580939
     46          6           0       -1.126370    2.406790    2.929259
     47          1           0       -0.518100    1.903850    3.672999
     48          6           0       -2.009119    3.400750    3.333829
     49          1           0       -2.075719    3.667620    4.381179
     50          6           0       -2.800489    4.052421    2.393419
     51          1           0       -3.484828    4.831871    2.704059
     52          6           0       -2.707409    3.695091    1.052309
     53          1           0       -3.322949    4.194471    0.314429
     54          6           0       -1.829189    2.696030    0.648579
     55          1           0       -1.782310    2.425080   -0.396321
     56         15           0       -0.616661   -0.793610    0.631179
     57         15           0        1.288880    1.130619   -0.126811
     58         45           0        1.423889   -1.186671   -0.517881
     59          6           0        1.657588   -3.414411   -0.021011
     60          6           0        1.112688   -3.286191   -1.279211
     61          6           0        3.286409   -1.410132   -1.775591
     62          6           0        3.649319   -1.336332   -0.442311
     63          6           0        3.108058   -3.742572    0.276539
     64          1           0        0.969048   -3.548131    0.804939
     65          1           0        0.032958   -3.344271   -1.363141
     66          6           0        1.853948   -3.374741   -2.591301
     67          6           0        3.235878   -2.684382   -2.599531
     68          1           0        3.325769   -0.488382   -2.346861
     69          6           0        3.994078   -2.493662    0.463579
     70          1           0        3.980939   -0.373192   -0.071441
     71          1           0        3.148297   -4.337332    1.190659
     72          1           0        3.508427   -4.378572   -0.512911
     73          1           0        1.962477   -4.425741   -2.887031
     74          1           0        1.226658   -2.915081   -3.357851
     75          1           0        4.005888   -3.374252   -2.253871
     76          1           0        3.494688   -2.442162   -3.631651
     77          1           0        3.904468   -2.143052    1.493879
     78          1           0        5.049888   -2.762153    0.330269
     79          8           0       -6.151231   -0.350418   -1.620531
     80          8           0       -1.587401   -1.438710   -2.211641
     81          6           0       -1.876592   -1.812190   -3.559791
     82          1           0       -2.586842   -2.641309   -3.598151
     83          1           0       -2.267941   -0.966780   -4.130581
     84          1           0       -0.929652   -2.129180   -3.988571
     85          6           0       -7.260561    0.093113   -0.836511
     86          1           0       -8.119281    0.060853   -1.501341
     87          1           0       -7.433201   -0.571157    0.013709
     88          1           0       -7.110810    1.116613   -0.484331
 ---------------------------------------------------------------------

 SCF Done:  E(RB3LYP) =  -2531.85799385     A.U. after   16 cycles

      1  C    Isotropic =   109.8301   Anisotropy =    67.4166

      2  H    Isotropic =    25.5985   Anisotropy =     4.5477

      3  C    Isotropic =    41.1575   Anisotropy =   172.8472

      4  C    Isotropic =    46.3742   Anisotropy =   191.1362

      5  H    Isotropic =    25.0620   Anisotropy =    12.9038

      6  C    Isotropic =    49.0929   Anisotropy =   187.9631

      7  H    Isotropic =    24.4699   Anisotropy =     6.6596

      8  C    Isotropic =    47.1362   Anisotropy =   193.0116

      9  H    Isotropic =    24.1962   Anisotropy =     3.4845

     10  C    Isotropic =    49.4701   Anisotropy =   187.6244

     11  H    Isotropic =    23.9995   Anisotropy =     6.9095

     12  C    Isotropic =    48.2327   Anisotropy =   187.3267

     13  H    Isotropic =    23.4558   Anisotropy =    10.7965

     14  C    Isotropic =    76.3755   Anisotropy =   113.1125

     15  C    Isotropic =    36.7669   Anisotropy =   197.1690

     16  H    Isotropic =    25.9394   Anisotropy =     8.8679

     17  C    Isotropic =    78.9179   Anisotropy =   147.6111

     18  H    Isotropic =    26.0357   Anisotropy =     8.4901

     19  C    Isotropic =    10.1307   Anisotropy =   147.1401

     20  C    Isotropic =    80.9399   Anisotropy =   122.7593

     21  H    Isotropic =    25.3178   Anisotropy =     9.3635

     22  C    Isotropic =    12.1789   Anisotropy =   140.3683

     23  C    Isotropic =    43.9168   Anisotropy =   170.6994

     24  C    Isotropic =    49.5332   Anisotropy =   185.2401

     25  H    Isotropic =    23.8406   Anisotropy =    11.4652

     26  C    Isotropic =    49.2713   Anisotropy =   188.7062

     27  H    Isotropic =    24.0824   Anisotropy =     6.9684

     28  C    Isotropic =    46.7284   Anisotropy =   195.0423

     29  H    Isotropic =    24.0999   Anisotropy =     3.4609

     30  C    Isotropic =    48.3603   Anisotropy =   190.9479

     31  H    Isotropic =    24.2589   Anisotropy =     6.7101

     32  C    Isotropic =    46.9793   Anisotropy =   186.9012

     33  H    Isotropic =    24.9501   Anisotropy =    11.3362

     34  C    Isotropic =    45.6925   Anisotropy =   170.7173

     35  C    Isotropic =    41.3629   Anisotropy =   182.3204

     36  H    Isotropic =    22.8283   Anisotropy =     8.4684

     37  C    Isotropic =    50.8215   Anisotropy =   184.6203

     38  H    Isotropic =    24.1638   Anisotropy =     7.3443

     39  C    Isotropic =    45.4360   Anisotropy =   197.2983

     40  H    Isotropic =    24.1113   Anisotropy =     3.8494

     41  C    Isotropic =    49.7688   Anisotropy =   188.4603

     42  H    Isotropic =    24.5594   Anisotropy =     6.0965

     43  C    Isotropic =    41.9659   Anisotropy =   196.7590

     44  H    Isotropic =    25.2862   Anisotropy =    10.9291

     45  C    Isotropic =    45.8204   Anisotropy =   179.1057

     46  C    Isotropic =    49.7685   Anisotropy =   155.0779

     47  H    Isotropic =    24.4880   Anisotropy =    10.1963

     48  C    Isotropic =    49.6922   Anisotropy =   186.3818

     49  H    Isotropic =    24.3784   Anisotropy =     6.0516

     50  C    Isotropic =    49.2919   Anisotropy =   191.9123

     51  H    Isotropic =    24.4909   Anisotropy =     3.5045

     52  C    Isotropic =    50.9343   Anisotropy =   187.8982

     53  H    Isotropic =    25.0587   Anisotropy =     7.6211

     54  C    Isotropic =    45.5308   Anisotropy =   196.2326

     55  H    Isotropic =    26.5305   Anisotropy =     6.7708

     56  P    Isotropic =   302.8499   Anisotropy =    48.9129

     57  P    Isotropic =   282.8252   Anisotropy =    73.7911

     58  Rh   Isotropic =  -315.0595   Anisotropy =   330.0388

     59  C    Isotropic =    72.0859   Anisotropy =   130.9505

     60  C    Isotropic =    76.6623   Anisotropy =   116.9527

     61  C    Isotropic =    88.2696   Anisotropy =   108.7617

     62  C    Isotropic =    73.0837   Anisotropy =   123.6269

     63  C    Isotropic =   154.0836   Anisotropy =    25.1337

     64  H    Isotropic =    27.5342   Anisotropy =     5.1225

     65  H    Isotropic =    26.2049   Anisotropy =     4.1846

     66  C    Isotropic =   147.9847   Anisotropy =    28.4264

     67  C    Isotropic =   153.6828   Anisotropy =    25.0776

     68  H    Isotropic =    27.1409   Anisotropy =     6.6024

     69  C    Isotropic =   146.4719   Anisotropy =    31.0347

     70  H    Isotropic =    26.8434   Anisotropy =     5.9266

     71  H    Isotropic =    30.1968   Anisotropy =    10.6874

     72  H    Isotropic =    29.9334   Anisotropy =     9.6591

     73  H    Isotropic =    29.0482   Anisotropy =    12.5152

     74  H    Isotropic =    28.8794   Anisotropy =     8.1981

     75  H    Isotropic =    29.7508   Anisotropy =     9.9204

     76  H    Isotropic =    29.7043   Anisotropy =    11.5298

     77  H    Isotropic =    29.3060   Anisotropy =     6.6590

     78  H    Isotropic =    29.3346   Anisotropy =    12.6243

     79  O    Isotropic =   203.0205   Anisotropy =   107.5396

     80  O    Isotropic =   210.7430   Anisotropy =    93.2941

     81  C    Isotropic =   127.5398   Anisotropy =    76.2398

     82  H    Isotropic =    27.9396   Anisotropy =     9.9173

     83  H    Isotropic =    27.8139   Anisotropy =     8.9295

     84  H    Isotropic =    27.2933   Anisotropy =     7.0520

     85  C    Isotropic =   127.8390   Anisotropy =    78.1086

     86  H    Isotropic =    27.8213   Anisotropy =     9.6352

     87  H    Isotropic =    28.4421   Anisotropy =     8.9384

     88  H    Isotropic =    28.4895   Anisotropy =     7.9237

 The electronic state is 1-A.
 Alpha  occ. eigenvalues --  -77.23098 -77.23082 -19.26038 -19.24973 -10.34339
 Alpha  occ. eigenvalues --  -10.33582 -10.32035 -10.30664 -10.30640 -10.29069
 Alpha  occ. eigenvalues --  -10.28961 -10.28784 -10.28212 -10.28129 -10.28113
 Alpha  occ. eigenvalues --  -10.28064 -10.28031 -10.27885 -10.27835 -10.27787
 Alpha  occ. eigenvalues --  -10.27778 -10.27769 -10.27613 -10.27521 -10.27397
 Alpha  occ. eigenvalues --  -10.27138 -10.27084 -10.27067 -10.27049 -10.27038
 Alpha  occ. eigenvalues --  -10.26967 -10.26890 -10.26883 -10.26881 -10.26833
 Alpha  occ. eigenvalues --  -10.26696 -10.26601 -10.26554 -10.26472 -10.26370
 Alpha  occ. eigenvalues --  -10.26261 -10.26245 -10.26105 -10.26040 -10.25981
 Alpha  occ. eigenvalues --   -6.69021  -6.68973  -4.85303  -4.85258  -4.85243
 Alpha  occ. eigenvalues --   -4.85202  -4.84928  -4.84880  -3.30738  -2.07630
 Alpha  occ. eigenvalues --   -2.06955  -2.04212  -1.17110  -1.16231  -0.96387
 Alpha  occ. eigenvalues --   -0.96022  -0.95542  -0.95360  -0.95152  -0.93598
 Alpha  occ. eigenvalues --   -0.89551  -0.88242  -0.87211  -0.87015  -0.86001
 Alpha  occ. eigenvalues --   -0.85587  -0.85004  -0.84760  -0.84671  -0.84555
 Alpha  occ. eigenvalues --   -0.84365  -0.83661  -0.81164  -0.80025  -0.79476
 Alpha  occ. eigenvalues --   -0.79320  -0.76959  -0.74593  -0.72998  -0.70784
 Alpha  occ. eigenvalues --   -0.70582  -0.70545  -0.70485  -0.69870  -0.69749
 Alpha  occ. eigenvalues --   -0.69605  -0.68964  -0.68590  -0.66673  -0.65301
 Alpha  occ. eigenvalues --   -0.65008  -0.63628  -0.62073  -0.61687  -0.61458
 Alpha  occ. eigenvalues --   -0.60910  -0.60476  -0.59571  -0.59195  -0.58573
 Alpha  occ. eigenvalues --   -0.57180  -0.56685  -0.56134  -0.55897  -0.55878
 Alpha  occ. eigenvalues --   -0.55718  -0.55594  -0.55518  -0.55217  -0.55028
 Alpha  occ. eigenvalues --   -0.54959  -0.54527  -0.54291  -0.53709  -0.52862
 Alpha  occ. eigenvalues --   -0.52446  -0.52375  -0.52136  -0.51979  -0.51918
 Alpha  occ. eigenvalues --   -0.51826  -0.51687  -0.51510  -0.51052  -0.50584
 Alpha  occ. eigenvalues --   -0.50039  -0.49347  -0.48302  -0.48132  -0.47709
 Alpha  occ. eigenvalues --   -0.47418  -0.47312  -0.47124  -0.46735  -0.46587
 Alpha  occ. eigenvalues --   -0.45975  -0.45433  -0.45211  -0.45157  -0.44731
 Alpha  occ. eigenvalues --   -0.44604  -0.44587  -0.44399  -0.44181  -0.43604
 Alpha  occ. eigenvalues --   -0.43432  -0.43003  -0.42778  -0.42436  -0.42296
 Alpha  occ. eigenvalues --   -0.42145  -0.41564  -0.40648  -0.40260  -0.37470
 Alpha  occ. eigenvalues --   -0.36827  -0.36161  -0.35722  -0.35434  -0.35353
 Alpha  occ. eigenvalues --   -0.35093  -0.34485  -0.34305  -0.33857  -0.33704
 Alpha  occ. eigenvalues --   -0.33382  -0.33229  -0.32743  -0.31946  -0.29858
 Alpha virt. eigenvalues --   -0.15113  -0.14186  -0.13141  -0.12925  -0.12108
 Alpha virt. eigenvalues --   -0.11558  -0.11108  -0.10730  -0.10468  -0.09995
 Alpha virt. eigenvalues --   -0.09267  -0.08779  -0.08434  -0.07086  -0.06282

 Mulliken charges:
               1
     1  C   -0.684164
     2  H    0.211559
     3  C   -0.197301
     4  C   -0.052648
     5  H    0.158914
     6  C   -0.103882
     7  H    0.132290
     8  C   -0.093772
     9  H    0.135906
    10  C   -0.101751
    11  H    0.128336
    12  C   -0.076031
    13  H    0.135798
    14  C   -0.256739
    15  C   -0.018897
    16  H    0.166739
    17  C   -0.173868
    18  H    0.149432
    19  C    0.113223
    20  C   -0.204031
    21  H    0.151159
    22  C    0.173549
    23  C   -0.195756
    24  C   -0.025557
    25  H    0.114596
    26  C   -0.120749
    27  H    0.129267
    28  C   -0.089797
    29  H    0.137406
    30  C   -0.086476
    31  H    0.132192
    32  C   -0.093506
    33  H    0.154808
    34  C   -0.364487
    35  C    0.013825
    36  H    0.190503
    37  C   -0.131352
    38  H    0.123267
    39  C   -0.084121
    40  H    0.135812
    41  C   -0.093996
    42  H    0.133926
    43  C    0.021173
    44  H    0.151619
    45  C    0.086842
    46  C   -0.119687
    47  H    0.120375
    48  C   -0.107794
    49  H    0.125928
    50  C   -0.086583
    51  H    0.128705
    52  C   -0.137122
    53  H    0.123001
    54  C   -0.022840
    55  H    0.155896
    56  P    0.408478
    57  P    0.401656
    58  Rh  -0.618455
    59  C   -0.045304
    60  C   -0.020567
    61  C   -0.015452
    62  C   -0.108551
    63  C   -0.358412
    64  H    0.215729
    65  H    0.176696
    66  C   -0.223165
    67  C   -0.356972
    68  H    0.174395
    69  C   -0.230555
    70  H    0.227111
    71  H    0.166122
    72  H    0.164953
    73  H    0.167345
    74  H    0.111455
    75  H    0.166987
    76  H    0.166877
    77  H    0.128502
    78  H    0.168311
    79  O   -0.185829
    80  O   -0.214363
    81  C   -0.242704
    82  H    0.153134
    83  H    0.146806
    84  H    0.151100
    85  C   -0.222107
    86  H    0.161633
    87  H    0.136963
    88  H    0.135043
 Sum of Mulliken charges =   1.00000

 Dipole moment (field-independent basis, Debye):
    X=             -0.6241    Y=             -0.1473    Z=             -0.1165  Tot=              0.6518
 Quadrupole moment (field-independent basis, Debye-Ang):
   XX=           -222.0881   YY=           -250.2499   ZZ=           -246.3852
   XY=             -0.9585   XZ=              1.7254   YZ=              0.9423

 Summary of Natural Population Analysis:

                                       Natural Population
                Natural  -----------------------------------------------
    Atom  No    Charge         Core      Valence    Rydberg      Total
 -----------------------------------------------------------------------
      C    1   -0.73940      1.99929     4.71514    0.02497     6.73940
      H    2    0.25375      0.00000     0.74311    0.00313     0.74625
      C    3   -0.33192      1.99898     4.30945    0.02349     6.33192
      C    4   -0.19758      1.99909     4.18319    0.01529     6.19758
      H    5    0.22429      0.00000     0.77392    0.00179     0.77571
      C    6   -0.19056      1.99920     4.17664    0.01473     6.19056
      H    7    0.22131      0.00000     0.77747    0.00122     0.77869
      C    8   -0.18423      1.99920     4.17027    0.01476     6.18423
      H    9    0.22189      0.00000     0.77693    0.00118     0.77811
      C   10   -0.19392      1.99920     4.17997    0.01476     6.19392
      H   11    0.21970      0.00000     0.77906    0.00124     0.78030
      C   12   -0.20098      1.99909     4.18679    0.01510     6.20098
      H   13    0.20768      0.00000     0.79045    0.00186     0.79232
      C   14   -0.44197      1.99890     4.41900    0.02407     6.44197
      C   15   -0.12901      1.99914     4.11307    0.01680     6.12901
      H   16    0.22508      0.00000     0.77260    0.00232     0.77492
      C   17   -0.32146      1.99904     4.30779    0.01463     6.32146
      H   18    0.22796      0.00000     0.77022    0.00182     0.77204
      C   19    0.33414      1.99880     3.64550    0.02156     5.66586
      C   20   -0.33553      1.99897     4.32296    0.01360     6.33553
      H   21    0.23370      0.00000     0.76372    0.00257     0.76630
      C   22    0.32281      1.99870     3.65550    0.02299     5.67719
      C   23   -0.33928      1.99899     4.31699    0.02330     6.33928
      C   24   -0.19837      1.99909     4.18400    0.01529     6.19837
      H   25    0.21046      0.00000     0.78735    0.00219     0.78954
      C   26   -0.18988      1.99920     4.17608    0.01460     6.18988
      H   27    0.22103      0.00000     0.77773    0.00124     0.77897
      C   28   -0.18265      1.99920     4.16882    0.01463     6.18265
      H   29    0.22257      0.00000     0.77625    0.00118     0.77743
      C   30   -0.19017      1.99919     4.17637    0.01460     6.19017
      H   31    0.22236      0.00000     0.77641    0.00123     0.77764
      C   32   -0.19908      1.99909     4.18470    0.01529     6.19908
      H   33    0.21698      0.00000     0.78119    0.00183     0.78302
      C   34   -0.35367      1.99898     4.33026    0.02443     6.35367
      C   35   -0.18500      1.99909     4.17066    0.01526     6.18500
      H   36    0.22797      0.00000     0.76973    0.00229     0.77203
      C   37   -0.20248      1.99919     4.18872    0.01457     6.20248
      H   38    0.21657      0.00000     0.78210    0.00133     0.78343
      C   39   -0.17603      1.99921     4.16222    0.01461     6.17603
      H   40    0.22112      0.00000     0.77770    0.00118     0.77888
      C   41   -0.19562      1.99919     4.18152    0.01491     6.19562
      H   42    0.22254      0.00000     0.77620    0.00126     0.77746
      C   43   -0.17829      1.99909     4.16297    0.01622     6.17829
      H   44    0.22420      0.00000     0.77357    0.00223     0.77580
      C   45   -0.08048      1.99904     4.05676    0.02469     6.08048
      C   46   -0.19844      1.99911     4.18496    0.01437     6.19844
      H   47    0.20433      0.00000     0.79384    0.00182     0.79567
      C   48   -0.19702      1.99920     4.18294    0.01488     6.19702
      H   49    0.21897      0.00000     0.77980    0.00122     0.78103
      C   50   -0.19287      1.99920     4.17882    0.01485     6.19287
      H   51    0.21872      0.00000     0.78014    0.00113     0.78128
      C   52   -0.19562      1.99921     4.18119    0.01523     6.19562
      H   53    0.21664      0.00000     0.78201    0.00136     0.78336
      C   54   -0.19003      1.99909     4.17511    0.01583     6.19003
      H   55    0.21901      0.00000     0.77810    0.00288     0.78099
      P   56    1.11194      9.99644     3.83976    0.05186    13.88806
      P   57    1.13438      9.99634     3.81772    0.05156    13.86562
     Rh   58   -0.36050     35.98547     9.34701    0.02802    45.36050
      C   59   -0.15846      1.99908     4.13973    0.01965     6.15846
      C   60   -0.17771      1.99908     4.15903    0.01960     6.17771
      C   61   -0.19909      1.99907     4.18062    0.01940     6.19909
      C   62   -0.14660      1.99907     4.12777    0.01976     6.14660
      C   63   -0.42514      1.99936     4.41336    0.01242     6.42514
      H   64    0.23160      0.00000     0.76627    0.00214     0.76840
      H   65    0.23555      0.00000     0.76255    0.00190     0.76445
      C   66   -0.41512      1.99935     4.40314    0.01262     6.41512
      C   67   -0.41985      1.99936     4.40883    0.01166     6.41985
      H   68    0.22473      0.00000     0.77346    0.00181     0.77527
      C   69   -0.41629      1.99935     4.40448    0.01246     6.41629
      H   70    0.22997      0.00000     0.76778    0.00225     0.77003
      H   71    0.22764      0.00000     0.77089    0.00147     0.77236
      H   72    0.21324      0.00000     0.78479    0.00197     0.78676
      H   73    0.23125      0.00000     0.76678    0.00197     0.76875
      H   74    0.20670      0.00000     0.79128    0.00202     0.79330
      H   75    0.21382      0.00000     0.78417    0.00202     0.78618
      H   76    0.22572      0.00000     0.77275    0.00153     0.77428
      H   77    0.21532      0.00000     0.78314    0.00154     0.78468
      H   78    0.23067      0.00000     0.76736    0.00197     0.76933
      O   79   -0.43497      1.99975     6.42031    0.01491     8.43497
      O   80   -0.45493      1.99976     6.43867    0.01650     8.45493
      C   81   -0.25709      1.99927     4.24523    0.01259     6.25709
      H   82    0.18591      0.00000     0.81222    0.00187     0.81409
      H   83    0.18187      0.00000     0.81609    0.00204     0.81813
      H   84    0.19648      0.00000     0.80194    0.00158     0.80352
      C   85   -0.25906      1.99927     4.24705    0.01274     6.25906
      H   86    0.20749      0.00000     0.79133    0.00118     0.79251
      H   87    0.17866      0.00000     0.81923    0.00211     0.82134
      H   88    0.17765      0.00000     0.82023    0.00212     0.82235
 =======================================================================
   * Total *    1.00000    141.94197   235.13294    0.92509   378.00000

 Normal termination of Gaussian 16 at Wed Jan 22 18:38:21 2025.
