 Gaussian 16, Revision B.01,
 Gaussian 16:  ES64L-G16RevB.01 20-Dec-2017

 ------------------------------------------
 # nmr=giao b3lyp/genecp pop=nbo scfcyc=200
 ------------------------------------------

 ---------
 MS-54_SPE
 ---------
 Symbolic Z-matrix:
 Charge =  1 Multiplicity = 1

                         Standard orientation:
 ---------------------------------------------------------------------
 Center     Atomic      Atomic             Coordinates (Angstroms)
 Number     Number       Type             X           Y           Z
 ---------------------------------------------------------------------
      1          6           0       -0.867371    0.112069   -0.899909
      2          1           0       -1.268620   -0.339201   -1.807249
      3          6           0       -1.233629   -2.800931   -0.221279
      4          1           0       -1.272358   -3.481881    0.631371
      5          1           0       -0.308398   -3.012300   -0.756899
      6          6           0        1.593108    1.739191   -1.578479
      7          1           0        1.250448    1.777611   -2.614729
      8          1           0        1.017448    2.479661   -1.025279
      9          6           0        1.019350   -0.895409    3.592341
     10          1           0       -0.013680   -0.616060    3.762771
     11          6           0        1.258671   -2.145599    3.058381
     12          1           0        0.401401   -2.789450    2.888761
     13          6           0        2.585641   -2.861658    2.998361
     14          1           0        2.766212   -3.387668    3.944211
     15          1           0        2.505832   -3.640718    2.236981
     16          6           0        3.789611   -1.952768    2.667741
     17          1           0        4.586641   -2.572877    2.254121
     18          1           0        4.195901   -1.514767    3.579371
     19          6           0        3.468600   -0.852118    1.673461
     20          1           0        3.867320   -0.993417    0.674901
     21          6           0        3.052729    0.424062    1.992051
     22          1           0        3.187309    1.184982    1.232351
     23          6           0        2.760149    0.961812    3.370061
     24          1           0        3.691279    1.308142    3.836101
     25          1           0        2.137428    1.851621    3.253621
     26          6           0        2.045350   -0.035039    4.304581
     27          1           0        2.771150   -0.671358    4.810321
     28          1           0        1.538969    0.526741    5.091371
     29         15           0       -0.997450   -1.093591    0.558911
     30         15           0        1.053659    0.073041   -0.901599
     31         45           0        1.220600   -0.709229    1.333581
     32          6           0        1.510160   -1.130809   -2.225069
     33          6           0        1.105740   -0.933909   -3.550939
     34          6           0        2.267371   -2.260909   -1.908199
     35          6           0        1.458251   -1.847289   -4.536929
     36          1           0        0.516560   -0.066810   -3.825539
     37          6           0        2.619102   -3.175658   -2.897239
     38          1           0        2.579651   -2.424678   -0.884529
     39          6           0        2.216442   -2.969939   -4.211559
     40          1           0        1.142671   -1.683079   -5.559719
     41          1           0        3.208472   -4.046728   -2.639609
     42          1           0        2.491372   -3.679528   -4.981659
     43          6           0       -2.550640   -0.830492    1.510541
     44          6           0       -2.616310   -1.340862    2.812041
     45          6           0       -3.680450   -0.216473    0.963181
     46          6           0       -3.787700   -1.237723    3.553391
     47          1           0       -1.758899   -1.833811    3.252371
     48          6           0       -4.847360   -0.106853    1.711841
     49          1           0       -3.657701    0.180177   -0.041179
     50          6           0       -4.904180   -0.614173    3.005401
     51          1           0       -3.825959   -1.640383    4.557831
     52          1           0       -5.715451    0.373376    1.278051
     53          1           0       -5.815340   -0.527184    3.583861
     54          6           0        3.068488    2.037922   -1.480379
     55          6           0        4.011229    1.365133   -2.264479
     56          6           0        3.515467    3.042852   -0.617449
     57          6           0        5.362548    1.681224   -2.176089
     58          1           0        3.689449    0.599152   -2.958799
     59          6           0        4.866757    3.361783   -0.530429
     60          1           0        2.796757    3.593962   -0.021099
     61          6           0        5.795778    2.677844   -1.306899
     62          1           0        6.077669    1.154324   -2.795689
     63          1           0        5.191277    4.150803    0.136701
     64          1           0        6.847468    2.927395   -1.244959
     65          6           0       -2.429878   -2.983902   -1.114319
     66          6           0       -3.676928   -3.332233   -0.586109
     67          6           0       -2.309219   -2.838332   -2.500409
     68          6           0       -4.773938   -3.519033   -1.418929
     69          1           0       -3.788698   -3.469623    0.482551
     70          6           0       -3.407348   -3.022892   -3.334159
     71          1           0       -1.342749   -2.609061   -2.934359
     72          6           0       -4.644468   -3.359733   -2.795219
     73          1           0       -5.729618   -3.797884   -0.992759
     74          1           0       -3.292768   -2.917712   -4.406039
     75          1           0       -5.498128   -3.511654   -3.443649
     76          6           0       -1.451881    1.486929   -0.728069
     77          6           0       -2.186082    2.061928   -1.770079
     78          6           0       -1.276652    2.260629    0.425101
     79          6           0       -2.720183    3.336538   -1.678549
     80          1           0       -2.358631    1.495288   -2.678879
     81          6           0       -1.799033    3.537299    0.536321
     82          1           0       -0.723232    1.857429    1.266701
     83          6           0       -2.536723    4.122998   -0.519159
     84          1           0       -3.286423    3.719508   -2.514369
     85          1           0       -1.641283    4.080709    1.456071
     86          7           0       -3.048564    5.391838   -0.421209
     87          6           0       -2.917695    6.140228    0.818511
     88          1           0       -3.364315    7.122498    0.689191
     89          1           0       -3.423124    5.645528    1.656071
     90          1           0       -1.867855    6.286539    1.089471
     91          6           0       -3.866835    5.934317   -1.494269
     92          1           0       -4.147735    6.954337   -1.245879
     93          1           0       -3.318285    5.962068   -2.440139
     94          1           0       -4.785874    5.356567   -1.646599
 ---------------------------------------------------------------------

 SCF Done:  E(RB3LYP) =  -2515.40250617     A.U. after   16 cycles

      1  C    Isotropic =   111.0837   Anisotropy =    38.2364

      2  H    Isotropic =    26.7599   Anisotropy =     5.5720

      3  C    Isotropic =   138.4468   Anisotropy =    25.5045

      4  H    Isotropic =    28.8514   Anisotropy =     5.2088

      5  H    Isotropic =    28.9251   Anisotropy =     7.4847

      6  C    Isotropic =   142.9246   Anisotropy =    16.4215

      7  H    Isotropic =    28.4288   Anisotropy =     5.2070

      8  H    Isotropic =    29.3896   Anisotropy =     8.4545

      9  C    Isotropic =    77.5371   Anisotropy =   125.5131

     10  H    Isotropic =    26.4611   Anisotropy =     7.0164

     11  C    Isotropic =    81.9694   Anisotropy =   111.2194

     12  H    Isotropic =    25.9413   Anisotropy =     5.4810

     13  C    Isotropic =   147.5540   Anisotropy =    30.1240

     14  H    Isotropic =    29.0050   Anisotropy =    13.0323

     15  H    Isotropic =    29.0068   Anisotropy =     7.6841

     16  C    Isotropic =   154.2101   Anisotropy =    25.0232

     17  H    Isotropic =    29.9408   Anisotropy =    11.2945

     18  H    Isotropic =    29.8833   Anisotropy =     9.5418

     19  C    Isotropic =    81.0357   Anisotropy =   119.6613

     20  H    Isotropic =    27.3648   Anisotropy =     5.0992

     21  C    Isotropic =    78.6903   Anisotropy =   116.7509

     22  H    Isotropic =    26.5109   Anisotropy =    11.2655

     23  C    Isotropic =   147.4127   Anisotropy =    30.6631

     24  H    Isotropic =    29.2510   Anisotropy =    12.0597

     25  H    Isotropic =    29.0578   Anisotropy =     6.7800

     26  C    Isotropic =   154.2090   Anisotropy =    24.8530

     27  H    Isotropic =    29.7873   Anisotropy =     9.6225

     28  H    Isotropic =    29.8115   Anisotropy =    11.4629

     29  P    Isotropic =   306.7770   Anisotropy =    74.9982

     30  P    Isotropic =   303.0337   Anisotropy =    62.0627

     31  Rh   Isotropic =  -322.0305   Anisotropy =   364.3611

     32  C    Isotropic =    40.9030   Anisotropy =   180.0591

     33  C    Isotropic =    47.4111   Anisotropy =   189.0896

     34  C    Isotropic =    40.4230   Anisotropy =   178.4221

     35  C    Isotropic =    47.3793   Anisotropy =   191.4355

     36  H    Isotropic =    23.7167   Anisotropy =    10.8967

     37  C    Isotropic =    48.8252   Anisotropy =   187.7426

     38  H    Isotropic =    23.2419   Anisotropy =     9.4134

     39  C    Isotropic =    45.0119   Anisotropy =   197.6440

     40  H    Isotropic =    23.7193   Anisotropy =     5.7265

     41  H    Isotropic =    23.9453   Anisotropy =     6.6025

     42  H    Isotropic =    23.7940   Anisotropy =     3.5965

     43  C    Isotropic =    48.0409   Anisotropy =   166.4817

     44  C    Isotropic =    47.6694   Anisotropy =   180.9632

     45  C    Isotropic =    42.4289   Anisotropy =   198.6953

     46  C    Isotropic =    49.7434   Anisotropy =   188.8295

     47  H    Isotropic =    24.7976   Anisotropy =    10.9923

     48  C    Isotropic =    50.6750   Anisotropy =   188.7550

     49  H    Isotropic =    25.9240   Anisotropy =     8.6432

     50  C    Isotropic =    47.0385   Anisotropy =   195.5316

     51  H    Isotropic =    24.2535   Anisotropy =     6.7596

     52  H    Isotropic =    24.9286   Anisotropy =     7.0205

     53  H    Isotropic =    24.3164   Anisotropy =     3.3058

     54  C    Isotropic =    45.6796   Anisotropy =   186.3586

     55  C    Isotropic =    50.8833   Anisotropy =   178.5352

     56  C    Isotropic =    49.0795   Anisotropy =   162.8631

     57  C    Isotropic =    49.7149   Anisotropy =   188.4653

     58  H    Isotropic =    25.5861   Anisotropy =    11.2505

     59  C    Isotropic =    49.3988   Anisotropy =   187.7328

     60  H    Isotropic =    24.7110   Anisotropy =     9.0088

     61  C    Isotropic =    49.6411   Anisotropy =   191.8396

     62  H    Isotropic =    24.7554   Anisotropy =     7.0993

     63  H    Isotropic =    24.4241   Anisotropy =     6.1298

     64  H    Isotropic =    24.4740   Anisotropy =     3.3298

     65  C    Isotropic =    48.5471   Anisotropy =   182.6189

     66  C    Isotropic =    48.6331   Anisotropy =   175.6622

     67  C    Isotropic =    49.6517   Anisotropy =   166.2949

     68  C    Isotropic =    49.8263   Anisotropy =   188.3831

     69  H    Isotropic =    26.1257   Anisotropy =    10.1295

     70  C    Isotropic =    50.6711   Anisotropy =   185.4248

     71  H    Isotropic =    25.6775   Anisotropy =     7.9914

     72  C    Isotropic =    50.1230   Anisotropy =   190.8916

     73  H    Isotropic =    24.8223   Anisotropy =     6.4950

     74  H    Isotropic =    24.4883   Anisotropy =     7.5926

     75  H    Isotropic =    24.4975   Anisotropy =     3.6922

     76  C    Isotropic =    61.6808   Anisotropy =   158.0166

     77  C    Isotropic =    48.0336   Anisotropy =   155.6149

     78  C    Isotropic =    49.3643   Anisotropy =   178.2366

     79  C    Isotropic =    68.6748   Anisotropy =   149.9456

     80  H    Isotropic =    24.8804   Anisotropy =     9.6920

     81  C    Isotropic =    68.9340   Anisotropy =   151.7135

     82  H    Isotropic =    23.9234   Anisotropy =     9.1954

     83  C    Isotropic =    28.5336   Anisotropy =   172.1335

     84  H    Isotropic =    25.2944   Anisotropy =     9.1728

     85  H    Isotropic =    25.3109   Anisotropy =    10.7661

     86  N    Isotropic =   184.0189   Anisotropy =    93.4117

     87  C    Isotropic =   142.7473   Anisotropy =    59.2760

     88  H    Isotropic =    29.1283   Anisotropy =     9.0248

     89  H    Isotropic =    28.9989   Anisotropy =     8.2253

     90  H    Isotropic =    28.7255   Anisotropy =     8.5082

     91  C    Isotropic =   142.6096   Anisotropy =    60.3530

     92  H    Isotropic =    29.1342   Anisotropy =     9.2471

     93  H    Isotropic =    28.7184   Anisotropy =     8.9806

     94  H    Isotropic =    28.9165   Anisotropy =     9.1185

 The electronic state is 1-A.
 Alpha  occ. eigenvalues --  -77.22711 -77.22614 -14.42020 -10.30262 -10.30093
 Alpha  occ. eigenvalues --  -10.29316 -10.28765 -10.28704 -10.28649 -10.28600
 Alpha  occ. eigenvalues --  -10.28474 -10.28384 -10.28208 -10.28176 -10.28095
 Alpha  occ. eigenvalues --  -10.27975 -10.27872 -10.27720 -10.27678 -10.27671
 Alpha  occ. eigenvalues --  -10.27649 -10.27575 -10.27318 -10.27172 -10.27163
 Alpha  occ. eigenvalues --  -10.26945 -10.26932 -10.26824 -10.26821 -10.26818
 Alpha  occ. eigenvalues --  -10.26748 -10.26573 -10.26228 -10.26217 -10.25993
 Alpha  occ. eigenvalues --  -10.25848 -10.25791 -10.25730 -10.25692 -10.25598
 Alpha  occ. eigenvalues --  -10.25516 -10.25496 -10.25492 -10.25377 -10.25331
 Alpha  occ. eigenvalues --  -10.25266  -6.68689  -6.68593  -4.84959  -4.84904
 Alpha  occ. eigenvalues --   -4.84878  -4.84797  -4.84595  -4.84500  -3.30993
 Alpha  occ. eigenvalues --   -2.07901  -2.07212  -2.04425  -1.03566  -0.96504
 Alpha  occ. eigenvalues --   -0.95718  -0.94866  -0.94580  -0.94377  -0.93964
 Alpha  occ. eigenvalues --   -0.89513  -0.88622  -0.87688  -0.87551  -0.86267
 Alpha  occ. eigenvalues --   -0.85549  -0.85282  -0.84833  -0.84369  -0.83910
 Alpha  occ. eigenvalues --   -0.83245  -0.83002  -0.81533  -0.80445  -0.79832
 Alpha  occ. eigenvalues --   -0.79455  -0.78176  -0.77313  -0.74482  -0.72589
 Alpha  occ. eigenvalues --   -0.71309  -0.70928  -0.70304  -0.70010  -0.69676
 Alpha  occ. eigenvalues --   -0.69317  -0.69107  -0.68085  -0.67782  -0.66638
 Alpha  occ. eigenvalues --   -0.65772  -0.65371  -0.64693  -0.62201  -0.61639
 Alpha  occ. eigenvalues --   -0.61258  -0.60650  -0.59964  -0.59751  -0.59309
 Alpha  occ. eigenvalues --   -0.57808  -0.56709  -0.56471  -0.56232  -0.55861
 Alpha  occ. eigenvalues --   -0.55652  -0.55379  -0.55102  -0.55028  -0.54713
 Alpha  occ. eigenvalues --   -0.54529  -0.54323  -0.54189  -0.53735  -0.53259
 Alpha  occ. eigenvalues --   -0.53183  -0.52707  -0.52232  -0.52075  -0.51878
 Alpha  occ. eigenvalues --   -0.51725  -0.51076  -0.51051  -0.50800  -0.50718
 Alpha  occ. eigenvalues --   -0.50543  -0.50263  -0.49874  -0.48963  -0.48847
 Alpha  occ. eigenvalues --   -0.48754  -0.48122  -0.47882  -0.47705  -0.47362
 Alpha  occ. eigenvalues --   -0.47181  -0.46518  -0.46376  -0.46259  -0.45864
 Alpha  occ. eigenvalues --   -0.45564  -0.45481  -0.45085  -0.44903  -0.44397
 Alpha  occ. eigenvalues --   -0.43823  -0.43579  -0.43479  -0.43165  -0.42909
 Alpha  occ. eigenvalues --   -0.42747  -0.42680  -0.42578  -0.42471  -0.42213
 Alpha  occ. eigenvalues --   -0.41108  -0.40618  -0.37380  -0.36910  -0.36190
 Alpha  occ. eigenvalues --   -0.36076  -0.35773  -0.35259  -0.35226  -0.34653
 Alpha  occ. eigenvalues --   -0.34398  -0.34131  -0.33992  -0.33597  -0.33457
 Alpha  occ. eigenvalues --   -0.33043  -0.32598  -0.30154  -0.27786
 Alpha virt. eigenvalues --   -0.15726  -0.13930  -0.13514  -0.11943  -0.11686
 Alpha virt. eigenvalues --   -0.10814  -0.10555  -0.09844  -0.09660  -0.09508
 Alpha virt. eigenvalues --   -0.09212  -0.08796  -0.08656  -0.07240  -0.06284

 Mulliken charges:
               1
     1  C   -0.458386
     2  H    0.271291
     3  C   -0.493621
     4  H    0.202829
     5  H    0.207637
     6  C   -0.502932
     7  H    0.201669
     8  H    0.222086
     9  C   -0.006634
    10  H    0.189139
    11  C   -0.094836
    12  H    0.168982
    13  C   -0.224741
    14  H    0.169508
    15  H    0.130838
    16  C   -0.353257
    17  H    0.166670
    18  H    0.167807
    19  C   -0.047587
    20  H    0.190262
    21  C   -0.069581
    22  H    0.244802
    23  C   -0.233390
    24  H    0.169498
    25  H    0.131453
    26  C   -0.355306
    27  H    0.167851
    28  H    0.166973
    29  P    0.210242
    30  P    0.379307
    31  Rh  -0.597111
    32  C   -0.249350
    33  C   -0.086239
    34  C   -0.031158
    35  C   -0.084288
    36  H    0.142916
    37  C   -0.101205
    38  H    0.157339
    39  C   -0.098275
    40  H    0.134059
    41  H    0.132544
    42  H    0.139357
    43  C   -0.161548
    44  C   -0.101988
    45  C    0.090907
    46  C   -0.131147
    47  H    0.162431
    48  C   -0.136519
    49  H    0.161395
    50  C   -0.073812
    51  H    0.126619
    52  H    0.126744
    53  H    0.134881
    54  C    0.098351
    55  C   -0.109593
    56  C   -0.201799
    57  C   -0.100687
    58  H    0.149445
    59  C   -0.068696
    60  H    0.125991
    61  C   -0.111821
    62  H    0.126242
    63  H    0.125076
    64  H    0.129037
    65  C    0.077922
    66  C   -0.101688
    67  C   -0.148565
    68  C   -0.107544
    69  H    0.129755
    70  C   -0.137467
    71  H    0.188636
    72  C   -0.092942
    73  H    0.125534
    74  H    0.120488
    75  H    0.127898
    76  C   -0.178841
    77  C   -0.144911
    78  C   -0.016236
    79  C   -0.222275
    80  H    0.106061
    81  C   -0.221326
    82  H    0.151879
    83  C    0.161355
    84  H    0.144134
    85  H    0.141321
    86  N   -0.120406
    87  C   -0.282243
    88  H    0.138379
    89  H    0.144705
    90  H    0.138409
    91  C   -0.282671
    92  H    0.136673
    93  H    0.142260
    94  H    0.145033
 Sum of Mulliken charges =   1.00000

 Dipole moment (field-independent basis, Debye):
    X=             -0.3429    Y=              1.0251    Z=              0.8425  Tot=              1.3705
 Quadrupole moment (field-independent basis, Debye-Ang):
   XX=           -239.4633   YY=           -249.0281   ZZ=           -253.2410
   XY=            -17.8925   XZ=              2.0696   YZ=              2.4336

 Summary of Natural Population Analysis:

                                       Natural Population
                Natural  -----------------------------------------------
    Atom  No    Charge         Core      Valence    Rydberg      Total
 -----------------------------------------------------------------------
      C    1   -0.73548      1.99930     4.71351    0.02268     6.73548
      H    2    0.25675      0.00000     0.73980    0.00345     0.74325
      C    3   -0.66037      1.99931     4.64752    0.01354     6.66037
      H    4    0.23847      0.00000     0.75943    0.00210     0.76153
      H    5    0.24390      0.00000     0.75370    0.00239     0.75610
      C    6   -0.67775      1.99930     4.66431    0.01414     6.67775
      H    7    0.23869      0.00000     0.75848    0.00283     0.76131
      H    8    0.25491      0.00000     0.74279    0.00229     0.74509
      C    9   -0.17388      1.99907     4.15562    0.01919     6.17388
      H   10    0.22714      0.00000     0.77065    0.00221     0.77286
      C   11   -0.16577      1.99907     4.14711    0.01958     6.16577
      H   12    0.21989      0.00000     0.77817    0.00194     0.78011
      C   13   -0.41694      1.99935     4.40498    0.01261     6.41694
      H   14    0.23238      0.00000     0.76569    0.00193     0.76762
      H   15    0.21499      0.00000     0.78348    0.00153     0.78501
      C   16   -0.42350      1.99936     4.41238    0.01176     6.42350
      H   17    0.22715      0.00000     0.77135    0.00150     0.77285
      H   18    0.21474      0.00000     0.78329    0.00197     0.78526
      C   19   -0.17491      1.99906     4.15667    0.01918     6.17491
      H   20    0.22758      0.00000     0.77034    0.00208     0.77242
      C   21   -0.16424      1.99909     4.14454    0.02061     6.16424
      H   22    0.23870      0.00000     0.75895    0.00235     0.76130
      C   23   -0.41652      1.99935     4.40438    0.01279     6.41652
      H   24    0.23201      0.00000     0.76611    0.00187     0.76799
      H   25    0.21467      0.00000     0.78378    0.00155     0.78533
      C   26   -0.42248      1.99936     4.41131    0.01182     6.42248
      H   27    0.21398      0.00000     0.78403    0.00199     0.78602
      H   28    0.22756      0.00000     0.77094    0.00150     0.77244
      P   29    1.09030      9.99664     3.86325    0.04981    13.90970
      P   30    1.09106      9.99659     3.86241    0.04994    13.90894
     Rh   31   -0.37970     35.98577     9.36582    0.02812    45.37970
      C   32   -0.34785      1.99899     4.32482    0.02404     6.34785
      C   33   -0.20486      1.99908     4.18998    0.01579     6.20486
      C   34   -0.18888      1.99909     4.17443    0.01536     6.18888
      C   35   -0.19365      1.99919     4.17977    0.01469     6.19365
      H   36    0.21148      0.00000     0.78647    0.00205     0.78852
      C   37   -0.19491      1.99919     4.18106    0.01465     6.19491
      H   38    0.22282      0.00000     0.77521    0.00197     0.77718
      C   39   -0.17857      1.99920     4.16469    0.01468     6.17857
      H   40    0.22326      0.00000     0.77547    0.00127     0.77674
      H   41    0.22208      0.00000     0.77669    0.00123     0.77792
      H   42    0.22386      0.00000     0.77496    0.00118     0.77614
      C   43   -0.34541      1.99898     4.32327    0.02316     6.34541
      C   44   -0.19833      1.99909     4.18385    0.01539     6.19833
      C   45   -0.17528      1.99908     4.15906    0.01713     6.17528
      C   46   -0.19855      1.99919     4.18464    0.01472     6.19855
      H   47    0.20726      0.00000     0.79064    0.00210     0.79274
      C   48   -0.19325      1.99920     4.17867    0.01539     6.19325
      H   49    0.22536      0.00000     0.77207    0.00257     0.77464
      C   50   -0.18027      1.99920     4.16636    0.01471     6.18027
      H   51    0.22046      0.00000     0.77830    0.00125     0.77954
      H   52    0.22059      0.00000     0.77802    0.00138     0.77941
      H   53    0.22096      0.00000     0.77790    0.00114     0.77904
      C   54   -0.04701      1.99909     4.02838    0.01954     6.04701
      C   55   -0.20689      1.99910     4.19377    0.01402     6.20689
      C   56   -0.21017      1.99911     4.19631    0.01476     6.21017
      C   57   -0.18976      1.99921     4.17591    0.01464     6.18976
      H   58    0.21382      0.00000     0.78444    0.00173     0.78618
      C   59   -0.19387      1.99920     4.17991    0.01476     6.19387
      H   60    0.20813      0.00000     0.79025    0.00163     0.79187
      C   61   -0.19870      1.99920     4.18467    0.01483     6.19870
      H   62    0.21686      0.00000     0.78191    0.00124     0.78314
      H   63    0.21687      0.00000     0.78189    0.00124     0.78313
      H   64    0.21857      0.00000     0.78022    0.00121     0.78143
      C   65   -0.05513      1.99909     4.03566    0.02037     6.05513
      C   66   -0.19487      1.99910     4.18139    0.01438     6.19487
      C   67   -0.21371      1.99910     4.20017    0.01444     6.21371
      C   68   -0.19160      1.99920     4.17784    0.01455     6.19160
      H   69    0.21190      0.00000     0.78626    0.00184     0.78810
      C   70   -0.19676      1.99920     4.18283    0.01473     6.19676
      H   71    0.20846      0.00000     0.78950    0.00204     0.79154
      C   72   -0.19789      1.99920     4.18396    0.01473     6.19789
      H   73    0.21706      0.00000     0.78170    0.00124     0.78294
      H   74    0.21437      0.00000     0.78437    0.00126     0.78563
      H   75    0.21766      0.00000     0.78113    0.00121     0.78234
      C   76   -0.12377      1.99904     4.10089    0.02385     6.12377
      C   77   -0.17904      1.99910     4.16486    0.01508     6.17904
      C   78   -0.18915      1.99908     4.17536    0.01471     6.18915
      C   79   -0.26073      1.99913     4.24655    0.01505     6.26073
      H   80    0.20634      0.00000     0.79203    0.00163     0.79366
      C   81   -0.25822      1.99913     4.24375    0.01534     6.25822
      H   82    0.21484      0.00000     0.78318    0.00198     0.78516
      C   83    0.17813      1.99903     3.80669    0.01614     5.82187
      H   84    0.21905      0.00000     0.77928    0.00167     0.78095
      H   85    0.21648      0.00000     0.78180    0.00172     0.78352
      N   86   -0.36254      1.99947     5.34626    0.01681     7.36254
      C   87   -0.39750      1.99935     4.38890    0.00925     6.39750
      H   88    0.21118      0.00000     0.78745    0.00137     0.78882
      H   89    0.19079      0.00000     0.80669    0.00252     0.80921
      H   90    0.19442      0.00000     0.80335    0.00223     0.80558
      C   91   -0.39785      1.99935     4.38924    0.00927     6.39785
      H   92    0.21074      0.00000     0.78790    0.00136     0.78926
      H   93    0.19677      0.00000     0.80107    0.00216     0.80323
      H   94    0.19107      0.00000     0.80643    0.00249     0.80893
 =======================================================================
   * Total *    1.00000    143.94260   241.14527    0.91213   386.00000

 Normal termination of Gaussian 16 at Wed Jan 22 19:11:15 2025.
