 Gaussian 16, Revision B.01,
 Gaussian 16:  ES64L-G16RevB.01 20-Dec-2017

 ------------------------------------------
 # nmr=giao b3lyp/genecp pop=nbo scfcyc=200
 ------------------------------------------

 ---------
 MS-60_SPE
 ---------
 Symbolic Z-matrix:
 Charge =  1 Multiplicity = 1

                         Standard orientation:
 ---------------------------------------------------------------------
 Center     Atomic      Atomic             Coordinates (Angstroms)
 Number     Number       Type             X           Y           Z
 ---------------------------------------------------------------------
      1         15           0        0.526301   -1.288080    0.179740
      2         15           0        0.991791    1.454220   -0.138000
      3          6           0        0.260591   -1.870280    1.907990
      4          6           0        1.231181   -1.616720    2.881050
      5          1           0        2.140671   -1.096890    2.605340
      6          6           0        1.036031   -2.033370    4.194580
      7          1           0        1.796851   -1.838170    4.939980
      8          6           0       -0.127990   -2.708540    4.545220
      9          1           0       -0.276680   -3.039800    5.565310
     10          6           0       -1.098240   -2.968850    3.580500
     11          1           0       -2.001390   -3.502480    3.849050
     12          6           0       -0.907500   -2.553800    2.267870
     13          1           0       -1.658350   -2.781360    1.521510
     14          6           0       -0.129060   -2.649510   -0.874830
     15          6           0        0.374120   -3.938080   -0.647790
     16          1           0        1.045470   -4.126990    0.181620
     17          6           0        0.000460   -4.992920   -1.470060
     18          1           0        0.389860   -5.985300   -1.280150
     19          6           0       -0.872470   -4.773950   -2.532650
     20          1           0       -1.163750   -5.596360   -3.173790
     21          6           0       -1.373330   -3.498260   -2.762230
     22          1           0       -2.061440   -3.322630   -3.579570
     23          6           0       -1.003440   -2.434890   -1.942270
     24          1           0       -1.433349   -1.460020   -2.126980
     25          6           0       -0.495409    0.284660   -0.067520
     26          1           0       -0.794509    0.253420   -1.120490
     27          6           0       -1.750359    0.603690    0.740020
     28          1           0       -1.759549    0.081110    1.698380
     29          1           0       -1.775539    1.671590    0.977400
     30          6           0        1.079411    2.512560    1.367170
     31          6           0        0.657061    2.050950    2.617760
     32          1           0        0.190871    1.080730    2.719560
     33          6           0        0.840501    2.829870    3.755190
     34          1           0        0.500341    2.462400    4.715350
     35          6           0        1.458972    4.072140    3.662550
     36          1           0        1.600312    4.677120    4.549130
     37          6           0        1.897512    4.532310    2.425230
     38          1           0        2.383182    5.496690    2.344240
     39          6           0        1.712701    3.759160    1.284660
     40          1           0        2.054632    4.137340    0.329720
     41          6           0        0.609501    2.592380   -1.534410
     42          6           0       -0.242549    3.691960   -1.381210
     43          1           0       -0.634919    3.951250   -0.406380
     44          6           0       -0.583038    4.469450   -2.481420
     45          1           0       -1.241608    5.319460   -2.354250
     46          6           0       -0.082238    4.157430   -3.742250
     47          1           0       -0.349628    4.766120   -4.596740
     48          6           0        0.759621    3.062760   -3.902820
     49          1           0        1.149331    2.815450   -4.882240
     50          6           0        1.105031    2.282720   -2.804120
     51          1           0        1.754071    1.425560   -2.933770
     52         45           0        2.585351   -0.260100   -0.321160
     53          6           0        4.057621   -1.966161    0.089540
     54          6           0        3.660471   -2.019471   -1.229430
     55          6           0        4.349571    0.827149   -1.306200
     56          6           0        4.459521    0.934239    0.063430
     57          6           0        5.375571   -1.409841    0.595300
     58          1           0        3.521990   -2.599971    0.788020
     59          1           0        2.858250   -2.706090   -1.479130
     60          6           0        4.408201   -1.479241   -2.423370
     61          6           0        5.128451   -0.134531   -2.184180
     62          1           0        3.882871    1.657989   -1.822990
     63          6           0        5.313851    0.086109    0.973120
     64          1           0        4.093911    1.848229    0.520550
     65          1           0        5.674431   -1.975931    1.479170
     66          1           0        6.155011   -1.582321   -0.146460
     67          1           0        5.129520   -2.228421   -2.773460
     68          1           0        3.688061   -1.360201   -3.235810
     69          1           0        6.116741   -0.302941   -1.757000
     70          1           0        5.298941    0.340829   -3.151620
     71          1           0        4.916021    0.184009    1.985650
     72          1           0        6.329401    0.499949    1.012390
     73          6           0       -3.040749    0.291650   -0.040770
     74          8           0       -3.030949    0.061790   -1.238200
     75          6           0       -5.510369    0.216571    0.217140
     76          6           0       -6.330489    1.353091    0.277600
     77          6           0       -5.976999   -1.009069   -0.275940
     78          6           0       -7.642659    1.244841   -0.179360
     79          6           0       -7.293879   -1.068579   -0.733910
     80          6           0       -8.121159    0.044441   -0.687190
     81          1           0       -8.289749    2.112871   -0.142490
     82          1           0       -7.673679   -2.006119   -1.121750
     83          1           0       -9.141609   -0.024179   -1.042980
     84          6           0       -5.105870   -2.235249   -0.312730
     85          1           0       -4.337960   -2.146579   -1.083770
     86          1           0       -4.596400   -2.390289    0.641470
     87          1           0       -5.702060   -3.122369   -0.524390
     88          6           0       -5.814409    2.663921    0.814020
     89          1           0       -5.571739    2.606191    1.880200
     90          1           0       -4.910139    2.983541    0.290530
     91          1           0       -6.563229    3.446441    0.697650
     92          7           0       -4.168039    0.323081    0.719460
     93          1           0       -4.064239    0.617211    1.679830
 ---------------------------------------------------------------------

 SCF Done:  E(RB3LYP) =  -2589.47548357     A.U. after   17 cycles

      1  P    Isotropic =   288.1499   Anisotropy =    67.8914

      2  P    Isotropic =   286.6612   Anisotropy =   100.8260

      3  C    Isotropic =    46.4631   Anisotropy =   172.3577

      4  C    Isotropic =    40.0426   Anisotropy =   182.4294

      5  H    Isotropic =    23.0714   Anisotropy =     9.2001

      6  C    Isotropic =    49.4521   Anisotropy =   187.5660

      7  H    Isotropic =    23.9616   Anisotropy =     6.6573

      8  C    Isotropic =    44.9717   Anisotropy =   198.2979

      9  H    Isotropic =    23.8576   Anisotropy =     3.5597

     10  C    Isotropic =    48.8733   Anisotropy =   189.0542

     11  H    Isotropic =    24.1357   Anisotropy =     6.6263

     12  C    Isotropic =    43.0869   Anisotropy =   192.8391

     13  H    Isotropic =    24.5546   Anisotropy =    10.0116

     14  C    Isotropic =    45.8210   Anisotropy =   166.4006

     15  C    Isotropic =    48.3356   Anisotropy =   185.9678

     16  H    Isotropic =    25.0188   Anisotropy =    11.5055

     17  C    Isotropic =    49.0397   Anisotropy =   189.7317

     18  H    Isotropic =    24.3118   Anisotropy =     6.5049

     19  C    Isotropic =    46.6417   Anisotropy =   195.7261

     20  H    Isotropic =    24.1072   Anisotropy =     3.3464

     21  C    Isotropic =    48.5132   Anisotropy =   191.4880

     22  H    Isotropic =    24.0562   Anisotropy =     6.7284

     23  C    Isotropic =    46.1453   Anisotropy =   199.5028

     24  H    Isotropic =    23.0967   Anisotropy =     9.4233

     25  C    Isotropic =   120.0585   Anisotropy =    58.6880

     26  H    Isotropic =    26.0677   Anisotropy =     6.4918

     27  C    Isotropic =   147.2665   Anisotropy =    47.3794

     28  H    Isotropic =    29.3573   Anisotropy =     6.0359

     29  H    Isotropic =    29.3523   Anisotropy =     6.6743

     30  C    Isotropic =    46.8469   Anisotropy =   166.4544

     31  C    Isotropic =    47.8003   Anisotropy =   186.5287

     32  H    Isotropic =    24.8639   Anisotropy =     7.6862

     33  C    Isotropic =    49.9223   Anisotropy =   188.5920

     34  H    Isotropic =    24.3616   Anisotropy =     7.8633

     35  C    Isotropic =    46.8404   Anisotropy =   195.7190

     36  H    Isotropic =    24.0912   Anisotropy =     3.8637

     37  C    Isotropic =    48.1552   Anisotropy =   191.2746

     38  H    Isotropic =    24.2016   Anisotropy =     6.0099

     39  C    Isotropic =    46.5327   Anisotropy =   190.8708

     40  H    Isotropic =    24.6479   Anisotropy =    11.6262

     41  C    Isotropic =    44.4239   Anisotropy =   175.7128

     42  C    Isotropic =    47.3883   Anisotropy =   187.5890

     43  H    Isotropic =    24.5245   Anisotropy =    11.5851

     44  C    Isotropic =    48.6431   Anisotropy =   189.9051

     45  H    Isotropic =    24.2579   Anisotropy =     6.3253

     46  C    Isotropic =    44.5965   Anisotropy =   198.6503

     47  H    Isotropic =    23.9650   Anisotropy =     3.6213

     48  C    Isotropic =    48.4034   Anisotropy =   189.3443

     49  H    Isotropic =    23.9884   Anisotropy =     6.8611

     50  C    Isotropic =    43.5990   Anisotropy =   179.4654

     51  H    Isotropic =    23.4520   Anisotropy =    10.1249

     52  Rh   Isotropic =  -301.1695   Anisotropy =   335.1989

     53  C    Isotropic =    79.8191   Anisotropy =   120.9357

     54  C    Isotropic =    71.2244   Anisotropy =   125.8198

     55  C    Isotropic =    78.3829   Anisotropy =   122.0771

     56  C    Isotropic =    73.3071   Anisotropy =   122.0849

     57  C    Isotropic =   153.9670   Anisotropy =    25.0356

     58  H    Isotropic =    26.8778   Anisotropy =     5.7550

     59  H    Isotropic =    26.7914   Anisotropy =     4.9583

     60  C    Isotropic =   148.3251   Anisotropy =    29.1201

     61  C    Isotropic =   154.0213   Anisotropy =    24.8263

     62  H    Isotropic =    26.8181   Anisotropy =     6.1119

     63  C    Isotropic =   147.9824   Anisotropy =    28.8114

     64  H    Isotropic =    26.7575   Anisotropy =     3.9571

     65  H    Isotropic =    29.8525   Anisotropy =    11.3644

     66  H    Isotropic =    29.7866   Anisotropy =     9.9558

     67  H    Isotropic =    29.2417   Anisotropy =    12.6048

     68  H    Isotropic =    29.1861   Anisotropy =     7.0360

     69  H    Isotropic =    29.7732   Anisotropy =     9.8702

     70  H    Isotropic =    29.8007   Anisotropy =    11.6217

     71  H    Isotropic =    29.3511   Anisotropy =     6.9945

     72  H    Isotropic =    29.2500   Anisotropy =    12.6827

     73  C    Isotropic =    14.0484   Anisotropy =   112.5000

     74  O    Isotropic =   -76.1607   Anisotropy =   647.4200

     75  C    Isotropic =    44.2640   Anisotropy =   119.3559

     76  C    Isotropic =    44.4537   Anisotropy =   180.4267

     77  C    Isotropic =    39.9173   Anisotropy =   187.5196

     78  C    Isotropic =    50.5934   Anisotropy =   156.4939

     79  C    Isotropic =    49.9599   Anisotropy =   157.3006

     80  C    Isotropic =    49.8985   Anisotropy =   185.1085

     81  H    Isotropic =    24.7040   Anisotropy =     6.9923

     82  H    Isotropic =    24.6426   Anisotropy =     8.0314

     83  H    Isotropic =    24.5162   Anisotropy =     3.8990

     84  C    Isotropic =   164.1342   Anisotropy =    34.1397

     85  H    Isotropic =    29.5883   Anisotropy =     9.9191

     86  H    Isotropic =    30.1170   Anisotropy =     5.7525

     87  H    Isotropic =    30.0715   Anisotropy =     9.0585

     88  C    Isotropic =   164.1637   Anisotropy =    28.6027

     89  H    Isotropic =    29.9990   Anisotropy =     6.4945

     90  H    Isotropic =    29.9921   Anisotropy =     7.4273

     91  H    Isotropic =    29.8754   Anisotropy =     9.6799

     92  N    Isotropic =   115.7818   Anisotropy =   115.1466

     93  H    Isotropic =    26.2656   Anisotropy =     8.0205

 The electronic state is 1-A.
 Alpha  occ. eigenvalues --  -77.23583 -77.23441 -19.18748 -14.43643 -10.36987
 Alpha  occ. eigenvalues --  -10.30736 -10.29752 -10.29613 -10.29335 -10.29214
 Alpha  occ. eigenvalues --  -10.28967 -10.28796 -10.28687 -10.28540 -10.28497
 Alpha  occ. eigenvalues --  -10.28491 -10.28472 -10.28469 -10.28357 -10.28219
 Alpha  occ. eigenvalues --  -10.27980 -10.27950 -10.27916 -10.27814 -10.27790
 Alpha  occ. eigenvalues --  -10.27648 -10.27630 -10.27562 -10.27494 -10.27298
 Alpha  occ. eigenvalues --  -10.27252 -10.27190 -10.27166 -10.27163 -10.27105
 Alpha  occ. eigenvalues --  -10.27059 -10.26997 -10.26852 -10.26713 -10.26592
 Alpha  occ. eigenvalues --  -10.25769 -10.25595 -10.24449 -10.23967 -10.23830
 Alpha  occ. eigenvalues --  -10.23737 -10.23432  -6.69539  -6.69399  -4.85816
 Alpha  occ. eigenvalues --   -4.85771  -4.85678  -4.85624  -4.85440  -4.85305
 Alpha  occ. eigenvalues --   -3.31183  -2.08079  -2.07424  -2.04645  -1.13751
 Alpha  occ. eigenvalues --   -1.02551  -0.96845  -0.96621  -0.95904  -0.95545
 Alpha  occ. eigenvalues --   -0.94126  -0.93042  -0.90986  -0.88856  -0.87725
 Alpha  occ. eigenvalues --   -0.87158  -0.86550  -0.85901  -0.85507  -0.85290
 Alpha  occ. eigenvalues --   -0.85025  -0.84706  -0.84651  -0.84381  -0.83196
 Alpha  occ. eigenvalues --   -0.80302  -0.79916  -0.77534  -0.77033  -0.75490
 Alpha  occ. eigenvalues --   -0.75231  -0.72529  -0.71381  -0.71173  -0.70828
 Alpha  occ. eigenvalues --   -0.70321  -0.70248  -0.70088  -0.69964  -0.69322
 Alpha  occ. eigenvalues --   -0.66869  -0.66653  -0.65779  -0.65527  -0.64753
 Alpha  occ. eigenvalues --   -0.62556  -0.62223  -0.61959  -0.61266  -0.61011
 Alpha  occ. eigenvalues --   -0.60293  -0.59666  -0.58522  -0.57285  -0.56670
 Alpha  occ. eigenvalues --   -0.56410  -0.56118  -0.56054  -0.55938  -0.55703
 Alpha  occ. eigenvalues --   -0.55378  -0.55267  -0.54990  -0.54932  -0.54481
 Alpha  occ. eigenvalues --   -0.53920  -0.53368  -0.53100  -0.52820  -0.52737
 Alpha  occ. eigenvalues --   -0.52589  -0.52395  -0.52249  -0.52103  -0.51704
 Alpha  occ. eigenvalues --   -0.51196  -0.50797  -0.49944  -0.49325  -0.49130
 Alpha  occ. eigenvalues --   -0.48705  -0.48434  -0.48284  -0.47905  -0.47785
 Alpha  occ. eigenvalues --   -0.47734  -0.47684  -0.47456  -0.47177  -0.46900
 Alpha  occ. eigenvalues --   -0.46727  -0.45789  -0.45721  -0.45590  -0.45220
 Alpha  occ. eigenvalues --   -0.44976  -0.44804  -0.44754  -0.44189  -0.43647
 Alpha  occ. eigenvalues --   -0.43181  -0.43114  -0.42831  -0.42480  -0.42283
 Alpha  occ. eigenvalues --   -0.41953  -0.41943  -0.41737  -0.41060  -0.37911
 Alpha  occ. eigenvalues --   -0.37305  -0.36941  -0.36650  -0.36465  -0.36113
 Alpha  occ. eigenvalues --   -0.36000  -0.35590  -0.35547  -0.35352  -0.35081
 Alpha  occ. eigenvalues --   -0.34820  -0.34203  -0.33804  -0.33329  -0.31543
 Alpha  occ. eigenvalues --   -0.31337  -0.30352
 Alpha virt. eigenvalues --   -0.16178  -0.14555  -0.13692  -0.13072  -0.12505
 Alpha virt. eigenvalues --   -0.12315  -0.11538  -0.10770  -0.10467  -0.10031
 Alpha virt. eigenvalues --   -0.09059  -0.08970  -0.07580  -0.07559  -0.07190

 Mulliken charges:
               1
     1  P    0.466602
     2  P    0.425767
     3  C   -0.392001
     4  C   -0.020558
     5  H    0.187981
     6  C   -0.104810
     7  H    0.132513
     8  C   -0.092303
     9  H    0.138996
    10  C   -0.094812
    11  H    0.137696
    12  C   -0.038561
    13  H    0.173955
    14  C   -0.155894
    15  C   -0.110519
    16  H    0.152578
    17  C   -0.084383
    18  H    0.131541
    19  C   -0.095572
    20  H    0.135609
    21  C   -0.124215
    22  H    0.135417
    23  C   -0.068055
    24  H    0.168856
    25  C   -0.615805
    26  H    0.267730
    27  C   -0.243606
    28  H    0.182574
    29  H    0.200982
    30  C   -0.122785
    31  C   -0.081661
    32  H    0.169994
    33  C   -0.128800
    34  H    0.129820
    35  C   -0.094999
    36  H    0.138310
    37  C   -0.089503
    38  H    0.135964
    39  C   -0.130342
    40  H    0.166168
    41  C   -0.216491
    42  C   -0.079464
    43  H    0.151151
    44  C   -0.090074
    45  H    0.133117
    46  C   -0.087469
    47  H    0.138521
    48  C   -0.101487
    49  H    0.130334
    50  C   -0.073170
    51  H    0.177721
    52  Rh  -0.670218
    53  C   -0.046900
    54  C   -0.091749
    55  C   -0.050038
    56  C   -0.092461
    57  C   -0.351096
    58  H    0.188254
    59  H    0.215486
    60  C   -0.224660
    61  C   -0.345380
    62  H    0.199608
    63  C   -0.226837
    64  H    0.201521
    65  H    0.167818
    66  H    0.167169
    67  H    0.171693
    68  H    0.133463
    69  H    0.166383
    70  H    0.167781
    71  H    0.132384
    72  H    0.171774
    73  C    0.236249
    74  O   -0.345726
    75  C    0.202933
    76  C   -0.004186
    77  C    0.034247
    78  C   -0.157682
    79  C   -0.147660
    80  C   -0.033610
    81  H    0.108731
    82  H    0.106219
    83  H    0.120316
    84  C   -0.478872
    85  H    0.167622
    86  H    0.122612
    87  H    0.141606
    88  C   -0.454894
    89  H    0.125970
    90  H    0.136765
    91  H    0.146746
    92  N   -0.237821
    93  H    0.253878
 Sum of Mulliken charges =   1.00000

 Dipole moment (field-independent basis, Debye):
    X=              3.7274    Y=              0.7695    Z=              2.6424  Tot=              4.6334
 Quadrupole moment (field-independent basis, Debye-Ang):
   XX=           -241.7463   YY=           -252.4024   ZZ=           -263.3564
   XY=             -2.1466   XZ=             -6.6125   YZ=              1.0040

 Summary of Natural Population Analysis:

                                       Natural Population
                Natural  -----------------------------------------------
    Atom  No    Charge         Core      Valence    Rydberg      Total
 -----------------------------------------------------------------------
      P    1    1.13120      9.99637     3.82085    0.05158    13.86880
      P    2    1.13662      9.99636     3.81464    0.05239    13.86338
      C    3   -0.35300      1.99899     4.32964    0.02437     6.35300
      C    4   -0.18983      1.99909     4.17508    0.01566     6.18983
      H    5    0.22523      0.00000     0.77272    0.00205     0.77477
      C    6   -0.19963      1.99919     4.18579    0.01465     6.19963
      H    7    0.22163      0.00000     0.77713    0.00123     0.77837
      C    8   -0.17641      1.99921     4.16262    0.01458     6.17641
      H    9    0.22321      0.00000     0.77562    0.00117     0.77679
      C   10   -0.19519      1.99920     4.18133    0.01467     6.19519
      H   11    0.22356      0.00000     0.77520    0.00124     0.77644
      C   12   -0.19396      1.99909     4.17876    0.01610     6.19396
      H   13    0.22307      0.00000     0.77442    0.00252     0.77693
      C   14   -0.34590      1.99899     4.32360    0.02332     6.34590
      C   15   -0.20347      1.99909     4.18916    0.01522     6.20347
      H   16    0.21528      0.00000     0.78293    0.00179     0.78472
      C   17   -0.19401      1.99919     4.18010    0.01472     6.19401
      H   18    0.22127      0.00000     0.77749    0.00124     0.77873
      C   19   -0.18261      1.99920     4.16877    0.01464     6.18261
      H   20    0.22152      0.00000     0.77730    0.00118     0.77848
      C   21   -0.18875      1.99920     4.17483    0.01472     6.18875
      H   22    0.22287      0.00000     0.77590    0.00123     0.77713
      C   23   -0.19724      1.99909     4.18256    0.01560     6.19724
      H   24    0.23891      0.00000     0.75898    0.00211     0.76109
      C   25   -0.75837      1.99937     4.73296    0.02604     6.75837
      H   26    0.29701      0.00000     0.70000    0.00300     0.70299
      C   27   -0.51616      1.99926     4.50141    0.01549     6.51616
      H   28    0.23050      0.00000     0.76677    0.00274     0.76950
      H   29    0.23931      0.00000     0.75790    0.00279     0.76069
      C   30   -0.34461      1.99899     4.32212    0.02351     6.34461
      C   31   -0.20032      1.99909     4.18619    0.01503     6.20032
      H   32    0.21424      0.00000     0.78361    0.00215     0.78576
      C   33   -0.19332      1.99920     4.17947    0.01466     6.19332
      H   34    0.22022      0.00000     0.77852    0.00125     0.77978
      C   35   -0.18269      1.99920     4.16880    0.01469     6.18269
      H   36    0.22281      0.00000     0.77602    0.00117     0.77719
      C   37   -0.19042      1.99920     4.17654    0.01468     6.19042
      H   38    0.22323      0.00000     0.77555    0.00122     0.77677
      C   39   -0.20010      1.99910     4.18578    0.01522     6.20010
      H   40    0.22223      0.00000     0.77600    0.00177     0.77777
      C   41   -0.34862      1.99899     4.32618    0.02345     6.34862
      C   42   -0.19066      1.99909     4.17578    0.01579     6.19066
      H   43    0.21711      0.00000     0.78094    0.00196     0.78289
      C   44   -0.19013      1.99920     4.17637    0.01456     6.19013
      H   45    0.22217      0.00000     0.77659    0.00124     0.77783
      C   46   -0.17310      1.99921     4.15941    0.01448     6.17310
      H   47    0.22290      0.00000     0.77592    0.00117     0.77710
      C   48   -0.19275      1.99920     4.17904    0.01452     6.19275
      H   49    0.22138      0.00000     0.77739    0.00123     0.77862
      C   50   -0.18734      1.99910     4.17292    0.01532     6.18734
      H   51    0.22049      0.00000     0.77759    0.00192     0.77951
     Rh   52   -0.40011     35.98580     9.38600    0.02830    45.40011
      C   53   -0.17949      1.99907     4.16086    0.01957     6.17949
      C   54   -0.15667      1.99908     4.13788    0.01972     6.15667
      C   55   -0.17888      1.99907     4.16026    0.01955     6.17888
      C   56   -0.15662      1.99908     4.13780    0.01974     6.15662
      C   57   -0.42368      1.99936     4.41247    0.01185     6.42368
      H   58    0.22453      0.00000     0.77350    0.00197     0.77547
      H   59    0.23344      0.00000     0.76434    0.00222     0.76656
      C   60   -0.41866      1.99935     4.40671    0.01259     6.41866
      C   61   -0.42364      1.99936     4.41247    0.01181     6.42364
      H   62    0.22629      0.00000     0.77155    0.00215     0.77371
      C   63   -0.41816      1.99935     4.40620    0.01262     6.41816
      H   64    0.22898      0.00000     0.76889    0.00213     0.77102
      H   65    0.22745      0.00000     0.77108    0.00148     0.77255
      H   66    0.21498      0.00000     0.78305    0.00197     0.78502
      H   67    0.23384      0.00000     0.76427    0.00189     0.76616
      H   68    0.21770      0.00000     0.78076    0.00154     0.78230
      H   69    0.21444      0.00000     0.78357    0.00199     0.78556
      H   70    0.22779      0.00000     0.77070    0.00151     0.77221
      H   71    0.21520      0.00000     0.78325    0.00155     0.78480
      H   72    0.23379      0.00000     0.76430    0.00190     0.76621
      C   73    0.65139      1.99942     3.31034    0.03884     5.34861
      O   74   -0.60629      1.99976     6.59417    0.01236     8.60629
      C   75    0.10884      1.99875     3.87489    0.01751     5.89116
      C   76   -0.01259      1.99904     3.99906    0.01449     6.01259
      C   77    0.00531      1.99903     3.98086    0.01479     5.99469
      C   78   -0.20275      1.99912     4.18951    0.01412     6.20275
      C   79   -0.20131      1.99912     4.18816    0.01404     6.20131
      C   80   -0.18089      1.99920     4.16702    0.01466     6.18089
      H   81    0.21115      0.00000     0.78747    0.00138     0.78885
      H   82    0.21078      0.00000     0.78785    0.00138     0.78922
      H   83    0.21643      0.00000     0.78234    0.00123     0.78357
      C   84   -0.61803      1.99940     4.61148    0.00715     6.61803
      H   85    0.23170      0.00000     0.76641    0.00189     0.76830
      H   86    0.20667      0.00000     0.79181    0.00152     0.79333
      H   87    0.21601      0.00000     0.78274    0.00125     0.78399
      C   88   -0.61433      1.99941     4.60780    0.00712     6.61433
      H   89    0.20537      0.00000     0.79310    0.00153     0.79463
      H   90    0.21403      0.00000     0.78460    0.00138     0.78597
      H   91    0.22320      0.00000     0.77556    0.00124     0.77680
      N   92   -0.58769      1.99942     5.57191    0.01636     7.58769
      H   93    0.39113      0.00000     0.60585    0.00302     0.60887
 =======================================================================
   * Total *    1.00000    145.94164   245.11405    0.94431   392.00000

 Normal termination of Gaussian 16 at Wed Jan 22 19:58:39 2025.
