 Gaussian 16, Revision B.01,
 Gaussian 16:  ES64L-G16RevB.01 20-Dec-2017

 ------------------------------------------
 # nmr=giao b3lyp/genecp pop=nbo scfcyc=200
 ------------------------------------------

 ---------
 MS-67_SPE
 ---------
 Symbolic Z-matrix:
 Charge =  1 Multiplicity = 1

                         Standard orientation:
 ---------------------------------------------------------------------
 Center     Atomic      Atomic             Coordinates (Angstroms)
 Number     Number       Type             X           Y           Z
 ---------------------------------------------------------------------
      1         15           0        0.818460   -1.108440   -0.566980
      2         15           0        1.560720    1.322089    0.615050
      3          6           0        0.189099   -2.479660    0.485980
      4          6           0        0.992989   -2.985000    1.512040
      5          1           0        1.985909   -2.579331    1.662880
      6          6           0        0.526339   -4.009630    2.330340
      7          1           0        1.157999   -4.400250    3.118430
      8          6           0       -0.743801   -4.537420    2.126150
      9          1           0       -1.104471   -5.340750    2.756400
     10          6           0       -1.549721   -4.037370    1.105980
     11          1           0       -2.537921   -4.449230    0.943990
     12          6           0       -1.091471   -3.011650    0.287600
     13          1           0       -1.723131   -2.626290   -0.502470
     14          6           0        0.329060   -1.529910   -2.291050
     15          6           0        0.439999   -2.857990   -2.716290
     16          1           0        0.697749   -3.640020   -2.013310
     17          6           0        0.198819   -3.192910   -4.044520
     18          1           0        0.276499   -4.226480   -4.357910
     19          6           0       -0.146491   -2.207270   -4.962190
     20          1           0       -0.339171   -2.468950   -5.994890
     21          6           0       -0.246890   -0.883310   -4.546770
     22          1           0       -0.522300   -0.111350   -5.254210
     23          6           0       -0.004620   -0.543640   -3.221460
     24          1           0       -0.099110    0.492250   -2.925550
     25          6           0       -0.034370    0.489980   -0.001250
     26          1           0       -0.262420    1.034140   -0.919140
     27          6           0       -1.284060    0.477420    0.876810
     28          1           0       -1.220500   -0.295960    1.645660
     29          1           0       -1.362710    1.429250    1.409250
     30          6           0        1.512080    1.557390    2.443920
     31          6           0        1.107190    0.508650    3.278560
     32          1           0        0.747910   -0.422250    2.859610
     33          6           0        1.173630    0.641150    4.659990
     34          1           0        0.847540   -0.175220    5.292360
     35          6           0        1.663680    1.813019    5.229290
     36          1           0        1.717420    1.913609    6.305870
     37          6           0        2.090730    2.850009    4.408390
     38          1           0        2.481770    3.761789    4.842240
     39          6           0        2.018830    2.725319    3.024100
     40          1           0        2.356770    3.543929    2.403130
     41          6           0        1.481740    3.006370   -0.128710
     42          6           0        0.581500    3.973870    0.335420
     43          1           0       -0.035510    3.779050    1.203410
     44          6           0        0.481930    5.202050   -0.306210
     45          1           0       -0.213850    5.945340    0.062450
     46          6           0        1.274190    5.477900   -1.417990
     47          1           0        1.195810    6.437090   -1.913990
     48          6           0        2.163910    4.520069   -1.889640
     49          1           0        2.779590    4.729289   -2.755390
     50          6           0        2.266900    3.288409   -1.249390
     51          1           0        2.951880    2.539899   -1.626540
     52         45           0        3.005590   -0.327521   -0.208060
     53          6           0        4.212989   -2.249321   -0.547190
     54          6           0        4.081899   -1.581051   -1.745220
     55          6           0        5.030830    0.769899   -0.264830
     56          6           0        4.871210    0.175769    0.967340
     57          6           0        5.445619   -2.251931    0.338040
     58          1           0        3.497319   -3.040111   -0.350820
     59          1           0        3.287279   -1.905691   -2.409180
     60          6           0        5.092010   -0.663891   -2.388770
     61          6           0        5.874270    0.234949   -1.406830
     62          1           0        4.757190    1.816449   -0.336660
     63          6           0        5.439460   -1.147451    1.417130
     64          1           0        4.503730    0.801329    1.774590
     65          1           0        5.510759   -3.220071    0.837600
     66          1           0        6.340639   -2.174871   -0.278640
     67          1           0        5.794820   -1.257351   -2.987220
     68          1           0        4.556180   -0.033781   -3.102200
     69          1           0        6.737070   -0.298001   -1.008060
     70          1           0        6.278980    1.081369   -1.964420
     71          1           0        4.851040   -1.485581    2.273090
     72          1           0        6.457390   -0.997201    1.798520
     73          6           0       -2.563370    0.233610    0.068650
     74          8           0       -2.527400   -0.240660   -1.055110
     75          6           0       -5.038590    0.367920    0.195700
     76          6           0       -5.533940    1.211360   -0.811980
     77          6           0       -5.812810   -0.669830    0.748600
     78          6           0       -6.833570    0.982680   -1.268350
     79          6           0       -7.110160   -0.842800    0.269330
     80          6           0       -7.616080   -0.028120   -0.734070
     81          1           0       -7.240880    1.611190   -2.050200
     82          1           0       -7.732961   -1.628350    0.676150
     83          1           0       -8.623870   -0.183480   -1.099330
     84          6           0       -5.273971   -1.556310    1.864020
     85          1           0       -4.183830   -1.532130    1.800500
     86          6           0       -4.721220    2.350150   -1.410660
     87          1           0       -3.771790    2.398550   -0.876470
     88          6           0       -4.402030    2.093730   -2.892980
     89          1           0       -3.883630    1.142950   -3.018920
     90          1           0       -5.312970    2.070060   -3.495380
     91          1           0       -3.767140    2.891160   -3.287730
     92          6           0       -5.415520    3.708730   -1.217670
     93          1           0       -5.630640    3.902250   -0.164620
     94          1           0       -4.778110    4.515140   -1.588150
     95          1           0       -6.359610    3.760870   -1.763360
     96          6           0       -5.669690   -1.004550    3.246580
     97          1           0       -5.336140    0.026980    3.385720
     98          1           0       -6.754670   -1.013420    3.371440
     99          1           0       -5.233911   -1.609960    4.045050
    100          6           0       -5.693261   -3.026600    1.729700
    101          1           0       -5.451311   -3.421290    0.741260
    102          1           0       -5.175191   -3.631530    2.477360
    103          1           0       -6.763521   -3.164910    1.893160
    104          7           0       -3.710120    0.580320    0.711300
    105          1           0       -3.628730    0.929900    1.654370
 ---------------------------------------------------------------------

 SCF Done:  E(RB3LYP) =  -2746.77490466     A.U. after   18 cycles

      1  P    Isotropic =   290.4660   Anisotropy =    91.9202

      2  P    Isotropic =   296.2539   Anisotropy =   108.3199

      3  C    Isotropic =    49.0525   Anisotropy =   167.6334

      4  C    Isotropic =    40.1596   Anisotropy =   180.6301

      5  H    Isotropic =    23.0285   Anisotropy =     9.4396

      6  C    Isotropic =    49.8821   Anisotropy =   185.9592

      7  H    Isotropic =    23.8754   Anisotropy =     6.6428

      8  C    Isotropic =    44.5795   Anisotropy =   198.4848

      9  H    Isotropic =    23.8115   Anisotropy =     4.1321

     10  C    Isotropic =    48.2018   Anisotropy =   191.2183

     11  H    Isotropic =    24.1254   Anisotropy =     5.2616

     12  C    Isotropic =    42.1322   Anisotropy =   200.1146

     13  H    Isotropic =    24.0855   Anisotropy =    10.0484

     14  C    Isotropic =    44.6339   Anisotropy =   171.0187

     15  C    Isotropic =    49.4275   Anisotropy =   186.3195

     16  H    Isotropic =    25.0766   Anisotropy =    11.7498

     17  C    Isotropic =    49.4480   Anisotropy =   188.8692

     18  H    Isotropic =    24.4065   Anisotropy =     6.2668

     19  C    Isotropic =    47.4135   Anisotropy =   193.9795

     20  H    Isotropic =    24.2125   Anisotropy =     3.3981

     21  C    Isotropic =    49.5790   Anisotropy =   189.3101

     22  H    Isotropic =    24.2043   Anisotropy =     6.6340

     23  C    Isotropic =    48.0398   Anisotropy =   194.6243

     24  H    Isotropic =    24.2071   Anisotropy =     9.6214

     25  C    Isotropic =   113.4369   Anisotropy =    66.7705

     26  H    Isotropic =    27.0010   Anisotropy =     4.3657

     27  C    Isotropic =   146.5435   Anisotropy =    45.9717

     28  H    Isotropic =    29.2387   Anisotropy =     3.9591

     29  H    Isotropic =    29.6312   Anisotropy =     7.1437

     30  C    Isotropic =    46.6316   Anisotropy =   167.0846

     31  C    Isotropic =    46.9354   Anisotropy =   186.2107

     32  H    Isotropic =    24.3580   Anisotropy =     7.9039

     33  C    Isotropic =    49.8130   Anisotropy =   188.3130

     34  H    Isotropic =    24.2216   Anisotropy =     7.7187

     35  C    Isotropic =    46.8548   Anisotropy =   194.9484

     36  H    Isotropic =    24.1207   Anisotropy =     4.0172

     37  C    Isotropic =    48.4725   Anisotropy =   190.1772

     38  H    Isotropic =    24.2596   Anisotropy =     6.0561

     39  C    Isotropic =    46.5393   Anisotropy =   190.3252

     40  H    Isotropic =    24.6386   Anisotropy =    12.0224

     41  C    Isotropic =    44.0691   Anisotropy =   178.2338

     42  C    Isotropic =    47.3981   Anisotropy =   185.1814

     43  H    Isotropic =    24.2481   Anisotropy =    11.1330

     44  C    Isotropic =    48.2507   Anisotropy =   190.5188

     45  H    Isotropic =    24.0586   Anisotropy =     6.1802

     46  C    Isotropic =    44.5048   Anisotropy =   198.5467

     47  H    Isotropic =    23.8437   Anisotropy =     3.5070

     48  C    Isotropic =    48.4746   Anisotropy =   189.3172

     49  H    Isotropic =    23.9283   Anisotropy =     6.7351

     50  C    Isotropic =    42.9674   Anisotropy =   179.1805

     51  H    Isotropic =    23.4302   Anisotropy =    10.2006

     52  Rh   Isotropic =  -304.4141   Anisotropy =   337.6672

     53  C    Isotropic =    79.1119   Anisotropy =   121.5548

     54  C    Isotropic =    70.8415   Anisotropy =   126.3027

     55  C    Isotropic =    78.9649   Anisotropy =   120.9224

     56  C    Isotropic =    72.8888   Anisotropy =   122.9432

     57  C    Isotropic =   154.0028   Anisotropy =    24.8709

     58  H    Isotropic =    26.9471   Anisotropy =     5.6202

     59  H    Isotropic =    27.0644   Anisotropy =     4.3958

     60  C    Isotropic =   148.3146   Anisotropy =    29.0149

     61  C    Isotropic =   154.0523   Anisotropy =    24.7320

     62  H    Isotropic =    26.9199   Anisotropy =     6.4524

     63  C    Isotropic =   148.0756   Anisotropy =    28.4801

     64  H    Isotropic =    26.9223   Anisotropy =     3.1831

     65  H    Isotropic =    29.8017   Anisotropy =    11.4177

     66  H    Isotropic =    29.7273   Anisotropy =    10.1950

     67  H    Isotropic =    29.2714   Anisotropy =    12.6597

     68  H    Isotropic =    29.2694   Anisotropy =     6.9247

     69  H    Isotropic =    29.7156   Anisotropy =    10.1105

     70  H    Isotropic =    29.7885   Anisotropy =    11.7739

     71  H    Isotropic =    29.2785   Anisotropy =     6.9951

     72  H    Isotropic =    29.2635   Anisotropy =    12.7945

     73  C    Isotropic =     9.9325   Anisotropy =   120.0944

     74  O    Isotropic =   -84.6469   Anisotropy =   642.2807

     75  C    Isotropic =    48.0647   Anisotropy =   102.8244

     76  C    Isotropic =    28.4088   Anisotropy =   196.0693

     77  C    Isotropic =    32.2935   Anisotropy =   190.6493

     78  C    Isotropic =    54.3086   Anisotropy =   181.8664

     79  C    Isotropic =    56.4663   Anisotropy =   179.4650

     80  C    Isotropic =    49.5907   Anisotropy =   188.2754

     81  H    Isotropic =    24.5972   Anisotropy =    10.0702

     82  H    Isotropic =    24.6463   Anisotropy =     9.7552

     83  H    Isotropic =    24.3997   Anisotropy =     4.5375

     84  C    Isotropic =   149.9503   Anisotropy =    11.6926

     85  H    Isotropic =    29.2785   Anisotropy =    11.8466

     86  C    Isotropic =   149.5628   Anisotropy =    12.6455

     87  H    Isotropic =    29.4011   Anisotropy =    11.8670

     88  C    Isotropic =   159.7187   Anisotropy =    35.3371

     89  H    Isotropic =    30.6081   Anisotropy =     7.9472

     90  H    Isotropic =    30.9453   Anisotropy =     8.5145

     91  H    Isotropic =    31.0923   Anisotropy =     7.9392

     92  C    Isotropic =   159.1914   Anisotropy =    37.2348

     93  H    Isotropic =    31.0424   Anisotropy =     8.2051

     94  H    Isotropic =    30.9155   Anisotropy =     9.2580

     95  H    Isotropic =    30.7133   Anisotropy =     9.1292

     96  C    Isotropic =   158.3589   Anisotropy =    37.8039

     97  H    Isotropic =    31.2853   Anisotropy =     6.3925

     98  H    Isotropic =    31.0088   Anisotropy =     9.0134

     99  H    Isotropic =    30.8397   Anisotropy =     9.2034

    100  C    Isotropic =   161.8770   Anisotropy =    32.4194

    101  H    Isotropic =    30.8011   Anisotropy =     6.5930

    102  H    Isotropic =    30.7347   Anisotropy =     8.4606

    103  H    Isotropic =    30.3521   Anisotropy =     9.2360

    104  N    Isotropic =   121.0714   Anisotropy =   128.1119

    105  H    Isotropic =    26.3257   Anisotropy =     6.4365

 The electronic state is 1-A.
 Alpha  occ. eigenvalues --  -77.23620 -77.23215 -19.18247 -14.43211 -10.36640
 Alpha  occ. eigenvalues --  -10.30947 -10.29768 -10.29587 -10.29255 -10.29241
 Alpha  occ. eigenvalues --  -10.28722 -10.28597 -10.28595 -10.28448 -10.28417
 Alpha  occ. eigenvalues --  -10.28415 -10.28414 -10.28365 -10.28336 -10.28202
 Alpha  occ. eigenvalues --  -10.28185 -10.27711 -10.27709 -10.27657 -10.27650
 Alpha  occ. eigenvalues --  -10.27599 -10.27555 -10.27538 -10.27480 -10.27469
 Alpha  occ. eigenvalues --  -10.27281 -10.27239 -10.27115 -10.27112 -10.27099
 Alpha  occ. eigenvalues --  -10.26991 -10.26963 -10.26383 -10.26329 -10.26260
 Alpha  occ. eigenvalues --  -10.25335 -10.25272 -10.25108 -10.24529 -10.23846
 Alpha  occ. eigenvalues --  -10.23604 -10.23524 -10.23268 -10.22881 -10.22268
 Alpha  occ. eigenvalues --  -10.21801  -6.69572  -6.69166  -4.85845  -4.85810
 Alpha  occ. eigenvalues --   -4.85471  -4.85449  -4.85388  -4.85076  -3.31044
 Alpha  occ. eigenvalues --   -2.07939  -2.07278  -2.04515  -1.13310  -1.02132
 Alpha  occ. eigenvalues --   -0.96868  -0.96326  -0.96158  -0.95179  -0.94041
 Alpha  occ. eigenvalues --   -0.93054  -0.90915  -0.88778  -0.88526  -0.87666
 Alpha  occ. eigenvalues --   -0.87112  -0.86357  -0.85670  -0.85406  -0.85335
 Alpha  occ. eigenvalues --   -0.85025  -0.84932  -0.84324  -0.84008  -0.81977
 Alpha  occ. eigenvalues --   -0.79994  -0.79414  -0.78954  -0.77479  -0.75670
 Alpha  occ. eigenvalues --   -0.75376  -0.74636  -0.72534  -0.71425  -0.71062
 Alpha  occ. eigenvalues --   -0.70887  -0.70354  -0.70312  -0.70199  -0.70116
 Alpha  occ. eigenvalues --   -0.69571  -0.69432  -0.66874  -0.66619  -0.65744
 Alpha  occ. eigenvalues --   -0.65550  -0.65428  -0.62631  -0.62110  -0.61727
 Alpha  occ. eigenvalues --   -0.61242  -0.61031  -0.60954  -0.60299  -0.59582
 Alpha  occ. eigenvalues --   -0.58491  -0.57403  -0.56673  -0.56373  -0.56148
 Alpha  occ. eigenvalues --   -0.55906  -0.55846  -0.55756  -0.55501  -0.55389
 Alpha  occ. eigenvalues --   -0.55045  -0.54742  -0.54375  -0.53728  -0.53327
 Alpha  occ. eigenvalues --   -0.52933  -0.52864  -0.52665  -0.52462  -0.52252
 Alpha  occ. eigenvalues --   -0.52230  -0.51922  -0.51690  -0.51407  -0.51237
 Alpha  occ. eigenvalues --   -0.50994  -0.50803  -0.50164  -0.49583  -0.49326
 Alpha  occ. eigenvalues --   -0.48524  -0.48396  -0.47961  -0.47922  -0.47758
 Alpha  occ. eigenvalues --   -0.47634  -0.47364  -0.47070  -0.46997  -0.46396
 Alpha  occ. eigenvalues --   -0.45860  -0.45717  -0.45688  -0.45588  -0.45157
 Alpha  occ. eigenvalues --   -0.45086  -0.44937  -0.44860  -0.44761  -0.44296
 Alpha  occ. eigenvalues --   -0.44026  -0.43614  -0.43067  -0.43021  -0.42913
 Alpha  occ. eigenvalues --   -0.42736  -0.42397  -0.42206  -0.42088  -0.41388
 Alpha  occ. eigenvalues --   -0.40902  -0.40443  -0.40094  -0.39305  -0.38995
 Alpha  occ. eigenvalues --   -0.37731  -0.37274  -0.36650  -0.36335  -0.36022
 Alpha  occ. eigenvalues --   -0.35943  -0.35855  -0.35626  -0.35358  -0.35160
 Alpha  occ. eigenvalues --   -0.34760  -0.34526  -0.34139  -0.33596  -0.33059
 Alpha  occ. eigenvalues --   -0.31740  -0.30996  -0.30214
 Alpha virt. eigenvalues --   -0.16120  -0.14430  -0.13722  -0.13132  -0.12279
 Alpha virt. eigenvalues --   -0.12039  -0.11510  -0.10945  -0.10074  -0.09839
 Alpha virt. eigenvalues --   -0.08941  -0.08708  -0.07836  -0.07618  -0.07211

 Mulliken charges:
               1
     1  P    0.437303
     2  P    0.404202
     3  C   -0.369011
     4  C   -0.047168
     5  H    0.192747
     6  C   -0.106334
     7  H    0.129768
     8  C   -0.093951
     9  H    0.136330
    10  C   -0.087797
    11  H    0.142485
    12  C   -0.071615
    13  H    0.199585
    14  C   -0.089950
    15  C   -0.100914
    16  H    0.153296
    17  C   -0.089865
    18  H    0.130385
    19  C   -0.100153
    20  H    0.134195
    21  C   -0.101071
    22  H    0.126185
    23  C   -0.059215
    24  H    0.121106
    25  C   -0.582659
    26  H    0.243438
    27  C   -0.273283
    28  H    0.197490
    29  H    0.171323
    30  C   -0.200201
    31  C   -0.054999
    32  H    0.180958
    33  C   -0.141935
    34  H    0.129747
    35  C   -0.083896
    36  H    0.138747
    37  C   -0.109760
    38  H    0.134954
    39  C   -0.069874
    40  H    0.166857
    41  C   -0.239401
    42  C   -0.086758
    43  H    0.153194
    44  C   -0.087598
    45  H    0.135151
    46  C   -0.093414
    47  H    0.140472
    48  C   -0.108569
    49  H    0.131546
    50  C   -0.059231
    51  H    0.174800
    52  Rh  -0.605594
    53  C   -0.052428
    54  C   -0.093700
    55  C   -0.045164
    56  C   -0.093533
    57  C   -0.350697
    58  H    0.197936
    59  H    0.214568
    60  C   -0.223457
    61  C   -0.346930
    62  H    0.190870
    63  C   -0.222111
    64  H    0.197223
    65  H    0.167197
    66  H    0.166257
    67  H    0.171544
    68  H    0.132024
    69  H    0.165901
    70  H    0.166517
    71  H    0.130802
    72  H    0.172132
    73  C    0.238280
    74  O   -0.342608
    75  C   -0.000946
    76  C    0.156890
    77  C    0.145542
    78  C   -0.217251
    79  C   -0.214026
    80  C    0.002401
    81  H    0.116197
    82  H    0.115475
    83  H    0.118360
    84  C   -0.222620
    85  H    0.138473
    86  C   -0.127911
    87  H    0.121946
    88  C   -0.397895
    89  H    0.156449
    90  H    0.122780
    91  H    0.118327
    92  C   -0.367903
    93  H    0.119863
    94  H    0.124247
    95  H    0.128788
    96  C   -0.339002
    97  H    0.094696
    98  H    0.135727
    99  H    0.130525
   100  C   -0.381484
   101  H    0.136459
   102  H    0.128263
   103  H    0.130793
   104  N   -0.262516
   105  H    0.256686
 Sum of Mulliken charges =   1.00000

 Dipole moment (field-independent basis, Debye):
    X=              5.4610    Y=              0.7686    Z=              2.4806  Tot=              6.0470
 Quadrupole moment (field-independent basis, Debye-Ang):
   XX=           -264.7219   YY=           -280.1153   ZZ=           -287.7433
   XY=              2.2080   XZ=             -6.4258   YZ=             -4.8067

 Summary of Natural Population Analysis:

                                       Natural Population
                Natural  -----------------------------------------------
    Atom  No    Charge         Core      Valence    Rydberg      Total
 -----------------------------------------------------------------------
      P    1    1.14507      9.99633     3.80686    0.05175    13.85493
      P    2    1.12696      9.99637     3.82502    0.05164    13.87304
      C    3   -0.35852      1.99899     4.33540    0.02413     6.35852
      C    4   -0.19431      1.99909     4.17951    0.01570     6.19431
      H    5    0.22297      0.00000     0.77493    0.00210     0.77703
      C    6   -0.20317      1.99919     4.18929    0.01469     6.20317
      H    7    0.22044      0.00000     0.77831    0.00124     0.77956
      C    8   -0.17594      1.99921     4.16219    0.01454     6.17594
      H    9    0.22186      0.00000     0.77698    0.00116     0.77814
      C   10   -0.19564      1.99919     4.18151    0.01494     6.19564
      H   11    0.22431      0.00000     0.77425    0.00145     0.77569
      C   12   -0.19087      1.99909     4.17520    0.01658     6.19087
      H   13    0.24398      0.00000     0.75361    0.00241     0.75602
      C   14   -0.33042      1.99897     4.30751    0.02394     6.33042
      C   15   -0.20380      1.99909     4.18979    0.01492     6.20380
      H   16    0.21792      0.00000     0.78032    0.00175     0.78208
      C   17   -0.19260      1.99919     4.17868    0.01472     6.19260
      H   18    0.22062      0.00000     0.77814    0.00124     0.77938
      C   19   -0.18330      1.99920     4.16944    0.01465     6.18330
      H   20    0.22085      0.00000     0.77796    0.00119     0.77915
      C   21   -0.18874      1.99920     4.17500    0.01455     6.18874
      H   22    0.21973      0.00000     0.77903    0.00124     0.78027
      C   23   -0.17519      1.99908     4.16110    0.01502     6.17519
      H   24    0.20769      0.00000     0.79025    0.00206     0.79231
      C   25   -0.73038      1.99938     4.70641    0.02459     6.73038
      H   26    0.27211      0.00000     0.72587    0.00202     0.72789
      C   27   -0.50934      1.99925     4.49571    0.01437     6.50934
      H   28    0.23701      0.00000     0.76049    0.00250     0.76299
      H   29    0.22654      0.00000     0.77060    0.00286     0.77346
      C   30   -0.34366      1.99898     4.32136    0.02331     6.34366
      C   31   -0.19891      1.99909     4.18475    0.01506     6.19891
      H   32    0.21362      0.00000     0.78407    0.00231     0.78638
      C   33   -0.19365      1.99920     4.17980    0.01466     6.19365
      H   34    0.22045      0.00000     0.77830    0.00125     0.77955
      C   35   -0.18238      1.99920     4.16849    0.01470     6.18238
      H   36    0.22289      0.00000     0.77594    0.00117     0.77711
      C   37   -0.19055      1.99920     4.17664    0.01471     6.19055
      H   38    0.22312      0.00000     0.77566    0.00122     0.77688
      C   39   -0.19968      1.99910     4.18535    0.01523     6.19968
      H   40    0.22362      0.00000     0.77463    0.00174     0.77638
      C   41   -0.34742      1.99899     4.32499    0.02344     6.34742
      C   42   -0.19586      1.99910     4.18094    0.01583     6.19586
      H   43    0.21568      0.00000     0.78231    0.00201     0.78432
      C   44   -0.19232      1.99920     4.17849    0.01463     6.19232
      H   45    0.22293      0.00000     0.77583    0.00124     0.77707
      C   46   -0.17506      1.99921     4.16133    0.01453     6.17506
      H   47    0.22349      0.00000     0.77534    0.00117     0.77651
      C   48   -0.19427      1.99920     4.18055    0.01452     6.19427
      H   49    0.22201      0.00000     0.77677    0.00122     0.77799
      C   50   -0.18641      1.99910     4.17182    0.01549     6.18641
      H   51    0.22192      0.00000     0.77609    0.00199     0.77808
     Rh   52   -0.40737     35.98597     9.39273    0.02867    45.40737
      C   53   -0.18121      1.99907     4.16258    0.01955     6.18121
      C   54   -0.15554      1.99908     4.13680    0.01965     6.15554
      C   55   -0.18281      1.99907     4.16409    0.01965     6.18281
      C   56   -0.15646      1.99908     4.13764    0.01974     6.15646
      C   57   -0.42376      1.99936     4.41253    0.01187     6.42376
      H   58    0.22578      0.00000     0.77222    0.00201     0.77422
      H   59    0.23488      0.00000     0.76296    0.00215     0.76512
      C   60   -0.41866      1.99935     4.40671    0.01260     6.41866
      C   61   -0.42370      1.99936     4.41248    0.01185     6.42370
      H   62    0.22417      0.00000     0.77373    0.00210     0.77583
      C   63   -0.41808      1.99935     4.40609    0.01264     6.41808
      H   64    0.22971      0.00000     0.76827    0.00202     0.77029
      H   65    0.22725      0.00000     0.77126    0.00148     0.77275
      H   66    0.21506      0.00000     0.78297    0.00196     0.78494
      H   67    0.23419      0.00000     0.76392    0.00189     0.76581
      H   68    0.21755      0.00000     0.78088    0.00157     0.78245
      H   69    0.21470      0.00000     0.78331    0.00199     0.78530
      H   70    0.22709      0.00000     0.77139    0.00152     0.77291
      H   71    0.21533      0.00000     0.78308    0.00159     0.78467
      H   72    0.23388      0.00000     0.76422    0.00190     0.76612
      C   73    0.65107      1.99940     3.31021    0.03932     5.34893
      O   74   -0.60808      1.99977     6.59577    0.01254     8.60808
      C   75    0.10413      1.99875     3.87760    0.01951     5.89587
      C   76    0.01963      1.99898     3.96313    0.01826     5.98037
      C   77    0.00392      1.99899     3.97950    0.01759     5.99608
      C   78   -0.20682      1.99910     4.19367    0.01405     6.20682
      C   79   -0.21123      1.99910     4.19792    0.01421     6.21123
      C   80   -0.17752      1.99920     4.16321    0.01510     6.17752
      H   81    0.20930      0.00000     0.78862    0.00208     0.79070
      H   82    0.21003      0.00000     0.78799    0.00199     0.78997
      H   83    0.21487      0.00000     0.78397    0.00117     0.78513
      C   84   -0.22811      1.99937     4.21640    0.01234     6.22811
      H   85    0.19592      0.00000     0.80132    0.00277     0.80408
      C   86   -0.22549      1.99937     4.21346    0.01266     6.22549
      H   87    0.19516      0.00000     0.80247    0.00236     0.80484
      C   88   -0.58497      1.99942     4.57808    0.00747     6.58497
      H   89    0.22291      0.00000     0.77583    0.00126     0.77709
      H   90    0.19840      0.00000     0.80014    0.00146     0.80160
      H   91    0.19838      0.00000     0.80031    0.00132     0.80162
      C   92   -0.58162      1.99943     4.57489    0.00730     6.58162
      H   93    0.20455      0.00000     0.79424    0.00121     0.79545
      H   94    0.20313      0.00000     0.79557    0.00130     0.79687
      H   95    0.20142      0.00000     0.79712    0.00146     0.79858
      C   96   -0.57997      1.99942     4.57328    0.00727     6.57997
      H   97    0.19333      0.00000     0.80543    0.00124     0.80667
      H   98    0.20885      0.00000     0.78966    0.00149     0.79115
      H   99    0.20452      0.00000     0.79415    0.00133     0.79548
      C  100   -0.58680      1.99943     4.57942    0.00795     6.58680
      H  101    0.20953      0.00000     0.78922    0.00125     0.79047
      H  102    0.20435      0.00000     0.79433    0.00132     0.79565
      H  103    0.20193      0.00000     0.79662    0.00145     0.79807
      N  104   -0.59471      1.99942     5.57843    0.01686     7.59471
      H  105    0.39263      0.00000     0.60446    0.00291     0.60737
 =======================================================================
   * Total *    1.00000    153.93929   269.05509    1.00562   424.00000

 Normal termination of Gaussian 16 at Thu Jan 30 12:07:30 2025.
