 Gaussian 16, Revision B.01,
 Gaussian 16:  ES64L-G16RevB.01 20-Dec-2017

 ------------------------------------------
 # nmr=giao b3lyp/genecp pop=nbo scfcyc=200
 ------------------------------------------

 ---------
 MS-65_SPE
 ---------
 Symbolic Z-matrix:
 Charge =  1 Multiplicity = 1

                         Standard orientation:
 ---------------------------------------------------------------------
 Center     Atomic      Atomic             Coordinates (Angstroms)
 Number     Number       Type             X           Y           Z
 ---------------------------------------------------------------------
      1         15           0       -0.832149    1.383601    0.154349
      2         15           0       -0.877900   -1.417619    0.048439
      3          6           0        0.445271   -0.024600   -0.079701
      4          6           0       -0.487289    2.700811   -1.091831
      5          6           0       -0.384189    4.051221   -0.747061
      6          6           0       -0.218459    5.017431   -1.735771
      7          6           0       -0.157559    4.648780   -3.074341
      8          6           0       -0.271959    3.306351   -3.426741
      9          6           0       -0.444199    2.339741   -2.444481
     10          6           0       -0.517349    2.133981    1.803969
     11          6           0       -1.512599    2.086581    2.784339
     12          6           0       -1.287969    2.631581    4.045069
     13          6           0       -0.065579    3.225240    4.338539
     14          6           0        0.934681    3.271050    3.370579
     15          6           0        0.713911    2.728860    2.110329
     16          6           0       -0.427290   -2.574069   -1.309631
     17          6           0       -1.179010   -2.574619   -2.487781
     18          6           0       -0.809000   -3.381739   -3.559201
     19          6           0        0.317470   -4.190550   -3.464531
     20          6           0        1.080170   -4.184540   -2.299601
     21          6           0        0.715010   -3.380140   -1.227631
     22          6           0       -0.687780   -2.361209    1.620689
     23          6           0       -0.534250   -1.678349    2.833339
     24          6           0       -0.496160   -2.375079    4.034949
     25          6           0       -0.628760   -3.760619    4.046899
     26          6           0       -0.804860   -4.444539    2.849829
     27          6           0       -0.835840   -3.751969    1.643009
     28          1           0        0.664001   -0.022670   -1.149431
     29          1           0       -0.432879    4.357551    0.288749
     30          1           0       -0.138068    6.060050   -1.454721
     31          1           0       -0.028719    5.402650   -3.840671
     32          1           0       -0.234569    3.012251   -4.468281
     33          1           0       -0.550189    1.302241   -2.738911
     34          1           0       -2.460619    1.614841    2.560899
     35          1           0       -2.068189    2.592951    4.794899
     36          1           0        0.109261    3.652000    5.318249
     37          1           0        1.889041    3.729830    3.596919
     38          1           0        1.500781    2.769520    1.369209
     39          1           0       -2.050170   -1.937729   -2.569321
     40          1           0       -1.401900   -3.378759   -4.465301
     41          1           0        0.603810   -4.821800   -4.296311
     42          1           0        1.962770   -4.807480   -2.226041
     43          1           0        1.318510   -3.383180   -0.329361
     44          1           0       -0.457149   -0.599219    2.852509
     45          1           0       -0.368330   -1.833099    4.963759
     46          1           0       -0.601920   -4.301739    4.984249
     47          1           0       -0.918470   -5.521419    2.849849
     48          1           0       -0.973720   -4.303119    0.722699
     49         45           0       -2.733729    0.021101   -0.089901
     50          6           0       -4.390930   -1.417409   -0.781341
     51          6           0       -4.370290   -1.372599    0.595289
     52          6           0       -4.414469    1.539841    0.274279
     53          6           0       -4.130489    1.487751   -1.073701
     54          6           0       -5.370360   -0.684469   -1.678781
     55          1           0       -3.853100   -2.235309   -1.246101
     56          1           0       -3.830580   -2.162569    1.108089
     57          6           0       -5.265799   -0.550839    1.489049
     58          6           0       -5.586889    0.864641    0.961449
     59          1           0       -3.936869    2.333161    0.838489
     60          6           0       -4.877819    0.708521   -2.127541
     61          1           0       -3.466209    2.249801   -1.468411
     62          1           0       -5.544770   -1.290689   -2.569421
     63          1           0       -6.336299   -0.604008   -1.180771
     64          1           0       -6.199230   -1.098019    1.672299
     65          1           0       -4.776239   -0.468909    2.462039
     66          1           0       -6.441119    0.833432    0.285509
     67          1           0       -5.897839    1.483511    1.804909
     68          1           0       -4.212709    0.593251   -2.986351
     69          1           0       -5.726989    1.303131   -2.487701
     70          7           0        3.961831   -0.591880    1.128139
     71          1           0        3.636250   -0.979800    2.000599
     72          6           0        1.689551   -0.088590    0.710399
     73          1           0        1.570961   -0.130080    1.786929
     74          6           0        2.958451   -0.226530    0.239479
     75          6           0        5.313921   -0.176750    1.146979
     76          6           0        6.220770   -0.939811    1.891049
     77          6           0        5.767881    0.967590    0.487679
     78          6           0        7.554461   -0.565021    1.972029
     79          1           0        5.876130   -1.833350    2.399539
     80          6           0        7.111161    1.321969    0.556569
     81          1           0        5.079271    1.583320   -0.072791
     82          6           0        8.010671    0.564419    1.297829
     83          1           0        8.241840   -1.164971    2.555369
     84          1           0        7.450411    2.209159    0.036119
     85          1           0        9.052741    0.851109    1.353459
     86          6           0        3.340091   -0.135430   -1.195671
     87          6           0        4.098510   -1.157440   -1.778581
     88          6           0        2.965081    0.956350   -1.983791
     89          6           0        4.455400   -1.095870   -3.118431
     90          1           0        4.410530   -1.998650   -1.173081
     91          6           0        3.329171    1.020270   -3.324761
     92          1           0        2.413271    1.774950   -1.540081
     93          6           0        4.071921   -0.006660   -3.896611
     94          1           0        5.040380   -1.895330   -3.555871
     95          1           0        3.042851    1.880110   -3.917551
     96          1           0        4.361321    0.045750   -4.938761
 ---------------------------------------------------------------------

 SCF Done:  E(RB3LYP) =  -2666.65346209     A.U. after   19 cycles

      1  P    Isotropic =   281.7300   Anisotropy =    77.6331

      2  P    Isotropic =   278.4213   Anisotropy =    98.5261

      3  C    Isotropic =   103.1699   Anisotropy =    58.4533

      4  C    Isotropic =    44.2196   Anisotropy =   172.0464

      5  C    Isotropic =    46.8222   Anisotropy =   190.5584

      6  C    Isotropic =    48.8324   Anisotropy =   188.8758

      7  C    Isotropic =    46.7306   Anisotropy =   194.1988

      8  C    Isotropic =    49.2050   Anisotropy =   189.1938

      9  C    Isotropic =    46.6083   Anisotropy =   190.6413

     10  C    Isotropic =    51.6414   Anisotropy =   167.7013

     11  C    Isotropic =    39.8650   Anisotropy =   181.8001

     12  C    Isotropic =    49.0293   Anisotropy =   188.2610

     13  C    Isotropic =    44.3897   Anisotropy =   198.8903

     14  C    Isotropic =    49.3022   Anisotropy =   188.9209

     15  C    Isotropic =    41.8161   Anisotropy =   193.8799

     16  C    Isotropic =    45.3810   Anisotropy =   176.2790

     17  C    Isotropic =    44.0260   Anisotropy =   178.5637

     18  C    Isotropic =    49.5533   Anisotropy =   188.1175

     19  C    Isotropic =    45.6143   Anisotropy =   198.8242

     20  C    Isotropic =    48.7407   Anisotropy =   191.2532

     21  C    Isotropic =    45.7418   Anisotropy =   191.4751

     22  C    Isotropic =    46.8156   Anisotropy =   168.9648

     23  C    Isotropic =    46.3506   Anisotropy =   188.2749

     24  C    Isotropic =    50.3077   Anisotropy =   187.3580

     25  C    Isotropic =    47.3303   Anisotropy =   193.9742

     26  C    Isotropic =    48.6469   Anisotropy =   189.8292

     27  C    Isotropic =    46.4956   Anisotropy =   190.6067

     28  H    Isotropic =    26.6503   Anisotropy =     8.3679

     29  H    Isotropic =    24.6476   Anisotropy =    13.0937

     30  H    Isotropic =    24.2417   Anisotropy =     6.4353

     31  H    Isotropic =    24.0543   Anisotropy =     3.6082

     32  H    Isotropic =    24.0180   Anisotropy =     6.6218

     33  H    Isotropic =    24.1088   Anisotropy =     9.3748

     34  H    Isotropic =    23.1140   Anisotropy =     9.9756

     35  H    Isotropic =    23.8139   Anisotropy =     6.6728

     36  H    Isotropic =    23.7648   Anisotropy =     3.5378

     37  H    Isotropic =    23.9642   Anisotropy =     6.4127

     38  H    Isotropic =    23.7640   Anisotropy =     9.2295

     39  H    Isotropic =    23.6431   Anisotropy =     9.6938

     40  H    Isotropic =    24.1832   Anisotropy =     6.3340

     41  H    Isotropic =    24.1367   Anisotropy =     3.4915

     42  H    Isotropic =    24.3517   Anisotropy =     6.1999

     43  H    Isotropic =    24.4680   Anisotropy =    10.1453

     44  H    Isotropic =    24.7655   Anisotropy =     7.3138

     45  H    Isotropic =    24.4065   Anisotropy =     8.2811

     46  H    Isotropic =    24.1866   Anisotropy =     4.0258

     47  H    Isotropic =    24.3026   Anisotropy =     6.0871

     48  H    Isotropic =    24.7768   Anisotropy =    12.3067

     49  Rh   Isotropic =  -300.8799   Anisotropy =   331.3223

     50  C    Isotropic =    79.4135   Anisotropy =   120.8361

     51  C    Isotropic =    72.7937   Anisotropy =   123.5990

     52  C    Isotropic =    80.7081   Anisotropy =   118.8953

     53  C    Isotropic =    72.9001   Anisotropy =   122.7952

     54  C    Isotropic =   154.0992   Anisotropy =    24.8218

     55  H    Isotropic =    26.8406   Anisotropy =     6.2533

     56  H    Isotropic =    26.8303   Anisotropy =     3.3945

     57  C    Isotropic =   147.8075   Anisotropy =    28.6976

     58  C    Isotropic =   153.9729   Anisotropy =    24.8550

     59  H    Isotropic =    26.9898   Anisotropy =     6.1896

     60  C    Isotropic =   147.9498   Anisotropy =    28.8093

     61  H    Isotropic =    26.9820   Anisotropy =     3.5414

     62  H    Isotropic =    29.7783   Anisotropy =    11.6366

     63  H    Isotropic =    29.7448   Anisotropy =    10.0855

     64  H    Isotropic =    29.2709   Anisotropy =    12.8828

     65  H    Isotropic =    29.2893   Anisotropy =     7.1905

     66  H    Isotropic =    29.7844   Anisotropy =    10.0954

     67  H    Isotropic =    29.8057   Anisotropy =    11.5954

     68  H    Isotropic =    29.1163   Anisotropy =     7.2521

     69  H    Isotropic =    29.2339   Anisotropy =    12.7325

     70  N    Isotropic =   136.9812   Anisotropy =    83.7816

     71  H    Isotropic =    26.2867   Anisotropy =     8.0900

     72  C    Isotropic =    83.3497   Anisotropy =    92.5268

     73  H    Isotropic =    26.9744   Anisotropy =     7.7457

     74  C    Isotropic =    29.7882   Anisotropy =   138.9203

     75  C    Isotropic =    36.6212   Anisotropy =   154.0534

     76  C    Isotropic =    60.9609   Anisotropy =   149.8534

     77  C    Isotropic =    60.7571   Anisotropy =   164.6518

     78  C    Isotropic =    49.2042   Anisotropy =   187.2580

     79  H    Isotropic =    25.1689   Anisotropy =     9.5282

     80  C    Isotropic =    50.3105   Anisotropy =   186.0653

     81  H    Isotropic =    25.9847   Anisotropy =    12.0294

     82  C    Isotropic =    56.2319   Anisotropy =   180.1419

     83  H    Isotropic =    24.5561   Anisotropy =     5.2373

     84  H    Isotropic =    25.0178   Anisotropy =     7.9205

     85  H    Isotropic =    24.9337   Anisotropy =     3.5438

     86  C    Isotropic =    45.4502   Anisotropy =   179.8756

     87  C    Isotropic =    47.9910   Anisotropy =   188.0157

     88  C    Isotropic =    49.3385   Anisotropy =   178.0929

     89  C    Isotropic =    49.5214   Anisotropy =   191.6595

     90  H    Isotropic =    24.6588   Anisotropy =     7.7204

     91  C    Isotropic =    51.0084   Anisotropy =   188.2907

     92  H    Isotropic =    25.3403   Anisotropy =     4.8175

     93  C    Isotropic =    48.4309   Anisotropy =   192.9289

     94  H    Isotropic =    24.6922   Anisotropy =     4.8203

     95  H    Isotropic =    24.8531   Anisotropy =     7.1888

     96  H    Isotropic =    24.5758   Anisotropy =     3.5714

 The electronic state is 1-A.
 Alpha  occ. eigenvalues --  -77.22969 -77.22837 -14.42617 -10.31410 -10.30355
 Alpha  occ. eigenvalues --  -10.29269 -10.29195 -10.29138 -10.29092 -10.28969
 Alpha  occ. eigenvalues --  -10.28573 -10.28529 -10.28243 -10.28234 -10.28143
 Alpha  occ. eigenvalues --  -10.28054 -10.27953 -10.27815 -10.27726 -10.27716
 Alpha  occ. eigenvalues --  -10.27697 -10.27583 -10.27548 -10.27406 -10.27370
 Alpha  occ. eigenvalues --  -10.27262 -10.27155 -10.27151 -10.27142 -10.27082
 Alpha  occ. eigenvalues --  -10.27079 -10.27079 -10.27076 -10.27065 -10.27030
 Alpha  occ. eigenvalues --  -10.26990 -10.26934 -10.26872 -10.26867 -10.25999
 Alpha  occ. eigenvalues --  -10.25876 -10.25762 -10.25680 -10.25587 -10.25495
 Alpha  occ. eigenvalues --  -10.24360 -10.24246 -10.24229 -10.24186 -10.23533
 Alpha  occ. eigenvalues --   -6.68928  -6.68799  -4.85182  -4.85163  -4.85056
 Alpha  occ. eigenvalues --   -4.85032  -4.84844  -4.84713  -3.30882  -2.07761
 Alpha  occ. eigenvalues --   -2.07107  -2.04368  -1.03828  -0.96524  -0.96195
 Alpha  occ. eigenvalues --   -0.95801  -0.95558  -0.94598  -0.93920  -0.92476
 Alpha  occ. eigenvalues --   -0.90087  -0.88646  -0.87550  -0.86967  -0.86795
 Alpha  occ. eigenvalues --   -0.85124  -0.84988  -0.84830  -0.84763  -0.84563
 Alpha  occ. eigenvalues --   -0.84343  -0.84017  -0.83147  -0.82080  -0.81869
 Alpha  occ. eigenvalues --   -0.79862  -0.78419  -0.77358  -0.75102  -0.73476
 Alpha  occ. eigenvalues --   -0.71241  -0.70870  -0.70836  -0.70497  -0.70400
 Alpha  occ. eigenvalues --   -0.70107  -0.69922  -0.69717  -0.69207  -0.68475
 Alpha  occ. eigenvalues --   -0.68116  -0.66570  -0.65675  -0.65319  -0.64666
 Alpha  occ. eigenvalues --   -0.62220  -0.62194  -0.61679  -0.61550  -0.60376
 Alpha  occ. eigenvalues --   -0.59997  -0.59831  -0.59480  -0.58470  -0.56560
 Alpha  occ. eigenvalues --   -0.56446  -0.55942  -0.55786  -0.55746  -0.55616
 Alpha  occ. eigenvalues --   -0.55525  -0.55124  -0.54964  -0.54916  -0.54685
 Alpha  occ. eigenvalues --   -0.54355  -0.53772  -0.53223  -0.52726  -0.52530
 Alpha  occ. eigenvalues --   -0.52424  -0.52294  -0.52217  -0.52119  -0.52022
 Alpha  occ. eigenvalues --   -0.51942  -0.51562  -0.50857  -0.50725  -0.50654
 Alpha  occ. eigenvalues --   -0.50013  -0.49347  -0.48973  -0.48278  -0.48068
 Alpha  occ. eigenvalues --   -0.47500  -0.47437  -0.47281  -0.46814  -0.46783
 Alpha  occ. eigenvalues --   -0.46355  -0.45713  -0.45627  -0.45577  -0.45525
 Alpha  occ. eigenvalues --   -0.44880  -0.44808  -0.44584  -0.44432  -0.44286
 Alpha  occ. eigenvalues --   -0.43336  -0.43234  -0.43141  -0.42932  -0.42856
 Alpha  occ. eigenvalues --   -0.42652  -0.42459  -0.42096  -0.41837  -0.40835
 Alpha  occ. eigenvalues --   -0.40697  -0.37467  -0.37152  -0.36351  -0.36154
 Alpha  occ. eigenvalues --   -0.35928  -0.35725  -0.35539  -0.35385  -0.35292
 Alpha  occ. eigenvalues --   -0.35139  -0.34844  -0.34131  -0.33857  -0.33646
 Alpha  occ. eigenvalues --   -0.32963  -0.32633  -0.31778  -0.30127  -0.28080
 Alpha virt. eigenvalues --   -0.15918  -0.14260  -0.13628  -0.13504  -0.12525
 Alpha virt. eigenvalues --   -0.11805  -0.11600  -0.11327  -0.10738  -0.10325
 Alpha virt. eigenvalues --   -0.09799  -0.09500  -0.08801  -0.08202  -0.07777

 Mulliken charges:
               1
     1  P    0.400612
     2  P    0.410372
     3  C   -0.627418
     4  C   -0.195658
     5  C   -0.058217
     6  C   -0.096044
     7  C   -0.103806
     8  C   -0.100897
     9  C   -0.084067
    10  C   -0.299266
    11  C   -0.030739
    12  C   -0.123282
    13  C   -0.088203
    14  C   -0.095463
    15  C   -0.060881
    16  C   -0.253083
    17  C   -0.065533
    18  C   -0.112855
    19  C   -0.090236
    20  C   -0.080433
    21  C   -0.067588
    22  C   -0.177791
    23  C   -0.092055
    24  C   -0.144438
    25  C   -0.079363
    26  C   -0.113261
    27  C   -0.059837
    28  H    0.281943
    29  H    0.165582
    30  H    0.134363
    31  H    0.135905
    32  H    0.130958
    33  H    0.147505
    34  H    0.167701
    35  H    0.130230
    36  H    0.137432
    37  H    0.136058
    38  H    0.169728
    39  H    0.169826
    40  H    0.127555
    41  H    0.135602
    42  H    0.129547
    43  H    0.162979
    44  H    0.197358
    45  H    0.127201
    46  H    0.136462
    47  H    0.132361
    48  H    0.164754
    49  Rh  -0.558046
    50  C   -0.049451
    51  C   -0.094004
    52  C   -0.049331
    53  C   -0.085043
    54  C   -0.345821
    55  H    0.193092
    56  H    0.196160
    57  C   -0.215989
    58  C   -0.356310
    59  H    0.190917
    60  C   -0.228739
    61  H    0.206982
    62  H    0.165808
    63  H    0.165468
    64  H    0.171483
    65  H    0.130621
    66  H    0.165395
    67  H    0.165908
    68  H    0.127961
    69  H    0.170504
    70  N   -0.217854
    71  H    0.247751
    72  C   -0.181474
    73  H    0.136872
    74  C    0.226168
    75  C    0.107358
    76  C   -0.230167
    77  C   -0.095128
    78  C   -0.108124
    79  H    0.122845
    80  C   -0.123456
    81  H    0.135103
    82  C   -0.110250
    83  H    0.122917
    84  H    0.119101
    85  H    0.124852
    86  C   -0.273450
    87  C   -0.030539
    88  C   -0.138605
    89  C   -0.109692
    90  H    0.130426
    91  C   -0.120247
    92  H    0.170374
    93  C   -0.077183
    94  H    0.123000
    95  H    0.122673
    96  H    0.127543
 Sum of Mulliken charges =   1.00000

 Dipole moment (field-independent basis, Debye):
    X=             -3.3370    Y=             -0.2072    Z=              0.1477  Tot=              3.3467
 Quadrupole moment (field-independent basis, Debye-Ang):
   XX=           -260.7781   YY=           -273.2389   ZZ=           -267.2363
   XY=             -3.0671   XZ=             -0.2689   YZ=             -0.2395

 Summary of Natural Population Analysis:

                                       Natural Population
                Natural  -----------------------------------------------
    Atom  No    Charge         Core      Valence    Rydberg      Total
 -----------------------------------------------------------------------
      P    1    1.11644      9.99639     3.83559    0.05158    13.88356
      P    2    1.11117      9.99640     3.84092    0.05152    13.88883
      C    3   -0.73153      1.99931     4.70575    0.02646     6.73153
      C    4   -0.34405      1.99898     4.32153    0.02354     6.34405
      C    5   -0.19496      1.99909     4.18068    0.01518     6.19496
      C    6   -0.19129      1.99920     4.17740    0.01469     6.19129
      C    7   -0.18319      1.99920     4.16924    0.01475     6.18319
      C    8   -0.19670      1.99919     4.18264    0.01487     6.19670
      C    9   -0.19625      1.99909     4.18211    0.01505     6.19625
      C   10   -0.35766      1.99899     4.33498    0.02369     6.35766
      C   11   -0.18561      1.99910     4.17099    0.01552     6.18561
      C   12   -0.20228      1.99919     4.18846    0.01462     6.20228
      C   13   -0.17485      1.99921     4.16112    0.01452     6.17485
      C   14   -0.19779      1.99919     4.18398    0.01461     6.19779
      C   15   -0.18708      1.99910     4.17217    0.01582     6.18708
      C   16   -0.34790      1.99899     4.32588    0.02302     6.34790
      C   17   -0.18811      1.99910     4.17364    0.01536     6.18811
      C   18   -0.19727      1.99920     4.18350    0.01457     6.19727
      C   19   -0.17591      1.99920     4.16218    0.01452     6.17591
      C   20   -0.19127      1.99919     4.17723    0.01485     6.19127
      C   21   -0.18899      1.99909     4.17336    0.01654     6.18899
      C   22   -0.33905      1.99898     4.31682    0.02324     6.33905
      C   23   -0.19799      1.99910     4.18378    0.01511     6.19799
      C   24   -0.19522      1.99919     4.18141    0.01461     6.19522
      C   25   -0.18425      1.99920     4.17034    0.01471     6.18425
      C   26   -0.19233      1.99920     4.17842    0.01472     6.19233
      C   27   -0.19813      1.99910     4.18391    0.01512     6.19813
      H   28    0.27382      0.00000     0.72382    0.00237     0.72618
      H   29    0.22419      0.00000     0.77404    0.00176     0.77581
      H   30    0.22238      0.00000     0.77640    0.00123     0.77762
      H   31    0.22218      0.00000     0.77665    0.00118     0.77782
      H   32    0.22043      0.00000     0.77830    0.00127     0.77957
      H   33    0.21489      0.00000     0.78310    0.00201     0.78511
      H   34    0.22250      0.00000     0.77540    0.00210     0.77750
      H   35    0.22112      0.00000     0.77764    0.00124     0.77888
      H   36    0.22262      0.00000     0.77621    0.00117     0.77738
      H   37    0.22368      0.00000     0.77507    0.00125     0.77632
      H   38    0.22456      0.00000     0.77336    0.00208     0.77544
      H   39    0.21815      0.00000     0.77987    0.00198     0.78185
      H   40    0.21986      0.00000     0.77890    0.00124     0.78014
      H   41    0.22147      0.00000     0.77735    0.00117     0.77853
      H   42    0.22087      0.00000     0.77784    0.00129     0.77913
      H   43    0.22121      0.00000     0.77642    0.00237     0.77879
      H   44    0.21638      0.00000     0.78157    0.00205     0.78362
      H   45    0.21953      0.00000     0.77921    0.00126     0.78047
      H   46    0.22153      0.00000     0.77729    0.00118     0.77847
      H   47    0.22183      0.00000     0.77695    0.00123     0.77817
      H   48    0.22331      0.00000     0.77498    0.00171     0.77669
     Rh   49   -0.40396     35.98591     9.38987    0.02818    45.40396
      C   50   -0.18351      1.99907     4.16486    0.01959     6.18351
      C   51   -0.15472      1.99908     4.13593    0.01971     6.15472
      C   52   -0.18557      1.99907     4.16699    0.01952     6.18557
      C   53   -0.15458      1.99908     4.13591    0.01959     6.15458
      C   54   -0.42377      1.99936     4.41256    0.01185     6.42377
      H   55    0.22502      0.00000     0.77286    0.00212     0.77498
      H   56    0.23131      0.00000     0.76667    0.00202     0.76869
      C   57   -0.41845      1.99935     4.40653    0.01257     6.41845
      C   58   -0.42356      1.99936     4.41235    0.01185     6.42356
      H   59    0.22481      0.00000     0.77323    0.00196     0.77519
      C   60   -0.41767      1.99935     4.40571    0.01261     6.41767
      H   61    0.23227      0.00000     0.76577    0.00196     0.76773
      H   62    0.22660      0.00000     0.77189    0.00151     0.77340
      H   63    0.21488      0.00000     0.78313    0.00199     0.78512
      H   64    0.23387      0.00000     0.76423    0.00190     0.76613
      H   65    0.21593      0.00000     0.78250    0.00157     0.78407
      H   66    0.21485      0.00000     0.78317    0.00198     0.78515
      H   67    0.22674      0.00000     0.77176    0.00150     0.77326
      H   68    0.21527      0.00000     0.78313    0.00160     0.78473
      H   69    0.23347      0.00000     0.76462    0.00191     0.76653
      N   70   -0.55283      1.99946     5.53566    0.01771     7.55283
      H   71    0.38941      0.00000     0.60773    0.00286     0.61059
      C   72   -0.31842      1.99899     4.29785    0.02157     6.31842
      H   73    0.20547      0.00000     0.79133    0.00320     0.79453
      C   74    0.20550      1.99888     3.77466    0.02096     5.79450
      C   75    0.13436      1.99892     3.84949    0.01723     5.86564
      C   76   -0.23547      1.99911     4.22150    0.01486     6.23547
      C   77   -0.24188      1.99909     4.22883    0.01396     6.24188
      C   78   -0.18450      1.99921     4.17029    0.01499     6.18450
      H   79    0.20717      0.00000     0.79117    0.00166     0.79283
      C   80   -0.18325      1.99922     4.16897    0.01506     6.18325
      H   81    0.21473      0.00000     0.78355    0.00172     0.78527
      C   82   -0.22100      1.99920     4.20650    0.01531     6.22100
      H   83    0.21552      0.00000     0.78329    0.00119     0.78448
      H   84    0.21380      0.00000     0.78499    0.00121     0.78620
      H   85    0.21651      0.00000     0.78228    0.00121     0.78349
      C   86   -0.09474      1.99901     4.07571    0.02002     6.09474
      C   87   -0.17396      1.99911     4.16063    0.01422     6.17396
      C   88   -0.20452      1.99910     4.18941    0.01601     6.20452
      C   89   -0.19383      1.99920     4.17988    0.01475     6.19383
      H   90    0.21769      0.00000     0.78047    0.00184     0.78231
      C   91   -0.20237      1.99920     4.18774    0.01542     6.20237
      H   92    0.21358      0.00000     0.78394    0.00248     0.78642
      C   93   -0.19044      1.99920     4.17633    0.01491     6.19044
      H   94    0.21726      0.00000     0.78153    0.00121     0.78274
      H   95    0.21546      0.00000     0.78312    0.00142     0.78454
      H   96    0.21705      0.00000     0.78180    0.00115     0.78295
 =======================================================================
   * Total *    1.00000    151.93772   255.06073    1.00155   408.00000

 Normal termination of Gaussian 16 at Wed Jan 22 21:00:40 2025.
