 Gaussian 16, Revision B.01,
 Gaussian 16:  ES64L-G16RevB.01 20-Dec-2017

 ------------------------------------------
 # nmr=giao b3lyp/genecp pop=nbo scfcyc=200
 ------------------------------------------

 ---------
 MS-66_SPE
 ---------
 Symbolic Z-matrix:
 Charge =  1 Multiplicity = 1

                         Standard orientation:
 ---------------------------------------------------------------------
 Center     Atomic      Atomic             Coordinates (Angstroms)
 Number     Number       Type             X           Y           Z
 ---------------------------------------------------------------------
      1         15           0        0.468761   -1.371709    0.254780
      2         15           0        0.731489    1.410671    0.060280
      3          6           0       -0.677490    0.119990   -0.031380
      4          6           0       -0.078419   -2.753169   -0.838860
      5          6           0        0.042122   -4.080169   -0.411070
      6          6           0       -0.232327   -5.127910   -1.284360
      7          6           0       -0.623377   -4.866010   -2.592410
      8          6           0       -0.732898   -3.549120   -3.028520
      9          6           0       -0.454709   -2.499240   -2.162120
     10          6           0        0.268711   -1.970619    1.977580
     11          6           0        1.311401   -1.770519    2.885310
     12          6           0        1.191311   -2.209629    4.200140
     13          6           0        0.031392   -2.853019    4.614660
     14          6           0       -1.012158   -3.055950    3.714510
     15          6           0       -0.897579   -2.616210    2.403310
     16          6           0        0.279238    2.662911   -1.216080
     17          6           0        0.721708    2.484561   -2.529360
     18          6           0        0.353908    3.386041   -3.523560
     19          6           0       -0.457383    4.472060   -3.212860
     20          6           0       -0.905843    4.653050   -1.906780
     21          6           0       -0.542282    3.753930   -0.910740
     22          6           0        0.883158    2.368381    1.628880
     23          6           0        0.457259    1.908781    2.877210
     24          6           0        0.758678    2.637941    4.024030
     25          6           0        1.493188    3.814822    3.944550
     26          6           0        1.930407    4.270882    2.704430
     27          6           0        1.632848    3.552452    1.553670
     28          1           0       -0.856790    0.098300   -1.106480
     29          1           0        0.345322   -4.303279    0.602760
     30          1           0       -0.140126   -6.149539   -0.937660
     31          1           0       -0.837677   -5.682800   -3.269980
     32          1           0       -1.035228   -3.335800   -4.045930
     33          1           0       -0.535369   -1.485220   -2.532380
     34          1           0        2.212831   -1.264818    2.562650
     35          1           0        2.004381   -2.050218    4.897090
     36          1           0       -0.061918   -3.197719    5.636870
     37          1           0       -1.917198   -3.554951    4.037190
     38          1           0       -1.714168   -2.783550    1.712970
     39          1           0        1.355359    1.640751   -2.773760
     40          1           0        0.707568    3.243771   -4.537120
     41          1           0       -0.736243    5.179340   -3.983890
     42          1           0       -1.536803    5.498140   -1.661240
     43          1           0       -0.890323    3.909350    0.102360
     44          1           0       -0.142401    1.015601    2.953880
     45          1           0        0.406068    2.281521    4.983770
     46          1           0        1.720337    4.377722    4.841180
     47          1           0        2.500047    5.188772    2.629640
     48          1           0        1.975277    3.929132    0.597810
     49         45           0        2.423560   -0.191108   -0.276050
     50          6           0        4.072069    1.036733   -1.305570
     51          6           0        4.250549    1.096103    0.058950
     52          6           0        4.008751   -1.821267   -0.016510
     53          6           0        3.544231   -1.844117   -1.314840
     54          6           0        4.854470    0.156394   -2.262390
     55          1           0        3.532469    1.858963   -1.761710
     56          1           0        3.855539    1.965153    0.574900
     57          6           0        5.194730    0.261884    0.888600
     58          6           0        5.319311   -1.211576    0.444780
     59          1           0        3.548871   -2.516597    0.677400
     60          6           0        4.197491   -1.216427   -2.521620
     61          1           0        2.773601   -2.570298   -1.551940
     62          1           0        4.948169    0.679024   -3.215930
     63          1           0        5.871460    0.027474   -1.892720
     64          1           0        6.186439    0.731544    0.896740
     65          1           0        4.843140    0.297024    1.922080
     66          1           0        6.067001   -1.310156   -0.341870
     67          1           0        5.694751   -1.794046    1.287790
     68          1           0        3.430390   -1.106317   -3.291430
     69          1           0        4.939281   -1.909346   -2.938580
     70          6           0       -1.981010    0.259849    0.743250
     71          8           0       -1.959020    0.402709    1.953650
     72          7           0       -3.169010    0.186659    0.042920
     73          6           0       -3.298700    0.037629   -1.385300
     74          6           0       -3.854289   -1.136462   -1.893980
     75          6           0       -2.957731    1.074819   -2.251780
     76          6           0       -4.052509   -1.275902   -3.261560
     77          1           0       -4.141609   -1.928382   -1.214570
     78          6           0       -3.142921    0.923109   -3.623400
     79          1           0       -2.562361    2.000269   -1.854650
     80          6           0       -3.693140   -0.248912   -4.130700
     81          1           0       -4.490849   -2.187202   -3.648440
     82          1           0       -2.876661    1.733379   -4.290160
     83          1           0       -3.854020   -0.357192   -5.195900
     84          6           0       -4.415140    0.269358    0.778140
     85          6           0       -5.325871    1.271267    0.454780
     86          6           0       -4.719560   -0.655792    1.772560
     87          6           0       -6.541631    1.345397    1.125350
     88          1           0       -5.088651    1.986208   -0.322300
     89          6           0       -5.933950   -0.573793    2.442770
     90          1           0       -4.005229   -1.424572    2.031440
     91          6           0       -6.848510    0.424416    2.120970
     92          1           0       -7.246931    2.125996    0.869570
     93          1           0       -6.166589   -1.293383    3.217710
     94          1           0       -7.794870    0.483406    2.643320
 ---------------------------------------------------------------------

 SCF Done:  E(RB3LYP) =  -2702.59109600     A.U. after   16 cycles

      1  P    Isotropic =   283.6921   Anisotropy =    65.9465

      2  P    Isotropic =   278.3320   Anisotropy =   111.4138

      3  C    Isotropic =   109.0930   Anisotropy =    50.8982

      4  C    Isotropic =    45.7133   Anisotropy =   168.7196

      5  C    Isotropic =    47.4244   Anisotropy =   189.6874

      6  C    Isotropic =    49.0828   Anisotropy =   189.0045

      7  C    Isotropic =    46.9522   Anisotropy =   194.8978

      8  C    Isotropic =    49.0218   Anisotropy =   190.4631

      9  C    Isotropic =    48.9687   Anisotropy =   192.7240

     10  C    Isotropic =    50.9068   Anisotropy =   164.3699

     11  C    Isotropic =    39.5955   Anisotropy =   182.2072

     12  C    Isotropic =    49.4569   Anisotropy =   187.4252

     13  C    Isotropic =    44.0671   Anisotropy =   199.3978

     14  C    Isotropic =    49.3761   Anisotropy =   188.1495

     15  C    Isotropic =    42.0354   Anisotropy =   193.0438

     16  C    Isotropic =    42.5269   Anisotropy =   178.3898

     17  C    Isotropic =    43.2023   Anisotropy =   182.3268

     18  C    Isotropic =    48.6987   Anisotropy =   189.4178

     19  C    Isotropic =    45.0057   Anisotropy =   198.5984

     20  C    Isotropic =    48.1684   Anisotropy =   190.8770

     21  C    Isotropic =    44.5851   Anisotropy =   194.5587

     22  C    Isotropic =    47.5640   Anisotropy =   155.8551

     23  C    Isotropic =    42.3590   Anisotropy =   200.2419

     24  C    Isotropic =    49.3643   Anisotropy =   189.1840

     25  C    Isotropic =    46.9011   Anisotropy =   195.0748

     26  C    Isotropic =    50.2856   Anisotropy =   187.0834

     27  C    Isotropic =    48.6318   Anisotropy =   185.9988

     28  H    Isotropic =    26.0007   Anisotropy =    10.1734

     29  H    Isotropic =    24.8321   Anisotropy =    12.3664

     30  H    Isotropic =    24.3779   Anisotropy =     6.1866

     31  H    Isotropic =    24.2407   Anisotropy =     4.0290

     32  H    Isotropic =    24.5634   Anisotropy =     7.0274

     33  H    Isotropic =    25.2728   Anisotropy =     7.0715

     34  H    Isotropic =    23.1963   Anisotropy =     9.5307

     35  H    Isotropic =    24.0052   Anisotropy =     6.8168

     36  H    Isotropic =    23.7616   Anisotropy =     3.6756

     37  H    Isotropic =    23.8998   Anisotropy =     6.4538

     38  H    Isotropic =    24.0044   Anisotropy =    10.6467

     39  H    Isotropic =    23.4713   Anisotropy =     9.3676

     40  H    Isotropic =    23.8635   Anisotropy =     6.1112

     41  H    Isotropic =    23.7479   Anisotropy =     3.1724

     42  H    Isotropic =    24.0093   Anisotropy =     6.1204

     43  H    Isotropic =    24.1520   Anisotropy =    11.3208

     44  H    Isotropic =    23.1147   Anisotropy =     7.3841

     45  H    Isotropic =    24.4507   Anisotropy =     7.5342

     46  H    Isotropic =    24.2081   Anisotropy =     3.7099

     47  H    Isotropic =    24.3803   Anisotropy =     6.3365

     48  H    Isotropic =    24.9919   Anisotropy =    11.5944

     49  Rh   Isotropic =  -303.4387   Anisotropy =   331.1257

     50  C    Isotropic =    77.9366   Anisotropy =   122.5605

     51  C    Isotropic =    71.5900   Anisotropy =   125.1219

     52  C    Isotropic =    80.5582   Anisotropy =   119.2879

     53  C    Isotropic =    72.7292   Anisotropy =   123.0253

     54  C    Isotropic =   154.0696   Anisotropy =    24.9329

     55  H    Isotropic =    26.8337   Anisotropy =     5.8056

     56  H    Isotropic =    26.7540   Anisotropy =     3.8914

     57  C    Isotropic =   148.4458   Anisotropy =    28.4241

     58  C    Isotropic =   154.0869   Anisotropy =    25.0279

     59  H    Isotropic =    27.2681   Anisotropy =     6.1703

     60  C    Isotropic =   148.0605   Anisotropy =    29.1678

     61  H    Isotropic =    27.5379   Anisotropy =     4.5185

     62  H    Isotropic =    29.8493   Anisotropy =    11.4480

     63  H    Isotropic =    29.8032   Anisotropy =    10.0475

     64  H    Isotropic =    29.3377   Anisotropy =    12.8408

     65  H    Isotropic =    29.4288   Anisotropy =     6.9616

     66  H    Isotropic =    29.8706   Anisotropy =    10.1202

     67  H    Isotropic =    29.9396   Anisotropy =    11.6234

     68  H    Isotropic =    29.3062   Anisotropy =     6.8266

     69  H    Isotropic =    29.3882   Anisotropy =    12.5270

     70  C    Isotropic =    15.8637   Anisotropy =    97.5831

     71  O    Isotropic =  -117.1116   Anisotropy =   625.5875

     72  N    Isotropic =    81.1221   Anisotropy =    91.1004

     73  C    Isotropic =    33.2671   Anisotropy =   153.4712

     74  C    Isotropic =    47.7984   Anisotropy =   179.7216

     75  C    Isotropic =    51.3185   Anisotropy =   167.3570

     76  C    Isotropic =    48.1025   Anisotropy =   191.9778

     77  H    Isotropic =    25.1611   Anisotropy =     7.3996

     78  C    Isotropic =    49.6701   Anisotropy =   186.0774

     79  H    Isotropic =    25.9125   Anisotropy =     6.7100

     80  C    Isotropic =    50.4788   Anisotropy =   191.0501

     81  H    Isotropic =    24.6123   Anisotropy =     4.3900

     82  H    Isotropic =    24.8702   Anisotropy =     7.9878

     83  H    Isotropic =    24.4060   Anisotropy =     4.0201

     84  C    Isotropic =    34.5570   Anisotropy =   140.4991

     85  C    Isotropic =    52.2862   Anisotropy =   172.3029

     86  C    Isotropic =    50.9674   Anisotropy =   168.4385

     87  C    Isotropic =    49.4834   Anisotropy =   186.9897

     88  H    Isotropic =    25.3215   Anisotropy =    11.9905

     89  C    Isotropic =    50.8545   Anisotropy =   183.7928

     90  H    Isotropic =    24.4675   Anisotropy =    10.2959

     91  C    Isotropic =    50.7597   Anisotropy =   188.3363

     92  H    Isotropic =    24.5961   Anisotropy =     6.4850

     93  H    Isotropic =    24.4017   Anisotropy =     6.8123

     94  H    Isotropic =    24.5229   Anisotropy =     3.4697

 The electronic state is 1-A.
 Alpha  occ. eigenvalues --  -77.24058 -77.24014 -19.18683 -14.45180 -10.37861
 Alpha  occ. eigenvalues --  -10.31471 -10.31052 -10.29579 -10.29571 -10.29548
 Alpha  occ. eigenvalues --  -10.29150 -10.28884 -10.28743 -10.28693 -10.28531
 Alpha  occ. eigenvalues --  -10.28491 -10.28446 -10.28278 -10.28227 -10.28005
 Alpha  occ. eigenvalues --  -10.27946 -10.27890 -10.27870 -10.27804 -10.27715
 Alpha  occ. eigenvalues --  -10.27438 -10.27369 -10.27351 -10.27314 -10.27260
 Alpha  occ. eigenvalues --  -10.27249 -10.27191 -10.27087 -10.27067 -10.27056
 Alpha  occ. eigenvalues --  -10.27018 -10.26975 -10.26843 -10.26832 -10.26696
 Alpha  occ. eigenvalues --  -10.26577 -10.26494 -10.26382 -10.26358 -10.26117
 Alpha  occ. eigenvalues --  -10.25337 -10.25332 -10.24986 -10.24967 -10.24739
 Alpha  occ. eigenvalues --   -6.69930  -6.69921  -4.86242  -4.86221  -4.86144
 Alpha  occ. eigenvalues --   -4.86134  -4.85826  -4.85825  -3.31204  -2.08106
 Alpha  occ. eigenvalues --   -2.07453  -2.04652  -1.14254  -1.04522  -0.96735
 Alpha  occ. eigenvalues --   -0.96524  -0.95808  -0.95186  -0.94996  -0.94109
 Alpha  occ. eigenvalues --   -0.93085  -0.89725  -0.88835  -0.87715  -0.87097
 Alpha  occ. eigenvalues --   -0.85453  -0.85337  -0.85022  -0.84910  -0.84606
 Alpha  occ. eigenvalues --   -0.84453  -0.84355  -0.84250  -0.83934  -0.82747
 Alpha  occ. eigenvalues --   -0.81702  -0.80022  -0.77518  -0.75470  -0.75048
 Alpha  occ. eigenvalues --   -0.72080  -0.71302  -0.71138  -0.70819  -0.70702
 Alpha  occ. eigenvalues --   -0.70273  -0.70169  -0.69981  -0.69798  -0.69627
 Alpha  occ. eigenvalues --   -0.68632  -0.66818  -0.66545  -0.65503  -0.64598
 Alpha  occ. eigenvalues --   -0.62946  -0.62460  -0.62175  -0.61775  -0.60921
 Alpha  occ. eigenvalues --   -0.60364  -0.59654  -0.59304  -0.58710  -0.56857
 Alpha  occ. eigenvalues --   -0.56675  -0.56479  -0.56137  -0.56081  -0.55875
 Alpha  occ. eigenvalues --   -0.55804  -0.55564  -0.55258  -0.54903  -0.54753
 Alpha  occ. eigenvalues --   -0.54119  -0.53757  -0.53632  -0.53358  -0.53077
 Alpha  occ. eigenvalues --   -0.52837  -0.52556  -0.52479  -0.52370  -0.52294
 Alpha  occ. eigenvalues --   -0.52239  -0.51925  -0.51486  -0.51297  -0.51009
 Alpha  occ. eigenvalues --   -0.50614  -0.50136  -0.49604  -0.48358  -0.48183
 Alpha  occ. eigenvalues --   -0.47971  -0.47532  -0.47267  -0.46967  -0.46676
 Alpha  occ. eigenvalues --   -0.46535  -0.45871  -0.45817  -0.45731  -0.45701
 Alpha  occ. eigenvalues --   -0.45179  -0.44972  -0.44828  -0.44714  -0.44486
 Alpha  occ. eigenvalues --   -0.43934  -0.43794  -0.43361  -0.43279  -0.42970
 Alpha  occ. eigenvalues --   -0.42925  -0.42848  -0.42583  -0.42466  -0.41088
 Alpha  occ. eigenvalues --   -0.37823  -0.37608  -0.37343  -0.36835  -0.36355
 Alpha  occ. eigenvalues --   -0.36267  -0.36008  -0.35930  -0.35609  -0.35415
 Alpha  occ. eigenvalues --   -0.35074  -0.34793  -0.34708  -0.34511  -0.34167
 Alpha  occ. eigenvalues --   -0.33725  -0.33234  -0.33094  -0.31305  -0.30297
 Alpha virt. eigenvalues --   -0.16060  -0.14594  -0.13875  -0.13742  -0.12549
 Alpha virt. eigenvalues --   -0.11957  -0.11608  -0.11364  -0.11189  -0.10609
 Alpha virt. eigenvalues --   -0.10422  -0.09800  -0.09179  -0.08970  -0.08728

 Mulliken charges:
               1
     1  P    0.406651
     2  P    0.445721
     3  C   -0.505314
     4  C   -0.177172
     5  C   -0.050503
     6  C   -0.109311
     7  C   -0.088180
     8  C   -0.121475
     9  C   -0.054907
    10  C   -0.288467
    11  C   -0.045399
    12  C   -0.110302
    13  C   -0.089763
    14  C   -0.085143
    15  C   -0.024832
    16  C   -0.277886
    17  C   -0.043574
    18  C   -0.123511
    19  C   -0.092510
    20  C   -0.076523
    21  C   -0.099063
    22  C   -0.078725
    23  C   -0.061710
    24  C   -0.129784
    25  C   -0.093984
    26  C   -0.088051
    27  C   -0.172486
    28  H    0.218809
    29  H    0.165699
    30  H    0.134308
    31  H    0.137106
    32  H    0.127695
    33  H    0.135734
    34  H    0.173976
    35  H    0.130059
    36  H    0.135517
    37  H    0.130816
    38  H    0.155793
    39  H    0.178854
    40  H    0.130866
    41  H    0.139297
    42  H    0.139440
    43  H    0.165590
    44  H    0.198740
    45  H    0.129341
    46  H    0.133046
    47  H    0.130161
    48  H    0.170186
    49  Rh  -0.646153
    50  C   -0.049868
    51  C   -0.101751
    52  C   -0.042016
    53  C   -0.091804
    54  C   -0.341086
    55  H    0.197615
    56  H    0.208041
    57  C   -0.221970
    58  C   -0.352955
    59  H    0.195124
    60  C   -0.230580
    61  H    0.211432
    62  H    0.166163
    63  H    0.166802
    64  H    0.172648
    65  H    0.135420
    66  H    0.166445
    67  H    0.167896
    68  H    0.127942
    69  H    0.170692
    70  C    0.258978
    71  O   -0.346589
    72  N   -0.076183
    73  C   -0.201440
    74  C   -0.019977
    75  C   -0.048020
    76  C   -0.139891
    77  H    0.130129
    78  C   -0.141586
    79  H    0.159714
    80  C   -0.060109
    81  H    0.127849
    82  H    0.128101
    83  H    0.130934
    84  C    0.005467
    85  C   -0.104212
    86  C   -0.035266
    87  C   -0.094803
    88  H    0.123976
    89  C   -0.126092
    90  H    0.109113
    91  C   -0.085649
    92  H    0.124815
    93  H    0.119614
    94  H    0.128254
 Sum of Mulliken charges =   1.00000

 Dipole moment (field-independent basis, Debye):
    X=              2.8210    Y=             -0.8533    Z=             -2.5657  Tot=              3.9076
 Quadrupole moment (field-independent basis, Debye-Ang):
   XX=           -261.6759   YY=           -266.9044   ZZ=           -267.6652
   XY=              3.6191   XZ=              5.2293   YZ=             -7.4319

 Summary of Natural Population Analysis:

                                       Natural Population
                Natural  -----------------------------------------------
    Atom  No    Charge         Core      Valence    Rydberg      Total
 -----------------------------------------------------------------------
      P    1    1.15066      9.99634     3.80081    0.05218    13.84934
      P    2    1.13946      9.99636     3.81175    0.05243    13.86054
      C    3   -0.83004      1.99925     4.80646    0.02433     6.83004
      C    4   -0.34792      1.99898     4.32542    0.02352     6.34792
      C    5   -0.19672      1.99910     4.18265    0.01497     6.19672
      C    6   -0.19130      1.99920     4.17737    0.01474     6.19130
      C    7   -0.18249      1.99920     4.16863    0.01466     6.18249
      C    8   -0.19115      1.99919     4.17693    0.01503     6.19115
      C    9   -0.19150      1.99909     4.17636    0.01605     6.19150
      C   10   -0.35738      1.99898     4.33360    0.02480     6.35738
      C   11   -0.17567      1.99909     4.16118    0.01540     6.17567
      C   12   -0.19989      1.99919     4.18618    0.01452     6.19989
      C   13   -0.16973      1.99921     4.15611    0.01441     6.16973
      C   14   -0.19375      1.99919     4.17979    0.01477     6.19375
      C   15   -0.17272      1.99908     4.15722    0.01642     6.17272
      C   16   -0.34799      1.99899     4.32506    0.02394     6.34799
      C   17   -0.19181      1.99909     4.17742    0.01530     6.19181
      C   18   -0.19776      1.99919     4.18380    0.01477     6.19776
      C   19   -0.18002      1.99920     4.16614    0.01468     6.18002
      C   20   -0.19483      1.99919     4.18077    0.01486     6.19483
      C   21   -0.19512      1.99909     4.17970    0.01632     6.19512
      C   22   -0.34766      1.99896     4.32478    0.02391     6.34766
      C   23   -0.18550      1.99909     4.17092    0.01549     6.18550
      C   24   -0.19101      1.99920     4.17753    0.01429     6.19101
      C   25   -0.18171      1.99920     4.16786    0.01464     6.18171
      C   26   -0.19868      1.99919     4.18467    0.01481     6.19868
      C   27   -0.20772      1.99910     4.19354    0.01509     6.20772
      H   28    0.27614      0.00000     0.72136    0.00250     0.72386
      H   29    0.22481      0.00000     0.77347    0.00172     0.77519
      H   30    0.22291      0.00000     0.77587    0.00123     0.77709
      H   31    0.22230      0.00000     0.77653    0.00117     0.77770
      H   32    0.22110      0.00000     0.77756    0.00133     0.77890
      H   33    0.21182      0.00000     0.78571    0.00246     0.78818
      H   34    0.22342      0.00000     0.77448    0.00210     0.77658
      H   35    0.22091      0.00000     0.77784    0.00125     0.77909
      H   36    0.22208      0.00000     0.77675    0.00116     0.77792
      H   37    0.22139      0.00000     0.77733    0.00128     0.77861
      H   38    0.21450      0.00000     0.78297    0.00253     0.78550
      H   39    0.22054      0.00000     0.77748    0.00198     0.77946
      H   40    0.22129      0.00000     0.77747    0.00125     0.77871
      H   41    0.22330      0.00000     0.77553    0.00118     0.77670
      H   42    0.22493      0.00000     0.77378    0.00129     0.77507
      H   43    0.22893      0.00000     0.76882    0.00225     0.77107
      H   44    0.25384      0.00000     0.74378    0.00237     0.74616
      H   45    0.22057      0.00000     0.77820    0.00123     0.77943
      H   46    0.22031      0.00000     0.77850    0.00119     0.77969
      H   47    0.22043      0.00000     0.77832    0.00125     0.77957
      H   48    0.21681      0.00000     0.78140    0.00179     0.78319
     Rh   49   -0.40020     35.98580     9.38565    0.02876    45.40020
      C   50   -0.18000      1.99907     4.16126    0.01967     6.18000
      C   51   -0.15651      1.99908     4.13765    0.01978     6.15651
      C   52   -0.18133      1.99907     4.16272    0.01955     6.18133
      C   53   -0.15646      1.99908     4.13772    0.01966     6.15646
      C   54   -0.42370      1.99936     4.41250    0.01185     6.42370
      H   55    0.22528      0.00000     0.77257    0.00215     0.77472
      H   56    0.23149      0.00000     0.76627    0.00225     0.76851
      C   57   -0.41903      1.99935     4.40710    0.01258     6.41903
      C   58   -0.42323      1.99936     4.41207    0.01180     6.42323
      H   59    0.22632      0.00000     0.77169    0.00198     0.77368
      C   60   -0.41741      1.99935     4.40547    0.01259     6.41741
      H   61    0.23193      0.00000     0.76606    0.00201     0.76807
      H   62    0.22674      0.00000     0.77175    0.00151     0.77326
      H   63    0.21508      0.00000     0.78294    0.00199     0.78492
      H   64    0.23421      0.00000     0.76389    0.00190     0.76579
      H   65    0.21755      0.00000     0.78089    0.00156     0.78245
      H   66    0.21448      0.00000     0.78354    0.00198     0.78552
      H   67    0.22795      0.00000     0.77056    0.00148     0.77205
      H   68    0.21538      0.00000     0.78305    0.00157     0.78462
      H   69    0.23337      0.00000     0.76473    0.00190     0.76663
      C   70    0.63363      1.99921     3.32743    0.03973     5.36637
      O   71   -0.58400      1.99976     6.57172    0.01252     8.58400
      N   72   -0.43345      1.99934     5.40794    0.02617     7.43345
      C   73    0.12355      1.99886     3.85792    0.01967     5.87645
      C   74   -0.20107      1.99906     4.18801    0.01400     6.20107
      C   75   -0.23310      1.99905     4.21827    0.01578     6.23310
      C   76   -0.19044      1.99921     4.17638    0.01486     6.19044
      H   77    0.22326      0.00000     0.77498    0.00176     0.77674
      C   78   -0.19624      1.99921     4.18163    0.01540     6.19624
      H   79    0.22365      0.00000     0.77379    0.00256     0.77635
      C   80   -0.19993      1.99920     4.18583    0.01490     6.19993
      H   81    0.22034      0.00000     0.77845    0.00121     0.77966
      H   82    0.21932      0.00000     0.77927    0.00140     0.78068
      H   83    0.21972      0.00000     0.77914    0.00114     0.78028
      C   84    0.13585      1.99883     3.84633    0.01899     5.86415
      C   85   -0.20941      1.99907     4.19652    0.01383     6.20941
      C   86   -0.19530      1.99906     4.18204    0.01421     6.19530
      C   87   -0.19120      1.99921     4.17725    0.01474     6.19120
      H   88    0.21580      0.00000     0.78265    0.00155     0.78420
      C   89   -0.19361      1.99921     4.17964    0.01476     6.19361
      H   90    0.21236      0.00000     0.78567    0.00197     0.78764
      C   91   -0.19532      1.99920     4.18142    0.01470     6.19532
      H   92    0.21748      0.00000     0.78132    0.00120     0.78252
      H   93    0.21573      0.00000     0.78307    0.00121     0.78427
      H   94    0.21809      0.00000     0.78075    0.00116     0.78191
 =======================================================================
   * Total *    1.00000    151.93795   255.04331    1.01875   408.00000

 Normal termination of Gaussian 16 at Wed Jan 22 21:03:37 2025.
