 Gaussian 16, Revision B.01,
 Gaussian 16:  ES64L-G16RevB.01 20-Dec-2017

 ------------------------------------------
 # nmr=giao b3lyp/genecp pop=nbo scfcyc=200
 ------------------------------------------

 ---------
 MS-71_SPE
 ---------
 Symbolic Z-matrix:
 Charge =  1 Multiplicity = 1

                         Standard orientation:
 ---------------------------------------------------------------------
 Center     Atomic      Atomic             Coordinates (Angstroms)
 Number     Number       Type             X           Y           Z
 ---------------------------------------------------------------------
      1         15           0        0.991731    1.374921    0.034610
      2         15           0        0.965081   -1.407639   -0.113990
      3          6           0        1.503481    2.115791    1.666510
      4          1           0        0.712280    2.836821    1.887130
      5          1           0        2.417271    2.693871    1.518780
      6          6           0        1.638392   -2.301419    1.381900
      7          1           0        2.206811   -1.568529    1.952830
      8          1           0        2.355162   -3.040769    1.019600
      9          6           0        2.182181   -0.001439   -0.527080
     10          1           0        2.124271    0.080131   -1.630930
     11          6           0        1.042242   -2.694359   -1.462610
     12          1           0        2.035842   -3.146729   -1.451610
     13          1           0        0.341492   -3.472809   -1.146610
     14          6           0        1.217731    2.770591   -1.187570
     15          1           0        0.826331    2.401311   -2.137590
     16          1           0        2.288680    2.929331   -1.325330
     17         45           0       -0.908099    0.001910    0.020270
     18          6           0       -2.581129    1.467310    0.581010
     19          6           0       -2.408659    1.487340   -0.786150
     20          6           0       -2.601369   -1.424140   -0.626540
     21          6           0       -2.489419   -1.454710    0.744820
     22          6           0       -3.692999    0.744920    1.317330
     23          1           0       -2.061749    2.228080    1.154070
     24          1           0       -1.795849    2.281270   -1.197680
     25          6           0       -3.230329    0.755000   -1.817470
     26          6           0       -3.659089   -0.669390   -1.408170
     27          1           0       -2.080308   -2.198880   -1.177860
     28          6           0       -3.325719   -0.693180    1.742470
     29          1           0       -1.915188   -2.267310    1.174320
     30          1           0       -3.942689    1.314780    2.213660
     31          1           0       -4.594629    0.741220    0.705230
     32          1           0       -4.116579    1.350360   -2.070450
     33          1           0       -2.638539    0.700800   -2.733860
     34          1           0       -4.583699   -0.637100   -0.832430
     35          1           0       -3.890159   -1.233530   -2.313190
     36          1           0       -2.769109   -0.655920    2.681620
     37          1           0       -4.240159   -1.258260    1.962170
     38          6           0        4.275911   -1.215099   -0.603860
     39          1           0        5.286831   -1.225508   -0.197410
     40          1           0        3.799852   -2.148829   -0.315310
     41          1           0        4.347661   -1.182719   -1.702990
     42          6           0        4.312461    1.157581   -0.328600
     43          1           0        4.397381    1.371531   -1.406430
     44          1           0        3.861551    2.016531    0.161710
     45          1           0        5.318791    1.044562    0.073700
     46          7           0        3.552961   -0.064789   -0.053250
     47          6           0        0.536870    4.087151   -0.800860
     48          1           0        0.643570    4.807031   -1.613790
     49          1           0       -0.530710    3.966050   -0.611370
     50          1           0        0.986250    4.531881    0.087290
     51          6           0        1.662951    1.143761    2.834090
     52          1           0        0.767361    0.536261    2.974850
     53          1           0        2.517241    0.484601    2.684590
     54          1           0        1.832781    1.702411    3.755910
     55          6           0        0.587562   -2.978869    2.262390
     56          1           0        1.080352   -3.504289    3.082170
     57          1           0       -0.098368   -2.252359    2.698360
     58          1           0        0.001482   -3.717919    1.712420
     59          6           0        0.687602   -2.198489   -2.864270
     60          1           0        0.662082   -3.038549   -3.560180
     61          1           0       -0.288499   -1.712210   -2.885880
     62          1           0        1.424421   -1.488379   -3.242290
 ---------------------------------------------------------------------

 SCF Done:  E(RB3LYP) =  -1595.73614594     A.U. after   15 cycles

      1  P    Isotropic =   292.8467   Anisotropy =    49.7875

      2  P    Isotropic =   292.2307   Anisotropy =    57.3775

      3  C    Isotropic =   157.7195   Anisotropy =    19.6365

      4  H    Isotropic =    30.0964   Anisotropy =     6.9206

      5  H    Isotropic =    29.8054   Anisotropy =     8.1327

      6  C    Isotropic =   158.9162   Anisotropy =    25.7388

      7  H    Isotropic =    29.4065   Anisotropy =     6.1418

      8  H    Isotropic =    30.1097   Anisotropy =     8.2609

      9  C    Isotropic =    99.9164   Anisotropy =    81.3587

     10  H    Isotropic =    28.1706   Anisotropy =     2.6931

     11  C    Isotropic =   155.8262   Anisotropy =    25.4192

     12  H    Isotropic =    30.1234   Anisotropy =     8.0909

     13  H    Isotropic =    30.1706   Anisotropy =     7.2315

     14  C    Isotropic =   153.9605   Anisotropy =    28.3294

     15  H    Isotropic =    30.0917   Anisotropy =     5.6688

     16  H    Isotropic =    29.7637   Anisotropy =     7.2760

     17  Rh   Isotropic =  -281.3897   Anisotropy =   336.9879

     18  C    Isotropic =    80.7316   Anisotropy =   120.2641

     19  C    Isotropic =    75.8463   Anisotropy =   118.2508

     20  C    Isotropic =    76.5769   Anisotropy =   125.7506

     21  C    Isotropic =    75.8619   Anisotropy =   119.5027

     22  C    Isotropic =   154.3412   Anisotropy =    24.6333

     23  H    Isotropic =    26.9670   Anisotropy =     7.2039

     24  H    Isotropic =    26.1018   Anisotropy =     5.0756

     25  C    Isotropic =   147.2312   Anisotropy =    30.4384

     26  C    Isotropic =   154.3438   Anisotropy =    24.5758

     27  H    Isotropic =    26.9951   Anisotropy =     6.5951

     28  C    Isotropic =   148.3094   Anisotropy =    29.4957

     29  H    Isotropic =    26.1470   Anisotropy =     4.5534

     30  H    Isotropic =    29.8524   Anisotropy =    11.6411

     31  H    Isotropic =    29.7652   Anisotropy =     9.4671

     32  H    Isotropic =    29.0579   Anisotropy =    12.5388

     33  H    Isotropic =    29.1618   Anisotropy =     7.6913

     34  H    Isotropic =    29.7531   Anisotropy =     9.3627

     35  H    Isotropic =    29.8670   Anisotropy =    11.4859

     36  H    Isotropic =    29.1668   Anisotropy =     7.6990

     37  H    Isotropic =    29.0856   Anisotropy =    12.5746

     38  C    Isotropic =   137.9133   Anisotropy =    69.4329

     39  H    Isotropic =    29.5285   Anisotropy =    11.5519

     40  H    Isotropic =    29.7993   Anisotropy =     5.9759

     41  H    Isotropic =    30.2236   Anisotropy =     8.4465

     42  C    Isotropic =   138.2137   Anisotropy =    64.6566

     43  H    Isotropic =    30.1204   Anisotropy =     8.6018

     44  H    Isotropic =    29.5894   Anisotropy =     6.1200

     45  H    Isotropic =    29.3864   Anisotropy =    11.2110

     46  N    Isotropic =   204.3940   Anisotropy =    54.0018

     47  C    Isotropic =   175.2104   Anisotropy =    18.6328

     48  H    Isotropic =    30.4267   Anisotropy =    12.9449

     49  H    Isotropic =    31.2183   Anisotropy =     6.4332

     50  H    Isotropic =    30.9185   Anisotropy =     8.7731

     51  C    Isotropic =   172.8588   Anisotropy =    16.6427

     52  H    Isotropic =    30.3950   Anisotropy =     5.8134

     53  H    Isotropic =    30.2830   Anisotropy =     6.0540

     54  H    Isotropic =    30.2305   Anisotropy =    12.7934

     55  C    Isotropic =   172.0998   Anisotropy =    16.2406

     56  H    Isotropic =    30.2666   Anisotropy =    12.9438

     57  H    Isotropic =    30.6378   Anisotropy =     6.2201

     58  H    Isotropic =    30.9009   Anisotropy =     7.7106

     59  C    Isotropic =   174.1817   Anisotropy =    18.1813

     60  H    Isotropic =    30.3132   Anisotropy =    12.9577

     61  H    Isotropic =    30.5762   Anisotropy =     7.3989

     62  H    Isotropic =    30.6559   Anisotropy =     7.1185

 The electronic state is 1-A.
 Alpha  occ. eigenvalues --  -77.24031 -77.23843 -14.43645 -10.34241 -10.30234
 Alpha  occ. eigenvalues --  -10.30208 -10.30198 -10.29968 -10.29907 -10.29900
 Alpha  occ. eigenvalues --  -10.29851 -10.29748 -10.29681 -10.29590 -10.28238
 Alpha  occ. eigenvalues --  -10.28189 -10.27987 -10.27956 -10.27942 -10.27720
 Alpha  occ. eigenvalues --  -10.27618 -10.27440  -6.70059  -6.69879  -4.86353
 Alpha  occ. eigenvalues --   -4.86248  -4.86170  -4.86062  -4.85967  -4.85794
 Alpha  occ. eigenvalues --   -3.32138  -2.09046  -2.08365  -2.05585  -1.04517
 Alpha  occ. eigenvalues --   -0.95197  -0.91499  -0.90426  -0.89933  -0.88735
 Alpha  occ. eigenvalues --   -0.87719  -0.87536  -0.84864  -0.82030  -0.81086
 Alpha  occ. eigenvalues --   -0.78578  -0.77801  -0.77192  -0.74019  -0.73334
 Alpha  occ. eigenvalues --   -0.72435  -0.71281  -0.66712  -0.66427  -0.65720
 Alpha  occ. eigenvalues --   -0.63225  -0.60952  -0.60601  -0.58640  -0.58255
 Alpha  occ. eigenvalues --   -0.57519  -0.57257  -0.57020  -0.56909  -0.56268
 Alpha  occ. eigenvalues --   -0.56135  -0.55286  -0.55031  -0.54337  -0.53478
 Alpha  occ. eigenvalues --   -0.53327  -0.52915  -0.52245  -0.51169  -0.50567
 Alpha  occ. eigenvalues --   -0.50225  -0.49704  -0.49607  -0.49580  -0.48954
 Alpha  occ. eigenvalues --   -0.48559  -0.48347  -0.48022  -0.47798  -0.47390
 Alpha  occ. eigenvalues --   -0.47255  -0.46767  -0.46679  -0.46335  -0.44042
 Alpha  occ. eigenvalues --   -0.43922  -0.43791  -0.43634  -0.43017  -0.42224
 Alpha  occ. eigenvalues --   -0.41599  -0.37656  -0.37421  -0.35720  -0.35226
 Alpha  occ. eigenvalues --   -0.34417  -0.33797  -0.31478
 Alpha virt. eigenvalues --   -0.17012  -0.14194  -0.10189  -0.09226  -0.09183
 Alpha virt. eigenvalues --   -0.08575  -0.07994  -0.07424  -0.06406  -0.06140
 Alpha virt. eigenvalues --   -0.05404  -0.05306  -0.05103  -0.04944  -0.04227

 Mulliken charges:
               1
     1  P    0.363172
     2  P    0.342945
     3  C   -0.283252
     4  H    0.166648
     5  H    0.157403
     6  C   -0.241781
     7  H    0.174765
     8  H    0.151520
     9  C   -0.436845
    10  H    0.182049
    11  C   -0.276711
    12  H    0.159265
    13  H    0.157619
    14  C   -0.279267
    15  H    0.154514
    16  H    0.169975
    17  Rh  -0.520607
    18  C    0.000341
    19  C   -0.095805
    20  C   -0.032014
    21  C   -0.089905
    22  C   -0.359086
    23  H    0.170658
    24  H    0.170949
    25  C   -0.223002
    26  C   -0.348703
    27  H    0.175468
    28  C   -0.216318
    29  H    0.184667
    30  H    0.171298
    31  H    0.168644
    32  H    0.175087
    33  H    0.130366
    34  H    0.170213
    35  H    0.169677
    36  H    0.132317
    37  H    0.174206
    38  C   -0.287520
    39  H    0.153383
    40  H    0.130542
    41  H    0.120050
    42  C   -0.301853
    43  H    0.122498
    44  H    0.128452
    45  H    0.155881
    46  N   -0.116649
    47  C   -0.406135
    48  H    0.164723
    49  H    0.137141
    50  H    0.152518
    51  C   -0.416186
    52  H    0.131181
    53  H    0.154250
    54  H    0.162908
    55  C   -0.425065
    56  H    0.166292
    57  H    0.141621
    58  H    0.127955
    59  C   -0.388489
    60  H    0.164269
    61  H    0.129619
    62  H    0.128149
 Sum of Mulliken charges =   1.00000

 Dipole moment (field-independent basis, Debye):
    X=              1.5895    Y=              0.1761    Z=             -0.5650  Tot=              1.6961
 Quadrupole moment (field-independent basis, Debye-Ang):
   XX=           -134.5889   YY=           -144.6242   ZZ=           -157.8060
   XY=              0.4111   XZ=             -1.4909   YZ=              0.8440

 Summary of Natural Population Analysis:

                                       Natural Population
                Natural  -----------------------------------------------
    Atom  No    Charge         Core      Valence    Rydberg      Total
 -----------------------------------------------------------------------
      P    1    1.10233      9.99670     3.85081    0.05015    13.89767
      P    2    1.09805      9.99672     3.85573    0.04951    13.90195
      C    3   -0.67349      1.99939     4.65941    0.01469     6.67349
      H    4    0.23489      0.00000     0.76371    0.00140     0.76511
      H    5    0.22750      0.00000     0.77033    0.00217     0.77250
      C    6   -0.67648      1.99938     4.66227    0.01484     6.67648
      H    7    0.24448      0.00000     0.75345    0.00207     0.75552
      H    8    0.22666      0.00000     0.77111    0.00223     0.77334
      C    9   -0.56337      1.99933     4.53808    0.02596     6.56337
      H   10    0.20800      0.00000     0.78588    0.00612     0.79200
      C   11   -0.67470      1.99940     4.66111    0.01419     6.67470
      H   12    0.22931      0.00000     0.76854    0.00215     0.77069
      H   13    0.23220      0.00000     0.76623    0.00157     0.76780
      C   14   -0.67345      1.99940     4.65980    0.01425     6.67345
      H   15    0.23281      0.00000     0.76577    0.00142     0.76719
      H   16    0.23117      0.00000     0.76673    0.00209     0.76883
     Rh   17   -0.42225     35.98612     9.41000    0.02613    45.42225
      C   18   -0.18321      1.99908     4.16406    0.02008     6.18321
      C   19   -0.15713      1.99908     4.13757    0.02048     6.15713
      C   20   -0.17118      1.99907     4.15208    0.02002     6.17118
      C   21   -0.16625      1.99908     4.14667    0.02050     6.16625
      C   22   -0.42356      1.99936     4.41217    0.01203     6.42356
      H   23    0.22267      0.00000     0.77524    0.00209     0.77733
      H   24    0.21997      0.00000     0.77795    0.00208     0.78003
      C   25   -0.41880      1.99935     4.40658    0.01287     6.41880
      C   26   -0.42547      1.99936     4.41393    0.01218     6.42547
      H   27    0.22085      0.00000     0.77720    0.00196     0.77915
      C   28   -0.41947      1.99935     4.40721    0.01292     6.41947
      H   29    0.22586      0.00000     0.77206    0.00208     0.77414
      H   30    0.22971      0.00000     0.76887    0.00142     0.77029
      H   31    0.21564      0.00000     0.78244    0.00191     0.78436
      H   32    0.23518      0.00000     0.76302    0.00181     0.76482
      H   33    0.21619      0.00000     0.78221    0.00160     0.78381
      H   34    0.21628      0.00000     0.78180    0.00192     0.78372
      H   35    0.22926      0.00000     0.76932    0.00142     0.77074
      H   36    0.21633      0.00000     0.78200    0.00167     0.78367
      H   37    0.23579      0.00000     0.76240    0.00181     0.76421
      C   38   -0.40456      1.99936     4.39361    0.01159     6.40456
      H   39    0.21608      0.00000     0.78249    0.00144     0.78392
      H   40    0.18995      0.00000     0.80741    0.00264     0.81005
      H   41    0.16832      0.00000     0.82779    0.00388     0.83168
      C   42   -0.40454      1.99936     4.39348    0.01170     6.40454
      H   43    0.16736      0.00000     0.82857    0.00407     0.83264
      H   44    0.18945      0.00000     0.80800    0.00255     0.81055
      H   45    0.21637      0.00000     0.78219    0.00144     0.78363
      N   46   -0.44580      1.99954     5.42162    0.02465     7.44580
      C   47   -0.59674      1.99945     4.58981    0.00748     6.59674
      H   48    0.23041      0.00000     0.76838    0.00121     0.76959
      H   49    0.20384      0.00000     0.79469    0.00148     0.79616
      H   50    0.21014      0.00000     0.78845    0.00142     0.78986
      C   51   -0.59544      1.99944     4.58849    0.00751     6.59544
      H   52    0.21083      0.00000     0.78781    0.00136     0.78917
      H   53    0.21400      0.00000     0.78409    0.00192     0.78600
      H   54    0.22639      0.00000     0.77238    0.00123     0.77361
      C   55   -0.59053      1.99945     4.58410    0.00697     6.59053
      H   56    0.22810      0.00000     0.77065    0.00125     0.77190
      H   57    0.20927      0.00000     0.78926    0.00146     0.79073
      H   58    0.20317      0.00000     0.79533    0.00150     0.79683
      C   59   -0.59342      1.99945     4.58661    0.00737     6.59342
      H   60    0.22800      0.00000     0.77078    0.00122     0.77200
      H   61    0.21276      0.00000     0.78582    0.00142     0.78724
      H   62    0.20427      0.00000     0.79433    0.00140     0.79573
 =======================================================================
   * Total *    1.00000     95.96622   137.53981    0.49396   234.00000

 Normal termination of Gaussian 16 at Wed Jan 22 20:25:40 2025.
