 Gaussian 16, Revision B.01,
 Gaussian 16:  ES64L-G16RevB.01 20-Dec-2017

 ------------------------------------------
 # nmr=giao b3lyp/genecp pop=nbo scfcyc=200
 ------------------------------------------

 ---------
 MS-72_SPE
 ---------
 Symbolic Z-matrix:
 Charge =  1 Multiplicity = 1

                         Standard orientation:
 ---------------------------------------------------------------------
 Center     Atomic      Atomic             Coordinates (Angstroms)
 Number     Number       Type             X           Y           Z
 ---------------------------------------------------------------------
      1         15           0        0.879089   -1.412331    0.018641
      2          7           0        3.152361    0.140987   -0.571409
      3          6           0        1.695851    0.130278   -0.665669
      4          1           0        1.446921    0.114319   -1.732649
      5         15           0        0.410572    1.393500   -0.073509
      6          6           0        1.883068   -2.617982   -1.071879
      7          1           0        1.720067   -3.649222   -0.755829
      8          1           0        1.537218   -2.521751   -2.102219
      9          7           0        3.304348   -2.295133   -0.982149
     10          7           0        3.341299   -1.456653    1.312751
     11          6           0        1.919059   -1.621152    1.590771
     12          1           0        1.594420   -0.901152    2.341911
     13          1           0        1.735638   -2.616152    2.001041
     14          6           0        3.658969   -0.947384   -1.449249
     15          1           0        3.281430   -0.798413   -2.461259
     16          1           0        4.746880   -0.879175   -1.476869
     17          6           0        3.834198   -2.473084    0.376561
     18          1           0        3.573067   -3.465784    0.744731
     19          1           0        4.921658   -2.401965    0.331481
     20          6           0        3.662680   -0.120424    0.792871
     21          1           0        3.285441    0.631527    1.480851
     22          1           0        4.748270   -0.023805    0.758251
     23          6           0        0.321063    2.693050   -1.441459
     24          1           0       -0.148217    2.112870   -2.243439
     25          6           0       -0.617795    3.855661   -1.092469
     26          1           0       -1.590146    3.522642   -0.726519
     27          1           0       -0.181365    4.513110   -0.339929
     28          1           0       -0.792535    4.459231   -1.985669
     29          6           0        1.676324    3.194618   -1.957969
     30          1           0        2.372553    2.383618   -2.170399
     31          1           0        1.517825    3.751279   -2.884879
     32          1           0        2.156865    3.868668   -1.250609
     33          6           0        0.940103    2.163589    1.566601
     34          1           0        1.297542    1.295469    2.126131
     35          6           0       -0.260307    2.726250    2.341411
     36          1           0       -1.025397    1.967821    2.506771
     37          1           0        0.076704    3.078690    3.318681
     38          1           0       -0.718606    3.574351    1.831711
     39          6           0        2.081444    3.184358    1.473811
     40          1           0        2.927874    2.824537    0.889501
     41          1           0        1.742215    4.121638    1.032661
     42          1           0        2.440084    3.413828    2.480111
     43         45           0       -1.250130   -0.380418    0.033001
     44          6           0       -3.162639    0.757654    0.447981
     45          6           0       -2.952999    0.708763   -0.918419
     46          6           0       -2.571932   -2.139887   -0.527399
     47          6           0       -2.503462   -2.043517    0.848911
     48          6           0       -4.144660   -0.105745    1.218501
     49          1           0       -2.831088    1.653513    0.960461
     50          1           0       -2.503548    1.580533   -1.380839
     51          6           0       -3.594180   -0.242266   -1.898779
     52          6           0       -3.741181   -1.687636   -1.381349
     53          1           0       -1.886563   -2.830308   -1.006089
     54          6           0       -3.523231   -1.410396    1.762401
     55          1           0       -1.788782   -2.685788    1.354401
     56          1           0       -4.527859    0.471625    2.061201
     57          1           0       -5.007900   -0.327254    0.591041
     58          1           0       -4.573919    0.148745   -2.201009
     59          1           0       -2.983870   -0.246687   -2.804499
     60          1           0       -4.669191   -1.800365   -0.821339
     61          1           0       -3.825392   -2.356706   -2.239039
     62          1           0       -3.030051   -1.201047    2.714091
     63          1           0       -4.315602   -2.134045    1.990491
 ---------------------------------------------------------------------

 SCF Done:  E(RB3LYP) =  -1742.13520584     A.U. after   15 cycles

      1  P    Isotropic =   391.4155   Anisotropy =    74.8275

      2  N    Isotropic =   192.5539   Anisotropy =    58.8924

      3  C    Isotropic =   103.9699   Anisotropy =    54.3516

      4  H    Isotropic =    26.7179   Anisotropy =     5.5599

      5  P    Isotropic =   259.7822   Anisotropy =    65.9976

      6  C    Isotropic =   119.4975   Anisotropy =    35.5261

      7  H    Isotropic =    27.4390   Anisotropy =     5.2845

      8  H    Isotropic =    27.7926   Anisotropy =     5.0093

      9  N    Isotropic =   181.8920   Anisotropy =    38.7142

     10  N    Isotropic =   197.4861   Anisotropy =    46.5071

     11  C    Isotropic =   125.3516   Anisotropy =    46.5083

     12  H    Isotropic =    27.6230   Anisotropy =     2.7291

     13  H    Isotropic =    27.6161   Anisotropy =     4.5119

     14  C    Isotropic =   102.3494   Anisotropy =    28.6273

     15  H    Isotropic =    27.2216   Anisotropy =     5.3273

     16  H    Isotropic =    27.2543   Anisotropy =     7.6179

     17  C    Isotropic =   107.1842   Anisotropy =    20.7774

     18  H    Isotropic =    27.3678   Anisotropy =     6.6781

     19  H    Isotropic =    27.4254   Anisotropy =     8.1686

     20  C    Isotropic =   111.6198   Anisotropy =    22.4903

     21  H    Isotropic =    27.2286   Anisotropy =     4.4301

     22  H    Isotropic =    27.3768   Anisotropy =     7.1387

     23  C    Isotropic =   138.6978   Anisotropy =    32.4504

     24  H    Isotropic =    29.4880   Anisotropy =     4.7017

     25  C    Isotropic =   164.7861   Anisotropy =    26.0139

     26  H    Isotropic =    30.8970   Anisotropy =     5.7046

     27  H    Isotropic =    30.6845   Anisotropy =     6.5461

     28  H    Isotropic =    30.4072   Anisotropy =    11.1582

     29  C    Isotropic =   163.0551   Anisotropy =    30.8642

     30  H    Isotropic =    30.1708   Anisotropy =     6.7966

     31  H    Isotropic =    30.4556   Anisotropy =    11.6638

     32  H    Isotropic =    30.4739   Anisotropy =     6.1550

     33  C    Isotropic =   143.4604   Anisotropy =    26.3609

     34  H    Isotropic =    29.0405   Anisotropy =     5.4906

     35  C    Isotropic =   161.0145   Anisotropy =    31.0631

     36  H    Isotropic =    30.1637   Anisotropy =     7.7067

     37  H    Isotropic =    30.3587   Anisotropy =    10.9132

     38  H    Isotropic =    30.6064   Anisotropy =     5.3970

     39  C    Isotropic =   161.7901   Anisotropy =    27.6051

     40  H    Isotropic =    30.2016   Anisotropy =     6.0932

     41  H    Isotropic =    30.4337   Anisotropy =     6.5061

     42  H    Isotropic =    30.2993   Anisotropy =    11.4577

     43  Rh   Isotropic =  -326.6762   Anisotropy =   385.0979

     44  C    Isotropic =    82.7560   Anisotropy =   116.9756

     45  C    Isotropic =    75.7337   Anisotropy =   116.7755

     46  C    Isotropic =    82.4440   Anisotropy =   119.1130

     47  C    Isotropic =    80.1260   Anisotropy =   113.1225

     48  C    Isotropic =   154.2185   Anisotropy =    25.0038

     49  H    Isotropic =    27.0368   Anisotropy =     5.4835

     50  H    Isotropic =    26.3402   Anisotropy =     4.2459

     51  C    Isotropic =   146.8091   Anisotropy =    31.7653

     52  C    Isotropic =   154.3594   Anisotropy =    24.9844

     53  H    Isotropic =    27.2772   Anisotropy =     8.0267

     54  C    Isotropic =   147.2092   Anisotropy =    30.0864

     55  H    Isotropic =    26.8306   Anisotropy =     6.1020

     56  H    Isotropic =    29.9131   Anisotropy =    11.1259

     57  H    Isotropic =    29.9252   Anisotropy =     9.2018

     58  H    Isotropic =    29.1426   Anisotropy =    12.1299

     59  H    Isotropic =    29.1674   Anisotropy =     7.7227

     60  H    Isotropic =    29.9219   Anisotropy =     9.0273

     61  H    Isotropic =    29.9793   Anisotropy =    11.6769

     62  H    Isotropic =    29.2468   Anisotropy =     7.9432

     63  H    Isotropic =    29.1629   Anisotropy =    12.4919

 The electronic state is 1-A.
 Alpha  occ. eigenvalues --  -77.23831 -77.22704 -14.43933 -14.43727 -14.43430
 Alpha  occ. eigenvalues --  -10.33997 -10.33979 -10.33815 -10.33568 -10.33292
 Alpha  occ. eigenvalues --  -10.32984 -10.31384 -10.31017 -10.30241 -10.30012
 Alpha  occ. eigenvalues --  -10.29850 -10.29799 -10.28353 -10.28263 -10.28059
 Alpha  occ. eigenvalues --  -10.28049 -10.27757 -10.27600 -10.27548 -10.26951
 Alpha  occ. eigenvalues --   -6.69854  -6.68965  -4.86146  -4.86038  -4.85756
 Alpha  occ. eigenvalues --   -4.85191  -4.85131  -4.84906  -3.32730  -2.09602
 Alpha  occ. eigenvalues --   -2.08977  -2.06172  -1.11008  -1.01883  -1.01624
 Alpha  occ. eigenvalues --   -0.95367  -0.92873  -0.90259  -0.90079  -0.89279
 Alpha  occ. eigenvalues --   -0.88851  -0.83461  -0.82754  -0.81241  -0.80423
 Alpha  occ. eigenvalues --   -0.79768  -0.78669  -0.78519  -0.76033  -0.73928
 Alpha  occ. eigenvalues --   -0.72996  -0.71405  -0.70707  -0.67558  -0.66813
 Alpha  occ. eigenvalues --   -0.65337  -0.63333  -0.61198  -0.61128  -0.60985
 Alpha  occ. eigenvalues --   -0.60581  -0.59877  -0.58307  -0.57775  -0.57140
 Alpha  occ. eigenvalues --   -0.56957  -0.56291  -0.55985  -0.55216  -0.54427
 Alpha  occ. eigenvalues --   -0.53749  -0.53525  -0.53048  -0.52469  -0.52166
 Alpha  occ. eigenvalues --   -0.51364  -0.50862  -0.50730  -0.50321  -0.50027
 Alpha  occ. eigenvalues --   -0.49424  -0.49263  -0.49065  -0.48869  -0.48600
 Alpha  occ. eigenvalues --   -0.47968  -0.47672  -0.47107  -0.46865  -0.46713
 Alpha  occ. eigenvalues --   -0.46569  -0.46382  -0.46182  -0.44226  -0.44119
 Alpha  occ. eigenvalues --   -0.43944  -0.41842  -0.41717  -0.40465  -0.37697
 Alpha  occ. eigenvalues --   -0.36819  -0.36128  -0.35954  -0.35071  -0.32920
 Alpha  occ. eigenvalues --   -0.32458  -0.31912
 Alpha virt. eigenvalues --   -0.17288  -0.15871  -0.10982  -0.10024  -0.09635
 Alpha virt. eigenvalues --   -0.08821  -0.07993  -0.07688  -0.06968  -0.06134
 Alpha virt. eigenvalues --   -0.05719  -0.05287  -0.04898  -0.04707  -0.04380

 Mulliken charges:
               1
     1  P    0.414320
     2  N    0.036597
     3  C   -0.536537
     4  H    0.214544
     5  P    0.425274
     6  C   -0.329048
     7  H    0.188334
     8  H    0.186653
     9  N   -0.034873
    10  N   -0.020082
    11  C   -0.371020
    12  H    0.194117
    13  H    0.186215
    14  C   -0.298907
    15  H    0.177641
    16  H    0.195180
    17  C   -0.316881
    18  H    0.181639
    19  H    0.193599
    20  C   -0.316920
    21  H    0.187889
    22  H    0.191190
    23  C   -0.208339
    24  H    0.160855
    25  C   -0.426072
    26  H    0.143575
    27  H    0.147462
    28  H    0.161088
    29  C   -0.341957
    30  H    0.152270
    31  H    0.149154
    32  H    0.143280
    33  C   -0.151094
    34  H    0.117474
    35  C   -0.417557
    36  H    0.143442
    37  H    0.159479
    38  H    0.150740
    39  C   -0.405088
    40  H    0.163755
    41  H    0.143081
    42  H    0.157562
    43  Rh  -0.535812
    44  C   -0.035627
    45  C   -0.099141
    46  C   -0.023556
    47  C   -0.073874
    48  C   -0.353852
    49  H    0.187369
    50  H    0.187613
    51  C   -0.227759
    52  C   -0.346464
    53  H    0.176687
    54  C   -0.211680
    55  H    0.171914
    56  H    0.171391
    57  H    0.169002
    58  H    0.173897
    59  H    0.131465
    60  H    0.170097
    61  H    0.171006
    62  H    0.131541
    63  H    0.173749
 Sum of Mulliken charges =   1.00000

 Dipole moment (field-independent basis, Debye):
    X=             -0.3810    Y=              0.1584    Z=             -0.1947  Tot=              0.4563
 Quadrupole moment (field-independent basis, Debye-Ang):
   XX=           -150.1370   YY=           -159.2386   ZZ=           -173.0359
   XY=              0.9497   XZ=              0.3812   YZ=             -0.1930

 Summary of Natural Population Analysis:

                                       Natural Population
                Natural  -----------------------------------------------
    Atom  No    Charge         Core      Valence    Rydberg      Total
 -----------------------------------------------------------------------
      P    1    0.92384      9.99683     4.03592    0.04341    14.07616
      N    2   -0.45373      1.99954     5.43094    0.02324     7.45373
      C    3   -0.58899      1.99933     4.56294    0.02671     6.58899
      H    4    0.23568      0.00000     0.76118    0.00314     0.76432
      P    5    1.09479      9.99677     3.85950    0.04893    13.90521
      C    6   -0.45593      1.99934     4.43922    0.01737     6.45593
      H    7    0.22486      0.00000     0.77311    0.00202     0.77514
      H    8    0.22326      0.00000     0.77467    0.00208     0.77674
      N    9   -0.41510      1.99960     5.39663    0.01888     7.41510
      N   10   -0.42057      1.99959     5.40129    0.01968     7.42057
      C   11   -0.47287      1.99935     4.45589    0.01763     6.47287
      H   12    0.21990      0.00000     0.77806    0.00204     0.78010
      H   13    0.22674      0.00000     0.77128    0.00198     0.77326
      C   14   -0.07495      1.99932     4.05605    0.01958     6.07495
      H   15    0.19639      0.00000     0.80116    0.00245     0.80361
      H   16    0.21194      0.00000     0.78591    0.00215     0.78806
      C   17   -0.07794      1.99934     4.05923    0.01938     6.07794
      H   18    0.19930      0.00000     0.79797    0.00273     0.80070
      H   19    0.20987      0.00000     0.78795    0.00218     0.79013
      C   20   -0.08046      1.99931     4.06188    0.01927     6.08046
      H   21    0.19650      0.00000     0.80102    0.00247     0.80350
      H   22    0.21162      0.00000     0.78628    0.00210     0.78838
      C   23   -0.46301      1.99940     4.44900    0.01461     6.46301
      H   24    0.21998      0.00000     0.77824    0.00177     0.78002
      C   25   -0.60008      1.99940     4.59294    0.00774     6.60008
      H   26    0.20684      0.00000     0.79166    0.00150     0.79316
      H   27    0.20734      0.00000     0.79083    0.00183     0.79266
      H   28    0.22708      0.00000     0.77139    0.00152     0.77292
      C   29   -0.60080      1.99941     4.59323    0.00816     6.60080
      H   30    0.21688      0.00000     0.78139    0.00172     0.78312
      H   31    0.22148      0.00000     0.77707    0.00145     0.77852
      H   32    0.21048      0.00000     0.78792    0.00160     0.78952
      C   33   -0.46972      1.99940     4.45501    0.01531     6.46972
      H   34    0.21422      0.00000     0.78323    0.00255     0.78578
      C   35   -0.59529      1.99941     4.58863    0.00726     6.59529
      H   36    0.21453      0.00000     0.78410    0.00137     0.78547
      H   37    0.22407      0.00000     0.77441    0.00152     0.77593
      H   38    0.20782      0.00000     0.79058    0.00160     0.79218
      C   39   -0.60710      1.99941     4.59930    0.00840     6.60710
      H   40    0.21659      0.00000     0.78169    0.00172     0.78341
      H   41    0.20939      0.00000     0.78881    0.00181     0.79061
      H   42    0.22403      0.00000     0.77447    0.00150     0.77597
     Rh   43   -0.38374     35.98468     9.37206    0.02700    45.38374
      C   44   -0.17743      1.99903     4.15845    0.01995     6.17743
      C   45   -0.14450      1.99904     4.12511    0.02035     6.14450
      C   46   -0.16329      1.99904     4.14445    0.01979     6.16329
      C   47   -0.15435      1.99904     4.13499    0.02032     6.15435
      C   48   -0.42438      1.99937     4.41310    0.01192     6.42438
      H   49    0.22512      0.00000     0.77266    0.00221     0.77488
      H   50    0.22129      0.00000     0.77668    0.00203     0.77871
      C   51   -0.42179      1.99936     4.40990    0.01253     6.42179
      C   52   -0.42506      1.99937     4.41380    0.01189     6.42506
      H   53    0.22716      0.00000     0.77132    0.00152     0.77284
      C   54   -0.42182      1.99936     4.41004    0.01242     6.42182
      H   55    0.22498      0.00000     0.77337    0.00165     0.77502
      H   56    0.22970      0.00000     0.76889    0.00141     0.77030
      H   57    0.21524      0.00000     0.78278    0.00198     0.78476
      H   58    0.23520      0.00000     0.76298    0.00182     0.76480
      H   59    0.21835      0.00000     0.78012    0.00153     0.78165
      H   60    0.21540      0.00000     0.78266    0.00194     0.78460
      H   61    0.23014      0.00000     0.76849    0.00137     0.76986
      H   62    0.21915      0.00000     0.77932    0.00153     0.78085
      H   63    0.23571      0.00000     0.76248    0.00181     0.76429
 =======================================================================
   * Total *    1.00000    101.96303   149.47562    0.56135   252.00000

 Normal termination of Gaussian 16 at Wed Jan 22 20:34:17 2025.
