 Gaussian 16, Revision B.01,
 Gaussian 16:  ES64L-G16RevB.01 20-Dec-2017

 ------------------------------------------
 # nmr=giao b3lyp/genecp pop=nbo scfcyc=200
 ------------------------------------------

 ---------
 MS-73_SPE
 ---------
 Symbolic Z-matrix:
 Charge =  1 Multiplicity = 1

                         Standard orientation:
 ---------------------------------------------------------------------
 Center     Atomic      Atomic             Coordinates (Angstroms)
 Number     Number       Type             X           Y           Z
 ---------------------------------------------------------------------
      1         15           0       -0.633844    1.363793   -0.133330
      2         15           0       -0.753657   -1.318567   -0.101090
      3          8           0       -1.414171    2.107036    1.091230
      4          8           0       -0.385109    2.493472   -1.281860
      5          8           0       -1.571950   -1.942383    1.164260
      6          8           0       -0.632472   -2.505527   -1.212230
      7          6           0       -1.916020    0.069219   -0.693670
      8          6           0       -0.702388    2.800053    2.155830
      9          6           0       -1.717675    3.254508    3.179060
     10          6           0       -1.351854    3.474056   -1.764520
     11          6           0       -0.606730    4.499133   -2.588490
     12          6           0       -0.894103   -2.673186    2.227290
     13          6           0       -1.910274   -2.987471    3.300820
     14          6           0       -1.694216   -3.405422   -1.650790
     15          6           0       -1.060442   -4.524915   -2.444500
     16          1           0       -1.804000    0.048218   -1.799540
     17          1           0       -0.164434    3.650371    1.728640
     18          1           0        0.022509    2.110720    2.595140
     19          1           0       -1.208073    3.771285    3.994820
     20          1           0       -2.258549    2.403190    3.592740
     21          1           0       -2.438062    3.943091    2.736510
     22          1           0       -1.847782    3.934118   -0.908500
     23          1           0       -2.099317    2.952290   -2.364270
     24          1           0       -1.312156    5.237616   -2.974830
     25          1           0        0.137603    5.020949   -1.985970
     26          1           0       -0.105632    4.029780   -3.435600
     27          1           0       -0.084510   -2.050290    2.614990
     28          1           0       -0.463937   -3.587098    1.809750
     29          1           0       -1.425607   -3.530544    4.114700
     30          1           0       -2.343210   -2.072229    3.704980
     31          1           0       -2.715197   -3.609338    2.907930
     32          1           0       -2.395814   -2.835649   -2.261990
     33          1           0       -2.220918   -3.785900   -0.774380
     34          1           0       -1.838005   -5.204962   -2.798290
     35          1           0       -0.527300   -4.135288   -3.312230
     36          1           0       -0.362154   -5.095059   -1.830740
     37         45           0        1.137839   -0.054206    0.125130
     38          6           0        2.845946    1.342897   -0.617270
     39          6           0        2.814256    1.383437    0.754630
     40          6           0        2.842652   -1.566243    0.594960
     41          6           0        2.585132   -1.599442   -0.753980
     42          6           0        3.825332    0.547842   -1.457870
     43          1           0        2.278489    2.100699   -1.145650
     44          1           0        2.268940    2.204419    1.209480
     45          6           0        3.670452    0.594083    1.713540
     46          6           0        3.998026   -0.847689    1.265020
     47          1           0        2.331389   -2.302201    1.207000
     48          6           0        3.327405   -0.863066   -1.840110
     49          1           0        1.911308   -2.368679   -1.114640
     50          1           0        4.013215    1.103041   -2.378250
     51          1           0        4.783202    0.486778   -0.942720
     52          1           0        4.602855    1.138748    1.906840
     53          1           0        3.147792    0.558345    2.672370
     54          1           0        4.864346   -0.851733    0.604570
     55          1           0        4.292563   -1.418990    2.146820
     56          1           0        2.658996   -0.785623   -2.699790
     57          1           0        4.175983   -1.472430   -2.175650
     58          6           0       -3.965994    1.363848   -0.646020
     59          1           0       -4.052534    1.459379   -1.741420
     60          1           0       -4.973244    1.353553   -0.230110
     61          1           0       -3.455940    2.236156   -0.245540
     62          6           0       -4.074215   -1.037511   -0.574230
     63          1           0       -4.175946   -1.188141   -1.662010
     64          1           0       -3.641609   -1.926943   -0.123480
     65          1           0       -5.074075   -0.912957   -0.158950
     66          7           0       -3.279080    0.140945   -0.235250
 ---------------------------------------------------------------------

 SCF Done:  E(RB3LYP) =  -1896.77616688     A.U. after   16 cycles

      1  P    Isotropic =   173.9553   Anisotropy =   175.6960

      2  P    Isotropic =   172.4025   Anisotropy =   175.9687

      3  O    Isotropic =   198.0068   Anisotropy =   101.4209

      4  O    Isotropic =   195.0557   Anisotropy =    76.4724

      5  O    Isotropic =   198.5957   Anisotropy =   101.1546

      6  O    Isotropic =   195.6727   Anisotropy =    73.8107

      7  C    Isotropic =    69.9057   Anisotropy =    89.4410

      8  C    Isotropic =   113.0365   Anisotropy =    76.3854

      9  C    Isotropic =   167.4619   Anisotropy =    27.6597

     10  C    Isotropic =   116.0296   Anisotropy =    71.4363

     11  C    Isotropic =   167.4457   Anisotropy =    28.1308

     12  C    Isotropic =   113.0921   Anisotropy =    76.9885

     13  C    Isotropic =   167.4479   Anisotropy =    27.7528

     14  C    Isotropic =   115.8771   Anisotropy =    71.4445

     15  C    Isotropic =   167.4662   Anisotropy =    28.0872

     16  H    Isotropic =    27.4653   Anisotropy =     4.2324

     17  H    Isotropic =    27.9035   Anisotropy =     6.5860

     18  H    Isotropic =    27.8764   Anisotropy =     5.2641

     19  H    Isotropic =    30.5866   Anisotropy =    11.1384

     20  H    Isotropic =    30.2289   Anisotropy =     6.9272

     21  H    Isotropic =    30.2996   Anisotropy =     8.3809

     22  H    Isotropic =    27.8845   Anisotropy =     6.6214

     23  H    Isotropic =    28.0030   Anisotropy =     5.6665

     24  H    Isotropic =    30.6300   Anisotropy =    11.4765

     25  H    Isotropic =    30.5734   Anisotropy =     7.3071

     26  H    Isotropic =    30.4043   Anisotropy =     7.4537

     27  H    Isotropic =    27.9254   Anisotropy =     5.4979

     28  H    Isotropic =    27.9819   Anisotropy =     6.6733

     29  H    Isotropic =    30.6070   Anisotropy =    11.1511

     30  H    Isotropic =    30.2480   Anisotropy =     6.9491

     31  H    Isotropic =    30.3062   Anisotropy =     8.4117

     32  H    Isotropic =    27.9685   Anisotropy =     5.5740

     33  H    Isotropic =    27.8694   Anisotropy =     6.5825

     34  H    Isotropic =    30.6078   Anisotropy =    11.4440

     35  H    Isotropic =    30.3632   Anisotropy =     7.4549

     36  H    Isotropic =    30.5385   Anisotropy =     7.3417

     37  Rh   Isotropic =  -272.8566   Anisotropy =   323.9045

     38  C    Isotropic =    64.3778   Anisotropy =   144.8937

     39  C    Isotropic =    74.7009   Anisotropy =   120.2303

     40  C    Isotropic =    75.6932   Anisotropy =   125.6715

     41  C    Isotropic =    63.9213   Anisotropy =   139.3156

     42  C    Isotropic =   153.5281   Anisotropy =    24.9061

     43  H    Isotropic =    26.1731   Anisotropy =     6.1024

     44  H    Isotropic =    26.2228   Anisotropy =     4.6649

     45  C    Isotropic =   148.8724   Anisotropy =    29.7881

     46  C    Isotropic =   154.4033   Anisotropy =    23.7407

     47  H    Isotropic =    26.8962   Anisotropy =     6.8980

     48  C    Isotropic =   148.0358   Anisotropy =    28.7517

     49  H    Isotropic =    25.5760   Anisotropy =     3.7264

     50  H    Isotropic =    29.7995   Anisotropy =    11.0834

     51  H    Isotropic =    29.6205   Anisotropy =     8.7894

     52  H    Isotropic =    29.0702   Anisotropy =    12.1063

     53  H    Isotropic =    29.3619   Anisotropy =     7.9936

     54  H    Isotropic =    29.6605   Anisotropy =     8.9145

     55  H    Isotropic =    29.9152   Anisotropy =    11.5061

     56  H    Isotropic =    29.1367   Anisotropy =     7.1396

     57  H    Isotropic =    29.1370   Anisotropy =    12.0412

     58  C    Isotropic =   136.7317   Anisotropy =    66.3764

     59  H    Isotropic =    30.1061   Anisotropy =     8.0919

     60  H    Isotropic =    29.3941   Anisotropy =    10.3796

     61  H    Isotropic =    29.1110   Anisotropy =     5.4320

     62  C    Isotropic =   136.7711   Anisotropy =    66.0626

     63  H    Isotropic =    30.0941   Anisotropy =     8.0680

     64  H    Isotropic =    29.0832   Anisotropy =     5.3667

     65  H    Isotropic =    29.3881   Anisotropy =    10.3632

     66  N    Isotropic =   211.2683   Anisotropy =    39.4526

 The electronic state is 1-A.
 Alpha  occ. eigenvalues --  -77.30515 -77.30470 -19.26519 -19.26463 -19.26443
 Alpha  occ. eigenvalues --  -19.26403 -14.42281 -10.33857 -10.33816 -10.33694
 Alpha  occ. eigenvalues --  -10.33608 -10.33563 -10.30105 -10.30075 -10.30002
 Alpha  occ. eigenvalues --  -10.29771 -10.28534 -10.28530 -10.28527 -10.28321
 Alpha  occ. eigenvalues --  -10.28223 -10.28145 -10.26191 -10.26156 -10.26149
 Alpha  occ. eigenvalues --  -10.26146  -6.75581  -6.75536  -4.92012  -4.91964
 Alpha  occ. eigenvalues --   -4.91851  -4.91806  -4.91442  -4.91399  -3.33098
 Alpha  occ. eigenvalues --   -2.10174  -2.09279  -2.06456  -1.17113  -1.16935
 Alpha  occ. eigenvalues --   -1.13555  -1.13502  -1.03396  -0.95405  -0.90232
 Alpha  occ. eigenvalues --   -0.89226  -0.88926  -0.87957  -0.86429  -0.86405
 Alpha  occ. eigenvalues --   -0.84186  -0.81302  -0.80759  -0.78800  -0.75782
 Alpha  occ. eigenvalues --   -0.75631  -0.73477  -0.73349  -0.72175  -0.71495
 Alpha  occ. eigenvalues --   -0.69041  -0.67195  -0.66663  -0.63544  -0.63374
 Alpha  occ. eigenvalues --   -0.62876  -0.61790  -0.60797  -0.59893  -0.58931
 Alpha  occ. eigenvalues --   -0.58626  -0.58507  -0.57982  -0.57854  -0.57069
 Alpha  occ. eigenvalues --   -0.56954  -0.55756  -0.54581  -0.54406  -0.53478
 Alpha  occ. eigenvalues --   -0.53295  -0.52896  -0.52852  -0.52679  -0.52251
 Alpha  occ. eigenvalues --   -0.50066  -0.49578  -0.49544  -0.49227  -0.49099
 Alpha  occ. eigenvalues --   -0.48804  -0.48774  -0.48632  -0.48153  -0.47961
 Alpha  occ. eigenvalues --   -0.47794  -0.47713  -0.47262  -0.46922  -0.46339
 Alpha  occ. eigenvalues --   -0.46117  -0.45932  -0.45587  -0.44963  -0.44056
 Alpha  occ. eigenvalues --   -0.43812  -0.42758  -0.42325  -0.42128  -0.41541
 Alpha  occ. eigenvalues --   -0.41250  -0.40450  -0.38241  -0.37871  -0.37029
 Alpha  occ. eigenvalues --   -0.36081  -0.35026  -0.32415  -0.32057
 Alpha virt. eigenvalues --   -0.17876  -0.14751  -0.10596  -0.09460  -0.08682
 Alpha virt. eigenvalues --   -0.08068  -0.07736  -0.07166  -0.06210  -0.05720
 Alpha virt. eigenvalues --   -0.05183  -0.04747  -0.04666  -0.04196  -0.04042

 Mulliken charges:
               1
     1  P    0.630449
     2  P    0.634852
     3  O   -0.314453
     4  O   -0.338595
     5  O   -0.315249
     6  O   -0.345846
     7  C   -0.370535
     8  C   -0.081503
     9  C   -0.337347
    10  C   -0.068237
    11  C   -0.340618
    12  C   -0.075705
    13  C   -0.335661
    14  C   -0.065470
    15  C   -0.342320
    16  H    0.207564
    17  H    0.135890
    18  H    0.126773
    19  H    0.135415
    20  H    0.137626
    21  H    0.132805
    22  H    0.134210
    23  H    0.132323
    24  H    0.140679
    25  H    0.129509
    26  H    0.134599
    27  H    0.125298
    28  H    0.135480
    29  H    0.135307
    30  H    0.136846
    31  H    0.133017
    32  H    0.132229
    33  H    0.134220
    34  H    0.141515
    35  H    0.134628
    36  H    0.129935
    37  Rh  -0.642713
    38  C   -0.021990
    39  C   -0.099606
    40  C   -0.014131
    41  C   -0.122878
    42  C   -0.351316
    43  H    0.210204
    44  H    0.180731
    45  C   -0.220358
    46  C   -0.340636
    47  H    0.172659
    48  C   -0.217366
    49  H    0.223035
    50  H    0.173425
    51  H    0.166808
    52  H    0.179253
    53  H    0.133513
    54  H    0.168628
    55  H    0.173656
    56  H    0.140310
    57  H    0.176016
    58  C   -0.302664
    59  H    0.108496
    60  H    0.144713
    61  H    0.161158
    62  C   -0.304273
    63  H    0.108029
    64  H    0.161817
    65  H    0.144959
    66  N   -0.109109
 Sum of Mulliken charges =   1.00000

 Dipole moment (field-independent basis, Debye):
    X=              0.3543    Y=             -0.0197    Z=              0.1476  Tot=              0.3843
 Quadrupole moment (field-independent basis, Debye-Ang):
   XX=           -154.8608   YY=           -148.8051   ZZ=           -168.5761
   XY=              0.5806   XZ=              6.2056   YZ=             -0.4032

 Summary of Natural Population Analysis:

                                       Natural Population
                Natural  -----------------------------------------------
    Atom  No    Charge         Core      Valence    Rydberg      Total
 -----------------------------------------------------------------------
      P    1    1.73026      9.99564     3.18185    0.09225    13.26974
      P    2    1.73157      9.99563     3.18058    0.09221    13.26843
      O    3   -0.77961      1.99980     6.76424    0.01557     8.77961
      O    4   -0.78524      1.99981     6.77060    0.01483     8.78524
      O    5   -0.77969      1.99980     6.76430    0.01559     8.77969
      O    6   -0.78747      1.99981     6.77332    0.01434     8.78747
      C    7   -0.63620      1.99935     4.61286    0.02399     6.63620
      C    8   -0.06044      1.99929     4.04551    0.01564     6.06044
      C    9   -0.60838      1.99946     4.60125    0.00766     6.60838
      C   10   -0.06479      1.99930     4.05032    0.01517     6.06479
      C   11   -0.60860      1.99946     4.60151    0.00763     6.60860
      C   12   -0.06091      1.99929     4.04580    0.01583     6.06091
      C   13   -0.60851      1.99946     4.60143    0.00762     6.60851
      C   14   -0.06432      1.99930     4.04986    0.01517     6.06432
      C   15   -0.60882      1.99946     4.60177    0.00759     6.60882
      H   16    0.20977      0.00000     0.78560    0.00463     0.79023
      H   17    0.17531      0.00000     0.82269    0.00200     0.82469
      H   18    0.18014      0.00000     0.81778    0.00208     0.81986
      H   19    0.22221      0.00000     0.77675    0.00104     0.77779
      H   20    0.21841      0.00000     0.78030    0.00129     0.78159
      H   21    0.21566      0.00000     0.78308    0.00125     0.78434
      H   22    0.17871      0.00000     0.81864    0.00266     0.82129
      H   23    0.17732      0.00000     0.82013    0.00255     0.82268
      H   24    0.22482      0.00000     0.77418    0.00099     0.77518
      H   25    0.21266      0.00000     0.78606    0.00128     0.78734
      H   26    0.21573      0.00000     0.78305    0.00122     0.78427
      H   27    0.18149      0.00000     0.81645    0.00206     0.81851
      H   28    0.17569      0.00000     0.82233    0.00198     0.82431
      H   29    0.22230      0.00000     0.77666    0.00104     0.77770
      H   30    0.21797      0.00000     0.78074    0.00128     0.78203
      H   31    0.21581      0.00000     0.78295    0.00125     0.78419
      H   32    0.17754      0.00000     0.81990    0.00256     0.82246
      H   33    0.17886      0.00000     0.81851    0.00264     0.82114
      H   34    0.22511      0.00000     0.77390    0.00099     0.77489
      H   35    0.21574      0.00000     0.78304    0.00123     0.78426
      H   36    0.21280      0.00000     0.78593    0.00127     0.78720
     Rh   37   -0.58388     35.98420     9.57345    0.02623    45.58388
      C   38   -0.14439      1.99907     4.12482    0.02051     6.14439
      C   39   -0.17659      1.99907     4.15586    0.02166     6.17659
      C   40   -0.18867      1.99908     4.16891    0.02068     6.18867
      C   41   -0.13764      1.99907     4.11755    0.02102     6.13764
      C   42   -0.42655      1.99936     4.41516    0.01202     6.42655
      H   43    0.24284      0.00000     0.75548    0.00168     0.75716
      H   44    0.22588      0.00000     0.77179    0.00234     0.77412
      C   45   -0.42470      1.99936     4.41269    0.01265     6.42470
      C   46   -0.42325      1.99936     4.41192    0.01197     6.42325
      H   47    0.22849      0.00000     0.76976    0.00175     0.77151
      C   48   -0.42590      1.99935     4.41403    0.01251     6.42590
      H   49    0.24326      0.00000     0.75472    0.00203     0.75674
      H   50    0.23238      0.00000     0.76623    0.00139     0.76762
      H   51    0.21244      0.00000     0.78556    0.00200     0.78756
      H   52    0.23802      0.00000     0.76022    0.00176     0.76198
      H   53    0.21834      0.00000     0.78010    0.00157     0.78166
      H   54    0.21331      0.00000     0.78469    0.00200     0.78669
      H   55    0.23084      0.00000     0.76774    0.00142     0.76916
      H   56    0.22445      0.00000     0.77399    0.00156     0.77555
      H   57    0.23758      0.00000     0.76063    0.00179     0.76242
      C   58   -0.40541      1.99936     4.39543    0.01062     6.40541
      H   59    0.15869      0.00000     0.83730    0.00402     0.84131
      H   60    0.21289      0.00000     0.78557    0.00154     0.78711
      H   61    0.20670      0.00000     0.79129    0.00201     0.79330
      C   62   -0.40548      1.99936     4.39553    0.01060     6.40548
      H   63    0.15838      0.00000     0.83761    0.00400     0.84162
      H   64    0.20715      0.00000     0.79083    0.00202     0.79285
      H   65    0.21287      0.00000     0.78559    0.00154     0.78713
      N   66   -0.42495      1.99952     5.40111    0.02432     7.42495
 =======================================================================
   * Total *    1.00000    103.96102   161.39940    0.63958   266.00000

 Normal termination of Gaussian 16 at Wed Jan 22 20:43:47 2025.
