 Gaussian 16, Revision B.01,
 Gaussian 16:  ES64L-G16RevB.01 20-Dec-2017

 ------------------------------------------
 # nmr=giao b3lyp/genecp pop=nbo scfcyc=200
 ------------------------------------------

 ---------
 MS-76_SPE
 ---------
 Symbolic Z-matrix:
 Charge =  1 Multiplicity = 1

                         Standard orientation:
 ---------------------------------------------------------------------
 Center     Atomic      Atomic             Coordinates (Angstroms)
 Number     Number       Type             X           Y           Z
 ---------------------------------------------------------------------
      1         15           0        0.248221   -1.336930   -0.124200
      2         15           0        0.264049    1.349950   -0.094110
      3          8           0        1.044432   -2.063179    1.101540
      4          8           0        0.048882   -2.464600   -1.284140
      5          8           0        1.046488    2.020501    1.170970
      6          8           0        0.102317    2.518680   -1.219150
      7          6           0        1.489600    0.006341   -0.665150
      8          6           0        0.344832   -2.787610    2.153820
      9          6           0        1.364103   -3.220549    3.182320
     10          6           0        1.057463   -3.396499   -1.777450
     11          6           0        0.361904   -4.425930   -2.638440
     12          6           0        0.329217    2.736260    2.218880
     13          6           0        1.320107    3.100851    3.300040
     14          6           0        1.132387    3.449641   -1.668220
     15          6           0        0.464716    4.520050   -2.500850
     16          1           0        1.402020    0.022141   -1.772200
     17          1           0       -0.162957   -3.649940    1.714080
     18          1           0       -0.404318   -2.124360    2.592460
     19          1           0        0.862973   -3.760249    3.988400
     20          1           0        1.874572   -2.357198    3.609520
     21          1           0        2.108933   -3.883268    2.740660
     22          1           0        1.557033   -3.860959   -0.925750
     23          1           0        1.794172   -2.832968   -2.352410
     24          1           0        1.099084   -5.128579   -3.032190
     25          1           0       -0.371866   -4.989200   -2.060840
     26          1           0       -0.143157   -3.953020   -3.481170
     27          1           0       -0.460112    2.086890    2.604740
     28          1           0       -0.130634    3.628470    1.786450
     29          1           0        0.805506    3.633651    4.102230
     30          1           0        1.782658    2.207372    3.719880
     31          1           0        2.104946    3.749422    2.909620
     32          1           0        1.866227    2.893612   -2.253850
     33          1           0        1.629286    3.875631   -0.795170
     34          1           0        1.218575    5.222691   -2.861660
     35          1           0       -0.038084    4.085480   -3.365300
     36          1           0       -0.266115    5.076140   -1.912660
     37         45           0       -1.577170    0.012848    0.125260
     38          6           0       -3.226979   -1.450273   -0.623840
     39          6           0       -3.201139   -1.487423    0.748200
     40          6           0       -3.341952    1.459007    0.582720
     41          6           0       -3.079112    1.499737   -0.764960
     42          6           0       -4.231850   -0.695044   -1.470970
     43          1           0       -2.627638   -2.186062   -1.148030
     44          1           0       -2.627068   -2.285992    1.207480
     45          6           0       -4.091890   -0.729794    1.701160
     46          6           0       -4.472111    0.697676    1.248470
     47          1           0       -2.862652    2.215367    1.195700
     48          6           0       -3.786691    0.733346   -1.853370
     49          1           0       -2.433452    2.293618   -1.123770
     50          1           0       -4.393319   -1.258664   -2.391220
     51          1           0       -5.194010   -0.670185   -0.960840
     52          1           0       -5.003739   -1.309495    1.890500
     53          1           0       -3.576130   -0.672613    2.662670
     54          1           0       -5.334721    0.667695    0.583900
     55          1           0       -4.792551    1.258606    2.127880
     56          1           0       -3.111581    0.680517   -2.709640
     57          1           0       -4.656421    1.309036   -2.194170
     58          6           0        3.594751   -1.209067   -0.588520
     59          6           0        3.608979    1.196723   -0.519760
     60          6           0        4.987421   -1.196556    0.029050
     61          1           0        3.687911   -1.260927   -1.686830
     62          1           0        3.071402   -2.095707   -0.236060
     63          6           0        5.000989    1.132015    0.096340
     64          1           0        3.704619    1.309913   -1.613160
     65          1           0        3.095828    2.067723   -0.116940
     66          1           0        5.566962   -2.043125   -0.338860
     67          1           0        4.904171   -1.272826    1.121290
     68          1           0        5.590698    1.991605   -0.221870
     69          1           0        4.917789    1.145904    1.191170
     70          7           0        2.844530   -0.012387   -0.177940
     71          8           0        5.704580   -0.025195   -0.325150
 ---------------------------------------------------------------------

 SCF Done:  E(RB3LYP) =  -2049.45761539     A.U. after   16 cycles

      1  P    Isotropic =   173.6488   Anisotropy =   177.5746

      2  P    Isotropic =   172.0374   Anisotropy =   178.1040

      3  O    Isotropic =   197.2533   Anisotropy =   101.1389

      4  O    Isotropic =   194.3159   Anisotropy =    75.6143

      5  O    Isotropic =   197.7921   Anisotropy =   100.7419

      6  O    Isotropic =   194.8231   Anisotropy =    73.1059

      7  C    Isotropic =    70.6337   Anisotropy =    88.0578

      8  C    Isotropic =   112.9964   Anisotropy =    76.6296

      9  C    Isotropic =   167.4692   Anisotropy =    27.4952

     10  C    Isotropic =   115.9465   Anisotropy =    71.0747

     11  C    Isotropic =   167.4943   Anisotropy =    28.2048

     12  C    Isotropic =   113.0692   Anisotropy =    77.3381

     13  C    Isotropic =   167.4554   Anisotropy =    27.5762

     14  C    Isotropic =   115.8365   Anisotropy =    71.0637

     15  C    Isotropic =   167.5364   Anisotropy =    28.1485

     16  H    Isotropic =    27.3892   Anisotropy =     4.5143

     17  H    Isotropic =    27.9312   Anisotropy =     6.6909

     18  H    Isotropic =    27.8872   Anisotropy =     5.1288

     19  H    Isotropic =    30.5846   Anisotropy =    11.2833

     20  H    Isotropic =    30.2480   Anisotropy =     6.6633

     21  H    Isotropic =    30.3688   Anisotropy =     8.0581

     22  H    Isotropic =    27.9599   Anisotropy =     6.3965

     23  H    Isotropic =    28.0439   Anisotropy =     5.3135

     24  H    Isotropic =    30.6289   Anisotropy =    11.4360

     25  H    Isotropic =    30.5710   Anisotropy =     7.4874

     26  H    Isotropic =    30.4056   Anisotropy =     7.5125

     27  H    Isotropic =    27.9427   Anisotropy =     5.3746

     28  H    Isotropic =    28.0073   Anisotropy =     6.7958

     29  H    Isotropic =    30.6057   Anisotropy =    11.3028

     30  H    Isotropic =    30.2695   Anisotropy =     6.6789

     31  H    Isotropic =    30.3731   Anisotropy =     8.0954

     32  H    Isotropic =    28.0047   Anisotropy =     5.2262

     33  H    Isotropic =    27.9409   Anisotropy =     6.3682

     34  H    Isotropic =    30.6035   Anisotropy =    11.4080

     35  H    Isotropic =    30.3637   Anisotropy =     7.5166

     36  H    Isotropic =    30.5340   Anisotropy =     7.5238

     37  Rh   Isotropic =  -273.7517   Anisotropy =   325.4931

     38  C    Isotropic =    64.1678   Anisotropy =   145.3219

     39  C    Isotropic =    74.4763   Anisotropy =   120.6225

     40  C    Isotropic =    75.5843   Anisotropy =   125.8636

     41  C    Isotropic =    63.6919   Anisotropy =   139.6879

     42  C    Isotropic =   153.5414   Anisotropy =    24.9662

     43  H    Isotropic =    26.1671   Anisotropy =     6.1008

     44  H    Isotropic =    26.2168   Anisotropy =     4.6250

     45  C    Isotropic =   148.9118   Anisotropy =    29.7424

     46  C    Isotropic =   154.4497   Anisotropy =    23.7949

     47  H    Isotropic =    26.8994   Anisotropy =     6.8866

     48  C    Isotropic =   148.0259   Anisotropy =    28.7492

     49  H    Isotropic =    25.5701   Anisotropy =     3.7147

     50  H    Isotropic =    29.8012   Anisotropy =    11.1000

     51  H    Isotropic =    29.6209   Anisotropy =     8.8647

     52  H    Isotropic =    29.0717   Anisotropy =    12.1479

     53  H    Isotropic =    29.3692   Anisotropy =     7.9666

     54  H    Isotropic =    29.6607   Anisotropy =     8.9938

     55  H    Isotropic =    29.9172   Anisotropy =    11.5194

     56  H    Isotropic =    29.1404   Anisotropy =     7.0849

     57  H    Isotropic =    29.1359   Anisotropy =    12.0893

     58  C    Isotropic =   126.7775   Anisotropy =    30.8039

     59  C    Isotropic =   126.7590   Anisotropy =    30.1490

     60  C    Isotropic =   115.0872   Anisotropy =    54.4981

     61  H    Isotropic =    29.8801   Anisotropy =     6.9285

     62  H    Isotropic =    29.2485   Anisotropy =     6.3435

     63  C    Isotropic =   115.0380   Anisotropy =    54.3607

     64  H    Isotropic =    29.8583   Anisotropy =     6.9246

     65  H    Isotropic =    29.2100   Anisotropy =     6.3988

     66  H    Isotropic =    28.1742   Anisotropy =     7.7479

     67  H    Isotropic =    28.2249   Anisotropy =     6.1368

     68  H    Isotropic =    28.1728   Anisotropy =     7.7266

     69  H    Isotropic =    28.2239   Anisotropy =     6.0986

     70  N    Isotropic =   192.8762   Anisotropy =    21.3362

     71  O    Isotropic =   280.4306   Anisotropy =    65.2868

 The electronic state is 1-A.
 Alpha  occ. eigenvalues --  -77.30728 -77.30681 -19.26711 -19.26669 -19.26655
 Alpha  occ. eigenvalues --  -19.26625 -19.21107 -14.42472 -10.34061 -10.34022
 Alpha  occ. eigenvalues --  -10.33919 -10.33794 -10.33750 -10.30267 -10.30239
 Alpha  occ. eigenvalues --  -10.30166 -10.30156 -10.30154 -10.29932 -10.29221
 Alpha  occ. eigenvalues --  -10.29219 -10.28680 -10.28461 -10.28366 -10.28285
 Alpha  occ. eigenvalues --  -10.26381 -10.26376 -10.26328 -10.26292  -6.75791
 Alpha  occ. eigenvalues --   -6.75744  -4.92221  -4.92171  -4.92062  -4.92015
 Alpha  occ. eigenvalues --   -4.91651  -4.91606  -3.33282  -2.10359  -2.09465
 Alpha  occ. eigenvalues --   -2.06637  -1.17308  -1.17130  -1.13755  -1.13702
 Alpha  occ. eigenvalues --   -1.12616  -1.03464  -0.95559  -0.90392  -0.89487
 Alpha  occ. eigenvalues --   -0.89073  -0.88153  -0.86771  -0.86616  -0.86407
 Alpha  occ. eigenvalues --   -0.84852  -0.81462  -0.78951  -0.78047  -0.76169
 Alpha  occ. eigenvalues --   -0.74910  -0.73894  -0.73356  -0.73309  -0.71644
 Alpha  occ. eigenvalues --   -0.69192  -0.68460  -0.66843  -0.66227  -0.63590
 Alpha  occ. eigenvalues --   -0.63497  -0.63080  -0.62933  -0.60980  -0.60071
 Alpha  occ. eigenvalues --   -0.59736  -0.58780  -0.58639  -0.58206  -0.58025
 Alpha  occ. eigenvalues --   -0.57232  -0.57103  -0.56761  -0.56631  -0.54809
 Alpha  occ. eigenvalues --   -0.54722  -0.54669  -0.53636  -0.53421  -0.53095
 Alpha  occ. eigenvalues --   -0.53018  -0.52747  -0.52679  -0.51724  -0.49800
 Alpha  occ. eigenvalues --   -0.49651  -0.49355  -0.49143  -0.49000  -0.48943
 Alpha  occ. eigenvalues --   -0.48756  -0.48425  -0.48166  -0.47908  -0.47718
 Alpha  occ. eigenvalues --   -0.47295  -0.47062  -0.46543  -0.46259  -0.45945
 Alpha  occ. eigenvalues --   -0.45664  -0.45184  -0.44572  -0.44185  -0.43960
 Alpha  occ. eigenvalues --   -0.43306  -0.42559  -0.42287  -0.41769  -0.41453
 Alpha  occ. eigenvalues --   -0.40587  -0.39844  -0.38445  -0.38043  -0.37214
 Alpha  occ. eigenvalues --   -0.36282  -0.35221  -0.34682  -0.32672  -0.32312
 Alpha virt. eigenvalues --   -0.18062  -0.14957  -0.10756  -0.09609  -0.08811
 Alpha virt. eigenvalues --   -0.08204  -0.07885  -0.07377  -0.06456  -0.05800
 Alpha virt. eigenvalues --   -0.05627  -0.05150  -0.04883  -0.04423  -0.04314

 Mulliken charges:
               1
     1  P    0.631419
     2  P    0.636176
     3  O   -0.319165
     4  O   -0.336120
     5  O   -0.319948
     6  O   -0.343545
     7  C   -0.365162
     8  C   -0.080068
     9  C   -0.339562
    10  C   -0.067982
    11  C   -0.342548
    12  C   -0.074096
    13  C   -0.337373
    14  C   -0.065090
    15  C   -0.344345
    16  H    0.211375
    17  H    0.136498
    18  H    0.127319
    19  H    0.136746
    20  H    0.137053
    21  H    0.132732
    22  H    0.133888
    23  H    0.133973
    24  H    0.141337
    25  H    0.130059
    26  H    0.135121
    27  H    0.125497
    28  H    0.136207
    29  H    0.136570
    30  H    0.136288
    31  H    0.132926
    32  H    0.134011
    33  H    0.133787
    34  H    0.142183
    35  H    0.135185
    36  H    0.130437
    37  Rh  -0.641528
    38  C   -0.021992
    39  C   -0.098785
    40  C   -0.013484
    41  C   -0.122585
    42  C   -0.351616
    43  H    0.210117
    44  H    0.181173
    45  C   -0.220670
    46  C   -0.340738
    47  H    0.172996
    48  C   -0.217934
    49  H    0.222747
    50  H    0.173886
    51  H    0.167107
    52  H    0.179788
    53  H    0.133620
    54  H    0.169018
    55  H    0.174028
    56  H    0.140691
    57  H    0.176602
    58  C   -0.124803
    59  C   -0.128756
    60  C   -0.142144
    61  H    0.107862
    62  H    0.141265
    63  C   -0.139551
    64  H    0.107090
    65  H    0.142437
    66  H    0.139276
    67  H    0.118229
    68  H    0.139264
    69  H    0.117614
    70  N   -0.136639
    71  O   -0.245368
 Sum of Mulliken charges =   1.00000

 Dipole moment (field-independent basis, Debye):
    X=             -3.7428    Y=              0.0159    Z=              0.7185  Tot=              3.8112
 Quadrupole moment (field-independent basis, Debye-Ang):
   XX=           -182.7344   YY=           -161.8567   ZZ=           -184.8964
   XY=              0.3282   XZ=             -2.4992   YZ=              0.2251

 Summary of Natural Population Analysis:

                                       Natural Population
                Natural  -----------------------------------------------
    Atom  No    Charge         Core      Valence    Rydberg      Total
 -----------------------------------------------------------------------
      P    1    1.72923      9.99565     3.18286    0.09227    13.27077
      P    2    1.73080      9.99563     3.18133    0.09224    13.26920
      O    3   -0.78058      1.99980     6.76536    0.01543     8.78058
      O    4   -0.78503      1.99981     6.77037    0.01486     8.78503
      O    5   -0.78071      1.99980     6.76545    0.01546     8.78071
      O    6   -0.78730      1.99981     6.77312    0.01437     8.78730
      C    7   -0.62909      1.99935     4.60606    0.02368     6.62909
      C    8   -0.06059      1.99929     4.04568    0.01561     6.06059
      C    9   -0.60856      1.99946     4.60141    0.00769     6.60856
      C   10   -0.06522      1.99930     4.05088    0.01504     6.06522
      C   11   -0.60852      1.99946     4.60141    0.00766     6.60852
      C   12   -0.06107      1.99929     4.04597    0.01581     6.06107
      C   13   -0.60866      1.99946     4.60156    0.00764     6.60866
      C   14   -0.06477      1.99930     4.05042    0.01506     6.06477
      C   15   -0.60876      1.99946     4.60168    0.00762     6.60876
      H   16    0.21251      0.00000     0.78311    0.00438     0.78749
      H   17    0.17577      0.00000     0.82224    0.00199     0.82423
      H   18    0.18048      0.00000     0.81744    0.00208     0.81952
      H   19    0.22301      0.00000     0.77596    0.00104     0.77699
      H   20    0.21795      0.00000     0.78073    0.00132     0.78205
      H   21    0.21533      0.00000     0.78343    0.00124     0.78467
      H   22    0.17837      0.00000     0.81919    0.00243     0.82163
      H   23    0.17764      0.00000     0.81982    0.00253     0.82236
      H   24    0.22520      0.00000     0.77381    0.00099     0.77480
      H   25    0.21295      0.00000     0.78578    0.00127     0.78705
      H   26    0.21602      0.00000     0.78276    0.00122     0.78398
      H   27    0.18177      0.00000     0.81617    0.00206     0.81823
      H   28    0.17620      0.00000     0.82184    0.00197     0.82380
      H   29    0.22308      0.00000     0.77589    0.00103     0.77692
      H   30    0.21755      0.00000     0.78115    0.00130     0.78245
      H   31    0.21547      0.00000     0.78330    0.00123     0.78453
      H   32    0.17796      0.00000     0.81950    0.00254     0.82204
      H   33    0.17844      0.00000     0.81914    0.00242     0.82156
      H   34    0.22550      0.00000     0.77351    0.00099     0.77450
      H   35    0.21604      0.00000     0.78274    0.00122     0.78396
      H   36    0.21306      0.00000     0.78568    0.00127     0.78694
     Rh   37   -0.58214     35.98419     9.57178    0.02617    45.58214
      C   38   -0.14403      1.99907     4.12445    0.02051     6.14403
      C   39   -0.17630      1.99907     4.15557    0.02166     6.17630
      C   40   -0.18856      1.99908     4.16879    0.02069     6.18856
      C   41   -0.13703      1.99907     4.11693    0.02102     6.13703
      C   42   -0.42666      1.99936     4.41527    0.01203     6.42666
      H   43    0.24283      0.00000     0.75549    0.00168     0.75717
      H   44    0.22579      0.00000     0.77186    0.00235     0.77421
      C   45   -0.42485      1.99936     4.41283    0.01266     6.42485
      C   46   -0.42335      1.99936     4.41201    0.01197     6.42335
      H   47    0.22842      0.00000     0.76982    0.00176     0.77158
      C   48   -0.42608      1.99935     4.41421    0.01251     6.42608
      H   49    0.24324      0.00000     0.75473    0.00203     0.75676
      H   50    0.23266      0.00000     0.76595    0.00139     0.76734
      H   51    0.21263      0.00000     0.78537    0.00200     0.78737
      H   52    0.23836      0.00000     0.75988    0.00176     0.76164
      H   53    0.21844      0.00000     0.77999    0.00156     0.78156
      H   54    0.21354      0.00000     0.78447    0.00200     0.78646
      H   55    0.23105      0.00000     0.76754    0.00142     0.76895
      H   56    0.22465      0.00000     0.77379    0.00156     0.77535
      H   57    0.23794      0.00000     0.76027    0.00179     0.76206
      C   58   -0.24734      1.99934     4.23492    0.01308     6.24734
      C   59   -0.24753      1.99934     4.23513    0.01306     6.24753
      C   60   -0.07926      1.99927     4.06293    0.01706     6.07926
      H   61    0.16304      0.00000     0.83287    0.00410     0.83696
      H   62    0.21034      0.00000     0.78706    0.00260     0.78966
      C   63   -0.07920      1.99927     4.06288    0.01705     6.07920
      H   64    0.16271      0.00000     0.83319    0.00409     0.83729
      H   65    0.21084      0.00000     0.78655    0.00261     0.78916
      H   66    0.19965      0.00000     0.79867    0.00168     0.80035
      H   67    0.16371      0.00000     0.83327    0.00302     0.83629
      H   68    0.19959      0.00000     0.79873    0.00168     0.80041
      H   69    0.16378      0.00000     0.83322    0.00300     0.83622
      N   70   -0.43526      1.99947     5.41007    0.02571     7.43526
      O   71   -0.47707      1.99981     6.46321    0.01404     8.47707
 =======================================================================
   * Total *    1.00000    109.95927   177.34045    0.70028   288.00000

 Normal termination of Gaussian 16 at Wed Jan 22 21:09:03 2025.
