 Gaussian 16, Revision B.01,
 Gaussian 16:  ES64L-G16RevB.01 20-Dec-2017

 ------------------------------------------
 # nmr=giao b3lyp/genecp pop=nbo scfcyc=200
 ------------------------------------------

 ---------
 MS-70_SPE
 ---------
 Symbolic Z-matrix:
 Charge =  1 Multiplicity = 1

                         Standard orientation:
 ---------------------------------------------------------------------
 Center     Atomic      Atomic             Coordinates (Angstroms)
 Number     Number       Type             X           Y           Z
 ---------------------------------------------------------------------
      1         15           0        1.110049    1.372289    0.132990
      2         15           0        1.100808   -1.376751    0.016860
      3          6           0        1.613170    1.940049    1.815710
      4          1           0        1.619209    1.098919    2.505880
      5          1           0        0.876130    2.664369    2.164120
      6          1           0        2.597740    2.405128    1.814680
      7          6           0        1.622498   -2.107111    1.629740
      8          1           0        0.884007   -2.854931    1.920840
      9          1           0        1.650078   -1.335511    2.396430
     10          1           0        2.601617   -2.579462    1.567860
     11          6           0        2.314349    0.015108   -0.426960
     12          1           0        2.247589    0.063658   -1.533530
     13          6           0        1.282137   -2.751571   -1.202690
     14          1           0        2.264777   -3.218862   -1.153790
     15          1           0        1.111218   -2.368821   -2.208220
     16          1           0        0.522967   -3.505341   -0.988400
     17          6           0        1.327280    2.854659   -0.946880
     18          1           0        0.584411    3.601499   -0.662680
     19          1           0        1.154450    2.575609   -1.985720
     20          1           0        2.319670    3.292638   -0.849700
     21         45           0       -0.778971    0.005010    0.026420
     22          6           0       -2.485001    1.429931    0.586010
     23          6           0       -2.273590    1.505451   -0.773190
     24          6           0       -2.419672   -1.419869   -0.710730
     25          6           0       -2.346782   -1.497369    0.662630
     26          6           0       -3.603231    0.663641    1.267150
     27          1           0       -1.991410    2.174550    1.201730
     28          1           0       -1.661890    2.325340   -1.135220
     29          6           0       -3.045221    0.788801   -1.853350
     30          6           0       -3.465482   -0.653469   -1.498420
     31          1           0       -1.866582   -2.162250   -1.275710
     32          6           0       -3.221972   -0.780409    1.660540
     33          1           0       -1.773542   -2.318080    1.083040
     34          1           0       -3.887931    1.201281    2.172860
     35          1           0       -4.487171    0.663242    0.630100
     36          1           0       -3.931861    1.376171   -2.122720
     37          1           0       -2.419831    0.768371   -2.748510
     38          1           0       -4.406902   -0.651518   -0.950110
     39          1           0       -3.661382   -1.192239   -2.426820
     40          1           0       -2.689992   -0.761899    2.614220
     41          1           0       -4.132192   -1.366168    1.839250
     42          6           0        4.416058   -1.189903   -0.420300
     43          1           0        5.425578   -1.162733   -0.011640
     44          1           0        3.949658   -2.108183   -0.071220
     45          1           0        4.489908   -1.230733   -1.518870
     46          6           0        4.425709    1.200317   -0.286560
     47          1           0        4.498829    1.364557   -1.373580
     48          1           0        3.969010    2.077277    0.166150
     49          1           0        5.435559    1.117527    0.113750
     50          7           0        3.679659   -0.014492    0.053240
 ---------------------------------------------------------------------

 SCF Done:  E(RB3LYP) =  -1438.43976078     A.U. after   15 cycles

      1  P    Isotropic =   312.6301   Anisotropy =    25.5347

      2  P    Isotropic =   312.0268   Anisotropy =    25.5196

      3  C    Isotropic =   170.5638   Anisotropy =    25.7849

      4  H    Isotropic =    30.3822   Anisotropy =     7.4569

      5  H    Isotropic =    30.5943   Anisotropy =     9.3937

      6  H    Isotropic =    30.1682   Anisotropy =    10.6071

      7  C    Isotropic =   170.9131   Anisotropy =    25.0093

      8  H    Isotropic =    30.5429   Anisotropy =     9.3999

      9  H    Isotropic =    30.3789   Anisotropy =     7.4517

     10  H    Isotropic =    30.1795   Anisotropy =    10.5434

     11  C    Isotropic =    95.3485   Anisotropy =    68.8351

     12  H    Isotropic =    28.4376   Anisotropy =     3.8371

     13  C    Isotropic =   166.4999   Anisotropy =    31.4797

     14  H    Isotropic =    30.1625   Anisotropy =     9.9450

     15  H    Isotropic =    30.6057   Anisotropy =     8.4983

     16  H    Isotropic =    30.6464   Anisotropy =     9.1473

     17  C    Isotropic =   166.6621   Anisotropy =    30.6354

     18  H    Isotropic =    30.6201   Anisotropy =     9.2635

     19  H    Isotropic =    30.5453   Anisotropy =     8.4616

     20  H    Isotropic =    30.1299   Anisotropy =     9.7807

     21  Rh   Isotropic =  -274.1220   Anisotropy =   302.9897

     22  C    Isotropic =    78.2235   Anisotropy =   121.9522

     23  C    Isotropic =    74.2346   Anisotropy =   119.8920

     24  C    Isotropic =    76.2835   Anisotropy =   124.4171

     25  C    Isotropic =    76.1649   Anisotropy =   117.0178

     26  C    Isotropic =   154.0608   Anisotropy =    24.8152

     27  H    Isotropic =    27.0429   Anisotropy =     7.7999

     28  H    Isotropic =    26.4623   Anisotropy =     5.0321

     29  C    Isotropic =   147.7621   Anisotropy =    30.0395

     30  C    Isotropic =   153.8974   Anisotropy =    24.9012

     31  H    Isotropic =    26.9641   Anisotropy =     7.3151

     32  C    Isotropic =   147.9760   Anisotropy =    29.5882

     33  H    Isotropic =    26.5446   Anisotropy =     5.5931

     34  H    Isotropic =    29.8536   Anisotropy =    11.6444

     35  H    Isotropic =    29.7383   Anisotropy =     9.0955

     36  H    Isotropic =    29.1009   Anisotropy =    12.3260

     37  H    Isotropic =    29.2128   Anisotropy =     8.1261

     38  H    Isotropic =    29.7167   Anisotropy =     8.9923

     39  H    Isotropic =    29.8463   Anisotropy =    11.5360

     40  H    Isotropic =    29.2624   Anisotropy =     8.2103

     41  H    Isotropic =    29.0852   Anisotropy =    12.3741

     42  C    Isotropic =   138.1295   Anisotropy =    66.6699

     43  H    Isotropic =    29.3743   Anisotropy =    11.1923

     44  H    Isotropic =    29.6516   Anisotropy =     6.6408

     45  H    Isotropic =    30.0710   Anisotropy =     8.5105

     46  C    Isotropic =   138.2082   Anisotropy =    66.2873

     47  H    Isotropic =    30.0686   Anisotropy =     8.4964

     48  H    Isotropic =    29.6370   Anisotropy =     6.6315

     49  H    Isotropic =    29.3706   Anisotropy =    11.1720

     50  N    Isotropic =   204.0467   Anisotropy =    56.2101

 The electronic state is 1-A.
 Alpha  occ. eigenvalues --  -77.25048 -77.25031 -14.44028 -10.34863 -10.30302
 Alpha  occ. eigenvalues --  -10.30298 -10.30268 -10.30261 -10.30239 -10.30220
 Alpha  occ. eigenvalues --  -10.30113 -10.30065 -10.30058 -10.30021 -10.28509
 Alpha  occ. eigenvalues --  -10.28505 -10.28273 -10.28254  -6.71072  -6.71060
 Alpha  occ. eigenvalues --   -4.87362  -4.87350  -4.87281  -4.87267  -4.86970
 Alpha  occ. eigenvalues --   -4.86958  -3.32678  -2.09618  -2.08931  -2.06091
 Alpha  occ. eigenvalues --   -1.04999  -0.95529  -0.90809  -0.90334  -0.89024
 Alpha  occ. eigenvalues --   -0.88373  -0.83203  -0.82869  -0.82601  -0.82227
 Alpha  occ. eigenvalues --   -0.81411  -0.78895  -0.74384  -0.71598  -0.68419
 Alpha  occ. eigenvalues --   -0.66958  -0.66433  -0.63535  -0.61222  -0.61141
 Alpha  occ. eigenvalues --   -0.58738  -0.58658  -0.57638  -0.57272  -0.56653
 Alpha  occ. eigenvalues --   -0.55803  -0.55122  -0.54910  -0.54616  -0.54382
 Alpha  occ. eigenvalues --   -0.53726  -0.53633  -0.53542  -0.53221  -0.53212
 Alpha  occ. eigenvalues --   -0.51791  -0.50712  -0.50472  -0.49303  -0.48849
 Alpha  occ. eigenvalues --   -0.48403  -0.47935  -0.47595  -0.47396  -0.46981
 Alpha  occ. eigenvalues --   -0.44476  -0.44303  -0.43808  -0.43567  -0.42483
 Alpha  occ. eigenvalues --   -0.38191  -0.38023  -0.36297  -0.35852  -0.35013
 Alpha  occ. eigenvalues --   -0.34279  -0.31933
 Alpha virt. eigenvalues --   -0.17322  -0.14508  -0.10627  -0.10023  -0.09035
 Alpha virt. eigenvalues --   -0.08848  -0.08210  -0.07264  -0.06925  -0.06137
 Alpha virt. eigenvalues --   -0.05855  -0.05364  -0.05176  -0.05004  -0.03991

 Mulliken charges:
               1
     1  P    0.305404
     2  P    0.296818
     3  C   -0.398054
     4  H    0.151583
     5  H    0.162908
     6  H    0.163908
     7  C   -0.400298
     8  H    0.162314
     9  H    0.152769
    10  H    0.164721
    11  C   -0.359558
    12  H    0.185666
    13  C   -0.400118
    14  H    0.166347
    15  H    0.161339
    16  H    0.165342
    17  C   -0.414198
    18  H    0.167562
    19  H    0.162900
    20  H    0.169036
    21  Rh  -0.502980
    22  C   -0.013476
    23  C   -0.102547
    24  C   -0.017361
    25  C   -0.093729
    26  C   -0.346208
    27  H    0.168290
    28  H    0.184682
    29  C   -0.216803
    30  C   -0.350095
    31  H    0.179097
    32  C   -0.215062
    33  H    0.169821
    34  H    0.172249
    35  H    0.168757
    36  H    0.175125
    37  H    0.132524
    38  H    0.169891
    39  H    0.171969
    40  H    0.133969
    41  H    0.174767
    42  C   -0.287063
    43  H    0.155044
    44  H    0.117024
    45  H    0.124280
    46  C   -0.289054
    47  H    0.124471
    48  H    0.117462
    49  H    0.155072
    50  N   -0.126509
 Sum of Mulliken charges =   1.00000

 Dipole moment (field-independent basis, Debye):
    X=              2.0006    Y=              0.0111    Z=             -0.3133  Tot=              2.0250
 Quadrupole moment (field-independent basis, Debye-Ang):
   XX=           -106.4134   YY=           -122.2924   ZZ=           -135.4521
   XY=              0.1519   XZ=             -1.6182   YZ=              0.5257

 Summary of Natural Population Analysis:

                                       Natural Population
                Natural  -----------------------------------------------
    Atom  No    Charge         Core      Valence    Rydberg      Total
 -----------------------------------------------------------------------
      P    1    1.12439      9.99658     3.82749    0.05153    13.87561
      P    2    1.12523      9.99657     3.82668    0.05151    13.87477
      C    3   -0.89754      1.99940     4.88731    0.01083     6.89754
      H    4    0.24358      0.00000     0.75513    0.00129     0.75642
      H    5    0.24401      0.00000     0.75490    0.00109     0.75599
      H    6    0.23878      0.00000     0.75940    0.00182     0.76122
      C    7   -0.89826      1.99940     4.88803    0.01083     6.89826
      H    8    0.24303      0.00000     0.75590    0.00107     0.75697
      H    9    0.24380      0.00000     0.75491    0.00129     0.75620
      H   10    0.23929      0.00000     0.75888    0.00183     0.76071
      C   11   -0.55767      1.99936     4.53208    0.02623     6.55767
      H   12    0.20623      0.00000     0.78794    0.00583     0.79377
      C   13   -0.90281      1.99941     4.89375    0.00965     6.90281
      H   14    0.23986      0.00000     0.75831    0.00183     0.76014
      H   15    0.24582      0.00000     0.75306    0.00112     0.75418
      H   16    0.24423      0.00000     0.75468    0.00109     0.75577
      C   17   -0.90430      1.99941     4.89524    0.00964     6.90430
      H   18    0.24428      0.00000     0.75462    0.00110     0.75572
      H   19    0.24534      0.00000     0.75355    0.00112     0.75466
      H   20    0.24061      0.00000     0.75756    0.00183     0.75939
     Rh   21   -0.46614     35.98536     9.45491    0.02587    45.46614
      C   22   -0.17131      1.99905     4.15208    0.02018     6.17131
      C   23   -0.15057      1.99905     4.13085    0.02068     6.15057
      C   24   -0.16174      1.99904     4.14281    0.01990     6.16174
      C   25   -0.15673      1.99905     4.13706    0.02062     6.15673
      C   26   -0.42278      1.99936     4.41143    0.01198     6.42278
      H   27    0.22569      0.00000     0.77274    0.00156     0.77431
      H   28    0.22182      0.00000     0.77645    0.00174     0.77818
      C   29   -0.42241      1.99936     4.41058    0.01247     6.42241
      C   30   -0.42331      1.99936     4.41190    0.01205     6.42331
      H   31    0.22229      0.00000     0.77593    0.00178     0.77771
      C   32   -0.42286      1.99936     4.41100    0.01250     6.42286
      H   33    0.22120      0.00000     0.77696    0.00183     0.77880
      H   34    0.23095      0.00000     0.76764    0.00141     0.76905
      H   35    0.21280      0.00000     0.78519    0.00202     0.78720
      H   36    0.23608      0.00000     0.76215    0.00177     0.76392
      H   37    0.21925      0.00000     0.77926    0.00150     0.78075
      H   38    0.21288      0.00000     0.78508    0.00204     0.78712
      H   39    0.23065      0.00000     0.76793    0.00142     0.76935
      H   40    0.21967      0.00000     0.77883    0.00150     0.78033
      H   41    0.23645      0.00000     0.76179    0.00176     0.76355
      C   42   -0.40389      1.99937     4.39321    0.01132     6.40389
      H   43    0.21749      0.00000     0.78109    0.00142     0.78251
      H   44    0.18759      0.00000     0.81006    0.00236     0.81241
      H   45    0.16967      0.00000     0.82649    0.00383     0.83033
      C   46   -0.40389      1.99937     4.39322    0.01131     6.40389
      H   47    0.16949      0.00000     0.82667    0.00384     0.83051
      H   48    0.18770      0.00000     0.80995    0.00235     0.81230
      H   49    0.21756      0.00000     0.78102    0.00143     0.78244
      N   50   -0.44149      1.99953     5.41729    0.02466     7.44149
 =======================================================================
   * Total *    1.00000     87.96740   113.60097    0.43163   202.00000

 Normal termination of Gaussian 16 at Wed Jan 22 20:08:13 2025.
