 Gaussian 16, Revision B.01,
 Gaussian 16:  ES64L-G16RevB.01 20-Dec-2017

 ------------------------------------------
 # nmr=giao b3lyp/genecp pop=nbo scfcyc=200
 ------------------------------------------

 ---------
 MS-83_SPE
 ---------
 Symbolic Z-matrix:
 Charge =  1 Multiplicity = 1

                         Standard orientation:
 ---------------------------------------------------------------------
 Center     Atomic      Atomic             Coordinates (Angstroms)
 Number     Number       Type             X           Y           Z
 ---------------------------------------------------------------------
      1         15           0        1.332761   -0.161631   -0.442890
      2         15           0       -1.353499   -0.152880   -0.438470
      3          6           0       -0.014219   -0.407570   -1.768860
      4          6           0        2.763441    2.083479    0.006050
      5          6           0        3.202391    3.330429   -0.735680
      6          6           0        3.420941   -1.524391   -1.630360
      7          6           0        4.493610   -2.486001   -1.157810
      8          6           0       -2.740079    2.102700    0.066890
      9          6           0       -3.127989    3.391680   -0.629750
     10          6           0       -3.471009   -1.456360   -1.644200
     11          6           0       -4.566120   -2.396920   -1.180880
     12          1           0       -0.020429   -1.506430   -1.937350
     13          1           0        3.626811    1.533379    0.391470
     14          1           0        2.106111    2.334989    0.842630
     15          1           0        2.318211    3.822329   -1.149970
     16          1           0        3.829011    3.037719   -1.582940
     17          1           0        3.850841   -0.563471   -1.919750
     18          1           0        2.874261   -1.934261   -2.482130
     19          1           0        4.994681   -2.058181   -0.284540
     20          1           0        4.017430   -3.414261   -0.829610
     21          1           0       -2.086069    2.297040    0.921170
     22          1           0       -3.625399    1.565650    0.419040
     23          1           0       -2.222639    3.871730   -1.010990
     24          1           0       -3.749899    3.153280   -1.497270
     25          1           0       -2.935859   -1.869530   -2.501540
     26          1           0       -3.877809   -0.481950   -1.921470
     27          1           0       -4.112550   -3.340290   -0.863880
     28          1           0       -5.056179   -1.967060   -0.302370
     29         45           0       -0.006449   -0.381160    1.395570
     30          6           0        1.474311   -1.494641    2.802500
     31          6           0        1.497561   -0.157871    3.114890
     32          6           0       -1.445109   -0.385230    3.221650
     33          6           0       -1.474339   -1.627540    2.635640
     34          6           0        0.734540   -2.571610    3.571470
     35          1           0        2.211571   -1.846881    2.089970
     36          1           0        2.286941    0.438039    2.667590
     37          6           0        0.736921    0.537610    4.216480
     38          6           0       -0.683579   -0.010730    4.478620
     39          1           0       -2.209849    0.318880    2.910400
     40          6           0       -0.694060   -2.848140    3.053640
     41          1           0       -2.268479   -1.825430    1.924210
     42          1           0        1.307880   -3.497151    3.498250
     43          1           0        0.712350   -2.314710    4.629890
     44          1           0        1.320571    0.502789    5.144730
     45          1           0        0.666821    1.595800    3.953620
     46          1           0       -0.641149   -0.867540    5.150030
     47          1           0       -1.251199    0.755860    5.008670
     48          1           0       -0.638810   -3.513740    2.190080
     49          1           0       -1.260480   -3.396060    3.817230
     50          6           0       -3.879648    4.348370    0.302170
     51          1           0       -4.774939    3.851880    0.691020
     52          1           0       -3.253878    4.578080    1.171210
     53          6           0       -5.602830   -2.660379   -2.278880
     54          1           0       -5.103860   -3.082510   -3.157320
     55          1           0       -6.042059   -1.710769   -2.601950
     56          6           0        5.522610   -2.787121   -2.253310
     57          1           0        5.984941   -1.852351   -2.587230
     58          1           0        5.012780   -3.206641   -3.126760
     59          6           0        3.970212    4.300329    0.169020
     60          1           0        4.843091    3.792299    0.592460
     61          1           0        3.338912    4.585099    1.017510
     62          7           0       -0.008629    0.378170   -2.975720
     63          6           0       -1.218459    0.223120   -3.780440
     64          1           0       -1.361849   -0.807780   -4.145360
     65          1           0       -2.092129    0.530900   -3.211790
     66          1           0       -1.144579    0.878110   -4.648420
     67          6           0        1.185821    0.176940   -3.793290
     68          1           0        2.076501    0.453829   -3.235240
     69          1           0        1.287231   -0.859921   -4.155640
     70          1           0        1.126691    0.831470   -4.662710
     71          8           0       -2.024189    1.264320   -0.885160
     72          8           0       -2.522479   -1.283210   -0.549800
     73          8           0        2.031441    1.232359   -0.920410
     74          8           0        2.479501   -1.315761   -0.536230
     75          6           0       -6.714920   -3.605589   -1.823600
     76          1           0       -7.258080   -3.195549   -0.968840
     77          1           0       -7.436560   -3.776039   -2.623920
     78          1           0       -6.312120   -4.577059   -1.527490
     79          6           0       -4.282668    5.650180   -0.390980
     80          1           0       -4.814198    6.311780    0.294720
     81          1           0       -3.407248    6.188880   -0.761220
     82          1           0       -4.939408    5.457900   -1.242580
     83          6           0        4.425392    5.559329   -0.569420
     84          1           0        4.967092    6.231499    0.097790
     85          1           0        5.088832    5.311779   -1.401340
     86          1           0        3.573502    6.109529   -0.975820
     87          6           0        6.611330   -3.754371   -1.787930
     88          1           0        7.328000   -3.951691   -2.586550
     89          1           0        7.165070   -3.348321   -0.938060
     90          1           0        6.184760   -4.712141   -1.480690
 ---------------------------------------------------------------------

 SCF Done:  E(RB3LYP) =  -2211.39355787     A.U. after   16 cycles

      1  P    Isotropic =   175.2258   Anisotropy =   173.3444

      2  P    Isotropic =   173.4955   Anisotropy =   173.9544

      3  C    Isotropic =    69.9133   Anisotropy =    88.6855

      4  C    Isotropic =   108.4396   Anisotropy =    76.3341

      5  C    Isotropic =   147.4818   Anisotropy =    38.9215

      6  C    Isotropic =   111.4247   Anisotropy =    71.0785

      7  C    Isotropic =   147.2171   Anisotropy =    39.7712

      8  C    Isotropic =   108.3915   Anisotropy =    77.0608

      9  C    Isotropic =   147.4905   Anisotropy =    38.9994

     10  C    Isotropic =   111.2891   Anisotropy =    71.0568

     11  C    Isotropic =   147.2120   Anisotropy =    39.6770

     12  H    Isotropic =    27.4903   Anisotropy =     3.7872

     13  H    Isotropic =    28.1193   Anisotropy =     6.8350

     14  H    Isotropic =    28.0773   Anisotropy =     7.0363

     15  H    Isotropic =    30.0004   Anisotropy =     4.2587

     16  H    Isotropic =    30.0969   Anisotropy =     4.1931

     17  H    Isotropic =    28.0704   Anisotropy =     7.7984

     18  H    Isotropic =    28.1926   Anisotropy =     6.6746

     19  H    Isotropic =    30.3637   Anisotropy =     4.1748

     20  H    Isotropic =    30.1841   Anisotropy =     3.8983

     21  H    Isotropic =    28.1090   Anisotropy =     7.3304

     22  H    Isotropic =    28.1825   Anisotropy =     6.9328

     23  H    Isotropic =    30.0189   Anisotropy =     4.2938

     24  H    Isotropic =    30.0940   Anisotropy =     4.2265

     25  H    Isotropic =    28.1579   Anisotropy =     6.6467

     26  H    Isotropic =    28.0501   Anisotropy =     7.7940

     27  H    Isotropic =    30.1426   Anisotropy =     3.8740

     28  H    Isotropic =    30.3267   Anisotropy =     4.0823

     29  Rh   Isotropic =  -272.7043   Anisotropy =   321.6013

     30  C    Isotropic =    64.9110   Anisotropy =   144.0493

     31  C    Isotropic =    74.9138   Anisotropy =   119.8314

     32  C    Isotropic =    76.2281   Anisotropy =   124.8340

     33  C    Isotropic =    64.2980   Anisotropy =   138.9999

     34  C    Isotropic =   153.5210   Anisotropy =    24.8986

     35  H    Isotropic =    26.1952   Anisotropy =     6.1830

     36  H    Isotropic =    26.2369   Anisotropy =     4.4915

     37  C    Isotropic =   148.8952   Anisotropy =    29.7162

     38  C    Isotropic =   154.4295   Anisotropy =    23.5267

     39  H    Isotropic =    26.9283   Anisotropy =     6.6876

     40  C    Isotropic =   148.1153   Anisotropy =    28.8332

     41  H    Isotropic =    25.5918   Anisotropy =     3.8371

     42  H    Isotropic =    29.8272   Anisotropy =    11.0426

     43  H    Isotropic =    29.6483   Anisotropy =     8.8786

     44  H    Isotropic =    29.0919   Anisotropy =    12.0635

     45  H    Isotropic =    29.3707   Anisotropy =     7.8590

     46  H    Isotropic =    29.6705   Anisotropy =     9.0455

     47  H    Isotropic =    29.9340   Anisotropy =    11.3662

     48  H    Isotropic =    29.1620   Anisotropy =     7.0434

     49  H    Isotropic =    29.1731   Anisotropy =    12.0660

     50  C    Isotropic =   161.9114   Anisotropy =    16.3006

     51  H    Isotropic =    30.6606   Anisotropy =     6.6563

     52  H    Isotropic =    30.6686   Anisotropy =     6.0894

     53  C    Isotropic =   162.1831   Anisotropy =    16.2852

     54  H    Isotropic =    30.6720   Anisotropy =     6.6273

     55  H    Isotropic =    30.7030   Anisotropy =     6.4894

     56  C    Isotropic =   162.1245   Anisotropy =    16.3947

     57  H    Isotropic =    30.7154   Anisotropy =     6.4669

     58  H    Isotropic =    30.6838   Anisotropy =     6.6411

     59  C    Isotropic =   161.8816   Anisotropy =    16.3307

     60  H    Isotropic =    30.6428   Anisotropy =     6.5998

     61  H    Isotropic =    30.6487   Anisotropy =     6.1348

     62  N    Isotropic =   211.1428   Anisotropy =    38.9428

     63  C    Isotropic =   136.7091   Anisotropy =    66.1229

     64  H    Isotropic =    30.1007   Anisotropy =     8.0464

     65  H    Isotropic =    29.0949   Anisotropy =     5.5764

     66  H    Isotropic =    29.4216   Anisotropy =    10.0940

     67  C    Isotropic =   136.7178   Anisotropy =    66.3989

     68  H    Isotropic =    29.1198   Anisotropy =     5.6329

     69  H    Isotropic =    30.1201   Anisotropy =     8.0347

     70  H    Isotropic =    29.4319   Anisotropy =    10.1087

     71  O    Isotropic =   200.8745   Anisotropy =   100.4741

     72  O    Isotropic =   197.6804   Anisotropy =    71.6187

     73  O    Isotropic =   200.1777   Anisotropy =   100.7374

     74  O    Isotropic =   197.3693   Anisotropy =    73.7444

     75  C    Isotropic =   169.3813   Anisotropy =    28.7152

     76  H    Isotropic =    30.9645   Anisotropy =     8.3707

     77  H    Isotropic =    30.5583   Anisotropy =    11.5168

     78  H    Isotropic =    30.9337   Anisotropy =     8.5310

     79  C    Isotropic =   169.3292   Anisotropy =    28.7240

     80  H    Isotropic =    30.5524   Anisotropy =    11.4230

     81  H    Isotropic =    30.8931   Anisotropy =     8.2344

     82  H    Isotropic =    30.9002   Anisotropy =     8.8584

     83  C    Isotropic =   169.3140   Anisotropy =    28.7401

     84  H    Isotropic =    30.5437   Anisotropy =    11.4176

     85  H    Isotropic =    30.8934   Anisotropy =     8.8547

     86  H    Isotropic =    30.8815   Anisotropy =     8.2462

     87  C    Isotropic =   169.3882   Anisotropy =    28.7116

     88  H    Isotropic =    30.5682   Anisotropy =    11.5267

     89  H    Isotropic =    30.9805   Anisotropy =     8.3590

     90  H    Isotropic =    30.9529   Anisotropy =     8.5151

 The electronic state is 1-A.
 Alpha  occ. eigenvalues --  -77.30073 -77.30026 -19.26077 -19.26019 -19.26002
 Alpha  occ. eigenvalues --  -19.25962 -14.41898 -10.33262 -10.33093 -10.33050
 Alpha  occ. eigenvalues --  -10.32844 -10.32804 -10.29730 -10.29700 -10.29627
 Alpha  occ. eigenvalues --  -10.29384 -10.28207 -10.28166 -10.28160 -10.27994
 Alpha  occ. eigenvalues --  -10.27900 -10.27827 -10.25963 -10.25935 -10.25931
 Alpha  occ. eigenvalues --  -10.25925 -10.25343 -10.25335 -10.25210 -10.25190
 Alpha  occ. eigenvalues --  -10.23360 -10.23360 -10.23274 -10.23264  -6.75134
 Alpha  occ. eigenvalues --   -6.75087  -4.91566  -4.91515  -4.91404  -4.91358
 Alpha  occ. eigenvalues --   -4.90996  -4.90950  -3.32682  -2.09752  -2.08863
 Alpha  occ. eigenvalues --   -2.06046  -1.16658  -1.16480  -1.13093  -1.13038
 Alpha  occ. eigenvalues --   -1.03009  -0.95051  -0.90040  -0.89865  -0.89583
 Alpha  occ. eigenvalues --   -0.88940  -0.88927  -0.88587  -0.85894  -0.83044
 Alpha  occ. eigenvalues --   -0.81719  -0.81704  -0.81404  -0.80936  -0.80289
 Alpha  occ. eigenvalues --   -0.78452  -0.74860  -0.74716  -0.72977  -0.72887
 Alpha  occ. eigenvalues --   -0.71855  -0.71158  -0.68621  -0.67678  -0.67404
 Alpha  occ. eigenvalues --   -0.67335  -0.67013  -0.66344  -0.66133  -0.63026
 Alpha  occ. eigenvalues --   -0.62419  -0.61671  -0.61190  -0.60432  -0.59795
 Alpha  occ. eigenvalues --   -0.58862  -0.58648  -0.58395  -0.57865  -0.57708
 Alpha  occ. eigenvalues --   -0.56804  -0.56731  -0.55750  -0.54652  -0.54215
 Alpha  occ. eigenvalues --   -0.53650  -0.53599  -0.53427  -0.53388  -0.53165
 Alpha  occ. eigenvalues --   -0.52985  -0.52683  -0.52565  -0.52412  -0.51229
 Alpha  occ. eigenvalues --   -0.49622  -0.49522  -0.49387  -0.49140  -0.49006
 Alpha  occ. eigenvalues --   -0.48764  -0.48494  -0.48354  -0.47595  -0.47285
 Alpha  occ. eigenvalues --   -0.47232  -0.46798  -0.46588  -0.46507  -0.46098
 Alpha  occ. eigenvalues --   -0.45809  -0.45773  -0.45611  -0.45402  -0.43728
 Alpha  occ. eigenvalues --   -0.43657  -0.43330  -0.43197  -0.42922  -0.42724
 Alpha  occ. eigenvalues --   -0.42477  -0.42433  -0.42347  -0.42307  -0.42085
 Alpha  occ. eigenvalues --   -0.41699  -0.41519  -0.41489  -0.41469  -0.41362
 Alpha  occ. eigenvalues --   -0.41336  -0.40787  -0.40597  -0.39719  -0.37852
 Alpha  occ. eigenvalues --   -0.37460  -0.36590  -0.35656  -0.34608  -0.32018
 Alpha  occ. eigenvalues --   -0.31650
 Alpha virt. eigenvalues --   -0.17465  -0.14309  -0.10224  -0.09037  -0.08295
 Alpha virt. eigenvalues --   -0.07899  -0.07263  -0.06786  -0.06026  -0.05588
 Alpha virt. eigenvalues --   -0.05254  -0.04729  -0.04570  -0.04152  -0.03853

 Mulliken charges:
               1
     1  P    0.649102
     2  P    0.650942
     3  C   -0.382418
     4  C   -0.091241
     5  C   -0.219297
     6  C   -0.073718
     7  C   -0.218945
     8  C   -0.085676
     9  C   -0.216263
    10  C   -0.069746
    11  C   -0.221712
    12  H    0.207704
    13  H    0.133149
    14  H    0.121892
    15  H    0.127096
    16  H    0.119123
    17  H    0.128915
    18  H    0.126910
    19  H    0.115981
    20  H    0.121577
    21  H    0.120398
    22  H    0.132792
    23  H    0.126071
    24  H    0.119350
    25  H    0.127061
    26  H    0.128922
    27  H    0.121590
    28  H    0.116455
    29  Rh  -0.662182
    30  C   -0.027635
    31  C   -0.098353
    32  C   -0.014720
    33  C   -0.128844
    34  C   -0.350777
    35  H    0.212885
    36  H    0.182751
    37  C   -0.219964
    38  C   -0.340631
    39  H    0.174319
    40  C   -0.217035
    41  H    0.227091
    42  H    0.172298
    43  H    0.165915
    44  H    0.177673
    45  H    0.132811
    46  H    0.167663
    47  H    0.172366
    48  H    0.139705
    49  H    0.174419
    50  C   -0.187630
    51  H    0.108919
    52  H    0.105840
    53  C   -0.189455
    54  H    0.113056
    55  H    0.110263
    56  C   -0.189179
    57  H    0.110023
    58  H    0.112771
    59  C   -0.187006
    60  H    0.108572
    61  H    0.106112
    62  N   -0.108752
    63  C   -0.303451
    64  H    0.106732
    65  H    0.163278
    66  H    0.143675
    67  C   -0.302051
    68  H    0.162936
    69  H    0.107067
    70  H    0.143475
    71  O   -0.305514
    72  O   -0.337473
    73  O   -0.304735
    74  O   -0.330152
    75  C   -0.352111
    76  H    0.115959
    77  H    0.140349
    78  H    0.116837
    79  C   -0.350966
    80  H    0.138815
    81  H    0.116018
    82  H    0.118616
    83  C   -0.351005
    84  H    0.138811
    85  H    0.118495
    86  H    0.116369
    87  C   -0.352109
    88  H    0.140258
    89  H    0.115867
    90  H    0.116712
 Sum of Mulliken charges =   1.00000

 Dipole moment (field-independent basis, Debye):
    X=             -0.0069    Y=             -0.6328    Z=              1.2720  Tot=              1.4207
 Quadrupole moment (field-independent basis, Debye-Ang):
   XX=           -190.0522   YY=           -215.1473   ZZ=           -206.6986
   XY=             -0.0360   XZ=              0.2290   YZ=              3.9657

 Summary of Natural Population Analysis:

                                       Natural Population
                Natural  -----------------------------------------------
    Atom  No    Charge         Core      Valence    Rydberg      Total
 -----------------------------------------------------------------------
      P    1    1.73123      9.99565     3.18130    0.09182    13.26877
      P    2    1.73315      9.99563     3.17942    0.09180    13.26685
      C    3   -0.63672      1.99935     4.61348    0.02389     6.63672
      C    4   -0.05099      1.99924     4.03705    0.01470     6.05099
      C    5   -0.40438      1.99941     4.39252    0.01245     6.40438
      C    6   -0.05767      1.99924     4.04309    0.01535     6.05767
      C    7   -0.40329      1.99941     4.39173    0.01215     6.40329
      C    8   -0.05095      1.99923     4.03693    0.01478     6.05095
      C    9   -0.40447      1.99941     4.39265    0.01242     6.40447
      C   10   -0.05724      1.99924     4.04267    0.01533     6.05724
      C   11   -0.40145      1.99941     4.38990    0.01214     6.40145
      H   12    0.20963      0.00000     0.78581    0.00456     0.79037
      H   13    0.17010      0.00000     0.82702    0.00288     0.82990
      H   14    0.17563      0.00000     0.82147    0.00289     0.82437
      H   15    0.20871      0.00000     0.78944    0.00185     0.79129
      H   16    0.20474      0.00000     0.79343    0.00183     0.79526
      H   17    0.17654      0.00000     0.82020    0.00325     0.82346
      H   18    0.17491      0.00000     0.82192    0.00316     0.82509
      H   19    0.20185      0.00000     0.79628    0.00187     0.79815
      H   20    0.20513      0.00000     0.79304    0.00184     0.79487
      H   21    0.17689      0.00000     0.82023    0.00287     0.82311
      H   22    0.17041      0.00000     0.82665    0.00294     0.82959
      H   23    0.20818      0.00000     0.78997    0.00185     0.79182
      H   24    0.20499      0.00000     0.79318    0.00183     0.79501
      H   25    0.17521      0.00000     0.82165    0.00313     0.82479
      H   26    0.17669      0.00000     0.82005    0.00325     0.82331
      H   27    0.20260      0.00000     0.79561    0.00178     0.79740
      H   28    0.20197      0.00000     0.79613    0.00190     0.79803
     Rh   29   -0.57996     35.98422     9.57053    0.02522    45.57996
      C   30   -0.14562      1.99907     4.12613    0.02042     6.14562
      C   31   -0.17709      1.99907     4.15653    0.02149     6.17709
      C   32   -0.19008      1.99907     4.17037    0.02064     6.19008
      C   33   -0.13823      1.99907     4.11821    0.02096     6.13823
      C   34   -0.42620      1.99936     4.41482    0.01202     6.42620
      H   35    0.24303      0.00000     0.75527    0.00170     0.75697
      H   36    0.22654      0.00000     0.77145    0.00201     0.77346
      C   37   -0.42429      1.99936     4.41231    0.01262     6.42429
      C   38   -0.42281      1.99936     4.41150    0.01194     6.42281
      H   39    0.22886      0.00000     0.76950    0.00165     0.77114
      C   40   -0.42564      1.99935     4.41377    0.01251     6.42564
      H   41    0.24345      0.00000     0.75441    0.00214     0.75655
      H   42    0.23175      0.00000     0.76686    0.00139     0.76825
      H   43    0.21191      0.00000     0.78608    0.00201     0.78809
      H   44    0.23707      0.00000     0.76116    0.00178     0.76293
      H   45    0.21809      0.00000     0.78032    0.00159     0.78191
      H   46    0.21272      0.00000     0.78528    0.00201     0.78728
      H   47    0.23018      0.00000     0.76840    0.00142     0.76982
      H   48    0.22424      0.00000     0.77420    0.00156     0.77576
      H   49    0.23665      0.00000     0.76155    0.00179     0.76335
      C   50   -0.38187      1.99944     4.37301    0.00942     6.38187
      H   51    0.19447      0.00000     0.80382    0.00170     0.80553
      H   52    0.19248      0.00000     0.80583    0.00169     0.80752
      C   53   -0.38222      1.99944     4.37317    0.00961     6.38222
      H   54    0.19556      0.00000     0.80277    0.00167     0.80444
      H   55    0.19487      0.00000     0.80348    0.00164     0.80513
      C   56   -0.38221      1.99944     4.37325    0.00952     6.38221
      H   57    0.19476      0.00000     0.80356    0.00168     0.80524
      H   58    0.19551      0.00000     0.80283    0.00167     0.80449
      C   59   -0.38191      1.99944     4.37305    0.00942     6.38191
      H   60    0.19434      0.00000     0.80395    0.00170     0.80566
      H   61    0.19255      0.00000     0.80575    0.00170     0.80745
      N   62   -0.42464      1.99952     5.40081    0.02431     7.42464
      C   63   -0.40520      1.99936     4.39522    0.01062     6.40520
      H   64    0.15800      0.00000     0.83795    0.00405     0.84200
      H   65    0.20748      0.00000     0.79047    0.00205     0.79252
      H   66    0.21198      0.00000     0.78647    0.00155     0.78802
      C   67   -0.40521      1.99936     4.39521    0.01064     6.40521
      H   68    0.20728      0.00000     0.79068    0.00204     0.79272
      H   69    0.15821      0.00000     0.83772    0.00406     0.84179
      H   70    0.21199      0.00000     0.78646    0.00155     0.78801
      O   71   -0.77640      1.99980     6.76196    0.01464     8.77640
      O   72   -0.78501      1.99981     6.77162    0.01358     8.78501
      O   73   -0.77614      1.99980     6.76172    0.01462     8.77614
      O   74   -0.78295      1.99981     6.76902    0.01412     8.78295
      C   75   -0.58587      1.99947     4.58019    0.00621     6.58587
      H   76    0.20015      0.00000     0.79834    0.00151     0.79985
      H   77    0.21441      0.00000     0.78451    0.00108     0.78559
      H   78    0.20092      0.00000     0.79771    0.00138     0.79908
      C   79   -0.58590      1.99947     4.58010    0.00633     6.58590
      H   80    0.21350      0.00000     0.78542    0.00108     0.78650
      H   81    0.20053      0.00000     0.79795    0.00152     0.79947
      H   82    0.20158      0.00000     0.79691    0.00151     0.79842
      C   83   -0.58590      1.99947     4.58010    0.00633     6.58590
      H   84    0.21354      0.00000     0.78538    0.00108     0.78646
      H   85    0.20152      0.00000     0.79697    0.00151     0.79848
      H   86    0.20070      0.00000     0.79777    0.00152     0.79930
      C   87   -0.58597      1.99947     4.58021    0.00629     6.58597
      H   88    0.21436      0.00000     0.78456    0.00108     0.78564
      H   89    0.20009      0.00000     0.79839    0.00152     0.79991
      H   90    0.20063      0.00000     0.79785    0.00152     0.79937
 =======================================================================
   * Total *    1.00000    119.95626   209.29361    0.75013   330.00000

 Normal termination of Gaussian 16 at Wed Jan 22 21:53:54 2025.
