 Gaussian 16, Revision B.01,
 Gaussian 16:  ES64L-G16RevB.01 20-Dec-2017

 ------------------------------------------
 # nmr=giao b3lyp/genecp pop=nbo scfcyc=200
 ------------------------------------------

 ---------
 MS-80_SPE
 ---------
 Symbolic Z-matrix:
 Charge =  1 Multiplicity = 1

                         Standard orientation:
 ---------------------------------------------------------------------
 Center     Atomic      Atomic             Coordinates (Angstroms)
 Number     Number       Type             X           Y           Z
 ---------------------------------------------------------------------
      1         15           0        0.197770   -1.970160   -0.364710
      2         15           0        0.542711    0.824830   -0.047770
      3          7           0        2.746070   -0.986811   -1.070720
      4          7           0        2.195310   -3.303361   -1.743390
      5          7           0        2.667260   -2.807571    0.602520
      6          6           0        1.342610   -0.613080   -0.976980
      7          1           0        0.989250   -0.398290   -1.991410
      8          6           0        0.737950   -3.234930   -1.691380
      9          1           0        0.331409   -4.221780   -1.466180
     10          1           0        0.339240   -2.916980   -2.655980
     11          6           0        1.287750   -2.634410    1.040910
     12          1           0        1.246760   -1.944270    1.882450
     13          1           0        0.882140   -3.590510    1.377460
     14          6           0        2.855000   -2.042551   -2.111020
     15          1           0        3.913390   -2.252731   -2.267960
     16          1           0        2.437070   -1.670241   -3.047110
     17          6           0        2.779729   -3.785221   -0.483550
     18          1           0        2.295189   -4.716791   -0.188780
     19          1           0        3.837049   -3.991001   -0.655450
     20          6           0        3.288830   -1.540681    0.191680
     21          1           0        4.353740   -1.718081    0.038930
     22          1           0        3.178410   -0.810451    0.989020
     23          6           0        0.849341    2.347600   -1.031350
     24          6           0        0.179091    3.522350   -0.670490
     25          1           0       -0.485029    3.534860    0.186010
     26          6           0        0.375592    4.691340   -1.394490
     27          1           0       -0.144828    5.595990   -1.106410
     28          6           0        1.239902    4.699150   -2.486140
     29          1           0        1.391862    5.610580   -3.050230
     30          6           0        1.914201    3.537549   -2.844550
     31          1           0        2.597611    3.543239   -3.684350
     32          6           0        1.722541    2.363249   -2.121930
     33          1           0        2.277001    1.475499   -2.396970
     34          6           0        1.365971    1.149150    1.566550
     35          6           0        2.590861    1.823389    1.632910
     36          1           0        3.073731    2.170659    0.728300
     37          6           0        3.189871    2.057149    2.864440
     38          1           0        4.137891    2.578209    2.909500
     39          6           0        2.571301    1.630769    4.037550
     40          1           0        3.039571    1.819699    4.995260
     41          6           0        1.347341    0.973270    3.979070
     42          1           0        0.857981    0.653160    4.890350
     43          6           0        0.743281    0.736580    2.748090
     44          1           0       -0.217839    0.237490    2.701830
     45         45           0       -1.542550   -0.390280    0.023980
     46          6           0       -2.955179    1.159641    0.848890
     47          6           0       -2.882459    1.299961   -0.526860
     48          6           0       -3.381520   -1.559199   -0.607420
     49          6           0       -3.178530   -1.734399    0.747510
     50          6           0       -4.096509    0.503581    1.605120
     51          1           0       -2.318259    1.807591    1.441940
     52          1           0       -2.217529    2.064340   -0.914240
     53          6           0       -3.866909    0.770951   -1.540880
     54          6           0       -4.414500   -0.636979   -1.227260
     55          1           0       -2.980540   -2.320879   -1.266890
     56          6           0       -3.878030   -1.002599    1.866310
     57          1           0       -2.659710   -2.636439    1.056980
     58          1           0       -4.212449    1.007721    2.565750
     59          1           0       -5.031149    0.665211    1.068190
     60          1           0       -4.697819    1.479361   -1.649580
     61          1           0       -3.364089    0.752331   -2.510020
     62          1           0       -5.284790   -0.571999   -0.574490
     63          1           0       -4.768980   -1.086439   -2.156090
     64          1           0       -3.275930   -1.125089    2.769260
     65          1           0       -4.838470   -1.486989    2.081800
 ---------------------------------------------------------------------

 SCF Done:  E(RB3LYP) =  -1968.42636636     A.U. after   15 cycles

      1  P    Isotropic =   392.3314   Anisotropy =    75.1814

      2  P    Isotropic =   289.2751   Anisotropy =    94.9832

      3  N    Isotropic =   195.5827   Anisotropy =    59.9672

      4  N    Isotropic =   183.1219   Anisotropy =    37.7617

      5  N    Isotropic =   196.7785   Anisotropy =    45.0954

      6  C    Isotropic =   105.6992   Anisotropy =    60.8898

      7  H    Isotropic =    25.8501   Anisotropy =     5.2037

      8  C    Isotropic =   119.7240   Anisotropy =    35.5524

      9  H    Isotropic =    27.3975   Anisotropy =     5.5074

     10  H    Isotropic =    27.6959   Anisotropy =     5.0501

     11  C    Isotropic =   125.0321   Anisotropy =    46.0421

     12  H    Isotropic =    27.7551   Anisotropy =     5.2687

     13  H    Isotropic =    27.7538   Anisotropy =     4.4609

     14  C    Isotropic =   103.1764   Anisotropy =    27.8160

     15  H    Isotropic =    27.2580   Anisotropy =     7.9512

     16  H    Isotropic =    27.0860   Anisotropy =     5.7754

     17  C    Isotropic =   107.5979   Anisotropy =    20.7590

     18  H    Isotropic =    27.4676   Anisotropy =     6.8477

     19  H    Isotropic =    27.5841   Anisotropy =     8.2966

     20  C    Isotropic =   113.4845   Anisotropy =    23.4296

     21  H    Isotropic =    27.8654   Anisotropy =     6.9058

     22  H    Isotropic =    27.9169   Anisotropy =     8.2118

     23  C    Isotropic =    43.8512   Anisotropy =   169.8221

     24  C    Isotropic =    47.8906   Anisotropy =   185.4648

     25  H    Isotropic =    24.9712   Anisotropy =    10.3194

     26  C    Isotropic =    48.1253   Anisotropy =   192.1984

     27  H    Isotropic =    24.2214   Anisotropy =     6.4987

     28  C    Isotropic =    45.7237   Anisotropy =   198.0556

     29  H    Isotropic =    24.0134   Anisotropy =     3.6912

     30  C    Isotropic =    48.4151   Anisotropy =   190.7802

     31  H    Isotropic =    24.0206   Anisotropy =     5.9833

     32  C    Isotropic =    48.8856   Anisotropy =   184.4959

     33  H    Isotropic =    23.8715   Anisotropy =    10.7810

     34  C    Isotropic =    46.5971   Anisotropy =   170.2240

     35  C    Isotropic =    43.5181   Anisotropy =   193.6801

     36  H    Isotropic =    24.5058   Anisotropy =    11.1939

     37  C    Isotropic =    47.8643   Anisotropy =   190.9807

     38  H    Isotropic =    24.2358   Anisotropy =     6.1768

     39  C    Isotropic =    44.1125   Anisotropy =   199.5425

     40  H    Isotropic =    23.9396   Anisotropy =     3.9484

     41  C    Isotropic =    48.9969   Anisotropy =   187.7944

     42  H    Isotropic =    23.9999   Anisotropy =     6.6006

     43  C    Isotropic =    42.4896   Anisotropy =   175.0542

     44  H    Isotropic =    23.0679   Anisotropy =     9.2253

     45  Rh   Isotropic =  -321.4741   Anisotropy =   367.3657

     46  C    Isotropic =    84.1115   Anisotropy =   114.9288

     47  C    Isotropic =    73.9217   Anisotropy =   120.7730

     48  C    Isotropic =    80.4087   Anisotropy =   121.7291

     49  C    Isotropic =    79.5683   Anisotropy =   113.7507

     50  C    Isotropic =   153.8924   Anisotropy =    25.3614

     51  H    Isotropic =    26.9064   Anisotropy =     5.8281

     52  H    Isotropic =    26.5173   Anisotropy =     5.9099

     53  C    Isotropic =   147.5544   Anisotropy =    31.1360

     54  C    Isotropic =   153.9459   Anisotropy =    25.6283

     55  H    Isotropic =    27.0180   Anisotropy =     8.0188

     56  C    Isotropic =   147.0436   Anisotropy =    30.0288

     57  H    Isotropic =    26.5983   Anisotropy =     6.0409

     58  H    Isotropic =    29.7882   Anisotropy =    11.1984

     59  H    Isotropic =    29.8449   Anisotropy =     9.2686

     60  H    Isotropic =    29.2636   Anisotropy =    12.0550

     61  H    Isotropic =    29.2647   Anisotropy =     7.3204

     62  H    Isotropic =    29.8951   Anisotropy =     9.0774

     63  H    Isotropic =    29.9536   Anisotropy =    11.6779

     64  H    Isotropic =    29.0212   Anisotropy =     8.1032

     65  H    Isotropic =    29.0652   Anisotropy =    12.5093

 The electronic state is 1-A.
 Alpha  occ. eigenvalues --  -77.24436 -77.22376 -14.43549 -14.43372 -14.42902
 Alpha  occ. eigenvalues --  -10.33734 -10.33669 -10.33156 -10.33063 -10.32986
 Alpha  occ. eigenvalues --  -10.32376 -10.30321 -10.30078 -10.29868 -10.29832
 Alpha  occ. eigenvalues --  -10.29732 -10.29619 -10.29113 -10.28896 -10.28785
 Alpha  occ. eigenvalues --  -10.28661 -10.28351 -10.28288 -10.28194 -10.28152
 Alpha  occ. eigenvalues --  -10.28024 -10.27935 -10.27887 -10.27877 -10.27841
 Alpha  occ. eigenvalues --  -10.27810  -6.70420  -6.68633  -4.86702  -4.86630
 Alpha  occ. eigenvalues --   -4.86327  -4.84862  -4.84793  -4.84575  -3.32626
 Alpha  occ. eigenvalues --   -2.09518  -2.08886  -2.06052  -1.10590  -1.01522
 Alpha  occ. eigenvalues --   -1.01199  -0.97342  -0.96635  -0.95140  -0.89914
 Alpha  occ. eigenvalues --   -0.89852  -0.88637  -0.87458  -0.86003  -0.85666
 Alpha  occ. eigenvalues --   -0.85525  -0.82819  -0.82252  -0.80992  -0.78434
 Alpha  occ. eigenvalues --   -0.77987  -0.75527  -0.73975  -0.72730  -0.71817
 Alpha  occ. eigenvalues --   -0.71428  -0.71172  -0.70851  -0.68086  -0.66565
 Alpha  occ. eigenvalues --   -0.66210  -0.63129  -0.63072  -0.61884  -0.60719
 Alpha  occ. eigenvalues --   -0.60679  -0.60439  -0.60072  -0.58696  -0.57764
 Alpha  occ. eigenvalues --   -0.57174  -0.56912  -0.56522  -0.56381  -0.56074
 Alpha  occ. eigenvalues --   -0.55788  -0.54697  -0.54198  -0.53441  -0.53380
 Alpha  occ. eigenvalues --   -0.53271  -0.53104  -0.52306  -0.51148  -0.50802
 Alpha  occ. eigenvalues --   -0.50600  -0.49774  -0.49439  -0.48947  -0.48865
 Alpha  occ. eigenvalues --   -0.48647  -0.48245  -0.47997  -0.47759  -0.47135
 Alpha  occ. eigenvalues --   -0.47054  -0.46616  -0.46444  -0.45773  -0.45608
 Alpha  occ. eigenvalues --   -0.44724  -0.44112  -0.44035  -0.43743  -0.42430
 Alpha  occ. eigenvalues --   -0.40197  -0.38490  -0.37613  -0.36840  -0.36587
 Alpha  occ. eigenvalues --   -0.36383  -0.36158  -0.35885  -0.35313  -0.34979
 Alpha  occ. eigenvalues --   -0.32598  -0.32023  -0.31720
 Alpha virt. eigenvalues --   -0.17030  -0.16166  -0.14487  -0.12869  -0.12528
 Alpha virt. eigenvalues --   -0.11643  -0.10100  -0.09442  -0.08283  -0.07459
 Alpha virt. eigenvalues --   -0.07324  -0.07119  -0.06127  -0.05148  -0.04898

 Mulliken charges:
               1
     1  P    0.394060
     2  P    0.439295
     3  N    0.042163
     4  N   -0.034445
     5  N   -0.025467
     6  C   -0.591547
     7  H    0.230435
     8  C   -0.325190
     9  H    0.187147
    10  H    0.185338
    11  C   -0.352132
    12  H    0.200935
    13  H    0.182502
    14  C   -0.293371
    15  H    0.194381
    16  H    0.174513
    17  C   -0.313046
    18  H    0.179739
    19  H    0.191576
    20  C   -0.298891
    21  H    0.186091
    22  H    0.200671
    23  C   -0.225586
    24  C   -0.095722
    25  H    0.159559
    26  C   -0.098708
    27  H    0.134666
    28  C   -0.084918
    29  H    0.140646
    30  C   -0.095574
    31  H    0.135667
    32  C   -0.036274
    33  H    0.163467
    34  C   -0.340318
    35  C   -0.006906
    36  H    0.156196
    37  C   -0.091032
    38  H    0.138961
    39  C   -0.083724
    40  H    0.143254
    41  C   -0.107423
    42  H    0.134252
    43  C   -0.054400
    44  H    0.191289
    45  Rh  -0.616972
    46  C   -0.031808
    47  C   -0.084813
    48  C   -0.014879
    49  C   -0.072376
    50  C   -0.355670
    51  H    0.187739
    52  H    0.210772
    53  C   -0.235991
    54  C   -0.344638
    55  H    0.175013
    56  C   -0.220896
    57  H    0.174544
    58  H    0.171334
    59  H    0.169983
    60  H    0.172970
    61  H    0.136283
    62  H    0.168310
    63  H    0.171463
    64  H    0.134337
    65  H    0.173171
 Sum of Mulliken charges =   1.00000

 Dipole moment (field-independent basis, Debye):
    X=             -0.8059    Y=             -0.4278    Z=             -0.0274  Tot=              0.9128
 Quadrupole moment (field-independent basis, Debye-Ang):
   XX=           -173.4682   YY=           -179.2272   ZZ=           -188.3704
   XY=              3.2594   XZ=             -1.9977   YZ=             -0.8637

 Summary of Natural Population Analysis:

                                       Natural Population
                Natural  -----------------------------------------------
    Atom  No    Charge         Core      Valence    Rydberg      Total
 -----------------------------------------------------------------------
      P    1    0.91326      9.99688     4.04758    0.04228    14.08674
      P    2    1.12219      9.99646     3.82919    0.05216    13.87781
      N    3   -0.45250      1.99954     5.42955    0.02341     7.45250
      N    4   -0.41543      1.99960     5.39698    0.01886     7.41543
      N    5   -0.41936      1.99959     5.39970    0.02006     7.41936
      C    6   -0.58182      1.99934     4.55547    0.02701     6.58182
      H    7    0.24010      0.00000     0.75669    0.00321     0.75990
      C    8   -0.45482      1.99934     4.43826    0.01722     6.45482
      H    9    0.22470      0.00000     0.77327    0.00203     0.77530
      H   10    0.22311      0.00000     0.77482    0.00207     0.77689
      C   11   -0.47008      1.99935     4.45337    0.01736     6.47008
      H   12    0.22815      0.00000     0.76943    0.00242     0.77185
      H   13    0.22413      0.00000     0.77385    0.00202     0.77587
      C   14   -0.07485      1.99932     4.05618    0.01934     6.07485
      H   15    0.21171      0.00000     0.78623    0.00206     0.78829
      H   16    0.19552      0.00000     0.80210    0.00238     0.80448
      C   17   -0.07758      1.99934     4.05907    0.01917     6.07758
      H   18    0.19843      0.00000     0.79882    0.00275     0.80157
      H   19    0.20925      0.00000     0.78866    0.00208     0.79075
      C   20   -0.08431      1.99932     4.06421    0.02078     6.08431
      H   21    0.20992      0.00000     0.78806    0.00202     0.79008
      H   22    0.21017      0.00000     0.78704    0.00279     0.78983
      C   23   -0.34429      1.99900     4.32170    0.02359     6.34429
      C   24   -0.19706      1.99909     4.18260    0.01537     6.19706
      H   25    0.21301      0.00000     0.78482    0.00217     0.78699
      C   26   -0.18880      1.99920     4.17508    0.01452     6.18880
      H   27    0.22355      0.00000     0.77523    0.00122     0.77645
      C   28   -0.17817      1.99921     4.16443    0.01454     6.17817
      H   29    0.22421      0.00000     0.77462    0.00117     0.77579
      C   30   -0.18871      1.99920     4.17494    0.01457     6.18871
      H   31    0.22316      0.00000     0.77562    0.00122     0.77684
      C   32   -0.19900      1.99909     4.18412    0.01579     6.19900
      H   33    0.21964      0.00000     0.77797    0.00238     0.78036
      C   34   -0.35806      1.99898     4.33383    0.02524     6.35806
      C   35   -0.18862      1.99909     4.17325    0.01627     6.18862
      H   36    0.22535      0.00000     0.77266    0.00198     0.77465
      C   37   -0.19020      1.99920     4.17652    0.01448     6.19020
      H   38    0.22554      0.00000     0.77324    0.00122     0.77446
      C   39   -0.17173      1.99921     4.15796    0.01456     6.17173
      H   40    0.22498      0.00000     0.77385    0.00117     0.77502
      C   41   -0.19704      1.99919     4.18316    0.01469     6.19704
      H   42    0.22294      0.00000     0.77583    0.00123     0.77706
      C   43   -0.19498      1.99908     4.18033    0.01557     6.19498
      H   44    0.22111      0.00000     0.77693    0.00196     0.77889
     Rh   45   -0.39151     35.98460     9.38039    0.02652    45.39151
      C   46   -0.17585      1.99903     4.15696    0.01986     6.17585
      C   47   -0.14422      1.99903     4.12508    0.02011     6.14422
      C   48   -0.15982      1.99904     4.14097    0.01981     6.15982
      C   49   -0.15460      1.99904     4.13517    0.02039     6.15460
      C   50   -0.42421      1.99937     4.41302    0.01182     6.42421
      H   51    0.22824      0.00000     0.77013    0.00163     0.77176
      H   52    0.23130      0.00000     0.76641    0.00229     0.76870
      C   53   -0.42196      1.99936     4.41014    0.01246     6.42196
      C   54   -0.42524      1.99937     4.41404    0.01183     6.42524
      H   55    0.22839      0.00000     0.77010    0.00151     0.77161
      C   56   -0.42149      1.99936     4.40973    0.01240     6.42149
      H   57    0.22614      0.00000     0.77225    0.00161     0.77386
      H   58    0.22932      0.00000     0.76928    0.00139     0.77068
      H   59    0.21523      0.00000     0.78280    0.00196     0.78477
      H   60    0.23493      0.00000     0.76325    0.00182     0.76507
      H   61    0.22061      0.00000     0.77785    0.00154     0.77939
      H   62    0.21493      0.00000     0.78312    0.00195     0.78507
      H   63    0.23022      0.00000     0.76841    0.00137     0.76978
      H   64    0.21737      0.00000     0.78108    0.00154     0.78263
      H   65    0.23547      0.00000     0.76271    0.00182     0.76453
 =======================================================================
   * Total *    1.00000    113.95581   169.35016    0.69403   284.00000

 Normal termination of Gaussian 16 at Wed Jan 22 21:29:24 2025.
