 Gaussian 16, Revision B.01,
 Gaussian 16:  ES64L-G16RevB.01 20-Dec-2017

 ------------------------------------------
 # nmr=giao b3lyp/genecp pop=nbo scfcyc=200
 ------------------------------------------

 ---------
 MS-84_SPE
 ---------
 Symbolic Z-matrix:
 Charge =  1 Multiplicity = 1

                         Standard orientation:
 ---------------------------------------------------------------------
 Center     Atomic      Atomic             Coordinates (Angstroms)
 Number     Number       Type             X           Y           Z
 ---------------------------------------------------------------------
      1         15           0        1.397759    0.257392    0.434941
      2         15           0       -1.321101    0.293330    0.325511
      3          6           0        0.006169    1.003491    1.476031
      4          6           0        4.848759    1.298613    2.329551
      5          6           0        5.040080   -0.974786    0.225021
      6          6           0        1.403307    4.148272   -1.095019
      7          6           0        3.974008    2.720053   -2.126369
      8          6           0       -4.116911    0.869398   -2.250289
      9          6           0       -2.607232    3.588459   -2.370669
     10          1           0       -0.024041    0.303061    2.339911
     11          1           0        5.915329    1.227924    2.558491
     12          1           0        4.728268    2.043653    1.541071
     13          1           0        4.342369    1.660693    3.226241
     14          1           0        6.112040   -1.097246    0.399871
     15          1           0        4.652731   -1.940087   -0.107899
     16          1           0        4.921240   -0.255446   -0.587619
     17          1           0        1.286917    4.848781   -1.925789
     18          1           0        0.425377    3.973531   -0.644179
     19          1           0        2.038867    4.623532   -0.345089
     20          1           0        4.097918    3.435303   -2.943549
     21          1           0        4.551298    3.088633   -1.276049
     22          1           0        4.408759    1.771593   -2.448699
     23          1           0       -4.404980    0.025658   -1.619509
     24          1           0       -5.029381    1.264048   -2.704459
     25          1           0       -3.485621    0.498489   -3.060599
     26          1           0       -3.439243    4.099449   -2.861719
     27          1           0       -2.051933    4.332380   -1.796529
     28          1           0       -1.949742    3.198460   -3.149759
     29         45           0        0.070720   -1.238289   -0.707289
     30          6           0       -1.391589   -2.977800   -1.224529
     31          6           0       -1.304479   -2.134640   -2.303809
     32          6           0        1.613781   -2.402718   -1.969489
     33          6           0        1.513311   -2.996598   -0.732729
     34          6           0       -0.677498   -4.306990   -1.076039
     35          1           0       -2.209599   -2.805950   -0.535209
     36          1           0       -2.076580   -1.379320   -2.403909
     37          6           0       -0.430939   -2.302959   -3.521859
     38          6           0        0.967411   -2.901319   -3.247979
     39          1           0        2.407411   -1.674838   -2.099999
     40          6           0        0.693362   -4.209879   -0.371369
     41          1           0        2.246271   -2.716688    0.015431
     42          1           0       -1.313518   -4.977270   -0.495169
     43          1           0       -0.568708   -4.773540   -2.054519
     44          1           0       -0.953679   -2.919100   -4.264139
     45          1           0       -0.313630   -1.320009   -3.982759
     46          1           0        0.917762   -3.989689   -3.233499
     47          1           0        1.617281   -2.644148   -4.086059
     48          1           0        0.540312   -4.193979    0.709711
     49          1           0        1.274912   -5.117579   -0.576459
     50          6           0       -4.366722    2.887028    0.095001
     51          1           0       -4.671102    2.100188    0.786881
     52          1           0       -3.875122    3.676599    0.666361
     53          1           0       -5.272042    3.314088   -0.344379
     54          6           0        1.183219    1.770601   -3.107059
     55          1           0        1.645459    0.842832   -3.449849
     56          1           0        0.155789    1.553901   -2.810489
     57          1           0        1.153178    2.459031   -3.955599
     58          6           0        4.294351   -1.646027    3.179601
     59          1           0        3.743660   -1.309827    4.060431
     60          1           0        3.881501   -2.608137    2.869571
     61          1           0        5.333061   -1.808876    3.477421
     62         14           0        2.156228    2.538242   -1.691879
     63         14           0        4.196070   -0.380587    1.798561
     64         14           0       -3.253372    2.220009   -1.263349
     65          6           0       -4.685459   -2.084792    1.414501
     66          1           0       -5.404670   -1.385432    0.982981
     67          1           0       -4.287679   -2.701702    0.606211
     68          1           0       -5.233749   -2.744612    2.091751
     69          6           0       -4.049750   -0.089261    3.704671
     70          1           0       -4.771141    0.625688    3.304051
     71          1           0       -4.568270   -0.703322    4.445471
     72          1           0       -3.270121    0.470739    4.224481
     73          6           0       -2.017629   -2.342700    3.010241
     74          1           0       -1.515679   -2.882240    2.204821
     75          1           0       -1.257009   -1.812200    3.586981
     76          1           0       -2.474659   -3.081531    3.673491
     77         14           0       -3.334710   -1.172591    2.349981
     78          8           0       -2.607170   -0.093981    1.222261
     79          8           0       -1.839281    1.543520   -0.543209
     80          8           0        2.135009    1.447112   -0.357129
     81          8           0        2.505240   -0.239678    1.486721
     82          7           0        0.002048    2.391411    1.859621
     83          6           0       -1.197752    2.755810    2.612701
     84          1           0       -1.257112    2.239180    3.585251
     85          1           0       -1.187323    3.829940    2.800131
     86          1           0       -2.092982    2.519750    2.042861
     87          6           0        1.207878    2.781621    2.591631
     88          1           0        1.155647    3.848321    2.811311
     89          1           0        1.318648    2.239262    3.544791
     90          1           0        2.093208    2.606302    1.985541
 ---------------------------------------------------------------------

 SCF Done:  E(RB3LYP) =  -3217.33280895     A.U. after   16 cycles

      1  P    Isotropic =   184.4148   Anisotropy =   165.8609

      2  P    Isotropic =   184.8364   Anisotropy =   164.2678

      3  C    Isotropic =    60.8058   Anisotropy =    96.7799

      4  C    Isotropic =   181.5636   Anisotropy =    11.8704

      5  C    Isotropic =   182.4624   Anisotropy =    11.9525

      6  C    Isotropic =   182.1041   Anisotropy =    12.3243

      7  C    Isotropic =   181.4543   Anisotropy =    15.3851

      8  C    Isotropic =   181.9450   Anisotropy =    11.4449

      9  C    Isotropic =   182.2000   Anisotropy =    12.4508

     10  H    Isotropic =    27.6707   Anisotropy =     4.8661

     11  H    Isotropic =    31.7229   Anisotropy =    11.8383

     12  H    Isotropic =    31.5568   Anisotropy =     7.3002

     13  H    Isotropic =    31.5399   Anisotropy =     7.1392

     14  H    Isotropic =    31.7153   Anisotropy =    11.9035

     15  H    Isotropic =    31.8312   Anisotropy =     7.1612

     16  H    Isotropic =    31.6333   Anisotropy =     7.8749

     17  H    Isotropic =    31.7627   Anisotropy =    10.5152

     18  H    Isotropic =    30.8552   Anisotropy =     8.8534

     19  H    Isotropic =    31.3464   Anisotropy =     8.0469

     20  H    Isotropic =    31.5980   Anisotropy =    11.3507

     21  H    Isotropic =    31.4029   Anisotropy =     8.1075

     22  H    Isotropic =    31.5311   Anisotropy =     7.1388

     23  H    Isotropic =    31.6658   Anisotropy =     7.2361

     24  H    Isotropic =    31.5904   Anisotropy =    11.8054

     25  H    Isotropic =    31.5637   Anisotropy =     6.9598

     26  H    Isotropic =    31.6761   Anisotropy =    11.8072

     27  H    Isotropic =    31.3185   Anisotropy =     7.3760

     28  H    Isotropic =    31.4738   Anisotropy =     7.4856

     29  Rh   Isotropic =  -293.7267   Anisotropy =   336.2285

     30  C    Isotropic =    73.2114   Anisotropy =   128.5472

     31  C    Isotropic =    72.6910   Anisotropy =   123.3266

     32  C    Isotropic =    79.6487   Anisotropy =   120.9645

     33  C    Isotropic =    70.2797   Anisotropy =   126.7754

     34  C    Isotropic =   154.0075   Anisotropy =    23.9230

     35  H    Isotropic =    26.8935   Anisotropy =     6.8613

     36  H    Isotropic =    26.2317   Anisotropy =     5.0270

     37  C    Isotropic =   148.7266   Anisotropy =    26.9744

     38  C    Isotropic =   154.4511   Anisotropy =    23.1647

     39  H    Isotropic =    27.1953   Anisotropy =     5.4678

     40  C    Isotropic =   147.7347   Anisotropy =    28.6142

     41  H    Isotropic =    26.2478   Anisotropy =     4.9413

     42  H    Isotropic =    29.9042   Anisotropy =    10.6424

     43  H    Isotropic =    29.7463   Anisotropy =     9.2630

     44  H    Isotropic =    29.1903   Anisotropy =    12.2536

     45  H    Isotropic =    29.3146   Anisotropy =     6.7277

     46  H    Isotropic =    29.7838   Anisotropy =     9.5510

     47  H    Isotropic =    29.9137   Anisotropy =    10.8911

     48  H    Isotropic =    29.1753   Anisotropy =     6.6695

     49  H    Isotropic =    29.1425   Anisotropy =    12.2131

     50  C    Isotropic =   181.1123   Anisotropy =    12.4755

     51  H    Isotropic =    31.5233   Anisotropy =     8.0687

     52  H    Isotropic =    31.3281   Anisotropy =     6.9482

     53  H    Isotropic =    31.6642   Anisotropy =    11.8616

     54  C    Isotropic =   181.0738   Anisotropy =    10.0777

     55  H    Isotropic =    31.3748   Anisotropy =     7.1092

     56  H    Isotropic =    30.9442   Anisotropy =     9.0138

     57  H    Isotropic =    31.5811   Anisotropy =    10.3714

     58  C    Isotropic =   182.5668   Anisotropy =    14.6718

     59  H    Isotropic =    31.4207   Anisotropy =     8.0603

     60  H    Isotropic =    31.5541   Anisotropy =     7.5105

     61  H    Isotropic =    31.7585   Anisotropy =    11.7033

     62  Si   Isotropic =   311.9176   Anisotropy =    27.8389

     63  Si   Isotropic =   313.1629   Anisotropy =    29.7948

     64  Si   Isotropic =   312.3386   Anisotropy =    31.8887

     65  C    Isotropic =   181.7067   Anisotropy =    13.6946

     66  H    Isotropic =    31.4426   Anisotropy =     7.9004

     67  H    Isotropic =    31.7323   Anisotropy =     7.1562

     68  H    Isotropic =    31.6746   Anisotropy =    11.6096

     69  C    Isotropic =   181.5284   Anisotropy =    14.5608

     70  H    Isotropic =    31.4570   Anisotropy =     7.8834

     71  H    Isotropic =    31.7054   Anisotropy =    11.6616

     72  H    Isotropic =    31.5413   Anisotropy =     7.3124

     73  C    Isotropic =   182.2046   Anisotropy =     9.8209

     74  H    Isotropic =    31.2475   Anisotropy =     9.9609

     75  H    Isotropic =    31.2670   Anisotropy =     6.9780

     76  H    Isotropic =    31.5564   Anisotropy =    11.2916

     77  Si   Isotropic =   314.4262   Anisotropy =    27.5593

     78  O    Isotropic =   185.6411   Anisotropy =   106.1821

     79  O    Isotropic =   193.2121   Anisotropy =   141.4724

     80  O    Isotropic =   191.8209   Anisotropy =   116.6513

     81  O    Isotropic =   184.8824   Anisotropy =   117.9961

     82  N    Isotropic =   205.1455   Anisotropy =    46.2444

     83  C    Isotropic =   137.9263   Anisotropy =    65.6772

     84  H    Isotropic =    30.2124   Anisotropy =     7.5644

     85  H    Isotropic =    29.5351   Anisotropy =     9.7692

     86  H    Isotropic =    29.4483   Anisotropy =     6.9952

     87  C    Isotropic =   138.4450   Anisotropy =    65.9988

     88  H    Isotropic =    29.5958   Anisotropy =     9.7164

     89  H    Isotropic =    30.1553   Anisotropy =     7.6439

     90  H    Isotropic =    29.3661   Anisotropy =     7.0354

 The electronic state is 1-A.
 Alpha  occ. eigenvalues --  -77.30085 -77.30071 -66.25931 -66.25503 -66.25415
 Alpha  occ. eigenvalues --  -66.25397 -19.23910 -19.23697 -19.23626 -19.23539
 Alpha  occ. eigenvalues --  -14.41689 -10.31697 -10.29401 -10.29362 -10.29295
 Alpha  occ. eigenvalues --  -10.29015 -10.28054 -10.27925 -10.27864 -10.27823
 Alpha  occ. eigenvalues --  -10.27708 -10.27599 -10.24621 -10.24391 -10.24317
 Alpha  occ. eigenvalues --  -10.24160 -10.24143 -10.24066 -10.23882 -10.23792
 Alpha  occ. eigenvalues --  -10.23778 -10.23771 -10.23683 -10.23304  -6.74915
 Alpha  occ. eigenvalues --   -6.74906  -5.39427  -5.39006  -5.38919  -5.38890
 Alpha  occ. eigenvalues --   -4.91380  -4.91374  -4.91204  -4.91196  -4.90776
 Alpha  occ. eigenvalues --   -4.90754  -3.75606  -3.75180  -3.75180  -3.75161
 Alpha  occ. eigenvalues --   -3.75099  -3.75077  -3.74758  -3.74745  -3.74669
 Alpha  occ. eigenvalues --   -3.74654  -3.74642  -3.74615  -3.31700  -2.08708
 Alpha  occ. eigenvalues --   -2.07890  -2.05110  -1.13825  -1.13572  -1.09235
 Alpha  occ. eigenvalues --   -1.09124  -1.02661  -0.94757  -0.89555  -0.88334
 Alpha  occ. eigenvalues --   -0.85017  -0.81548  -0.81067  -0.80867  -0.80739
 Alpha  occ. eigenvalues --   -0.80654  -0.80162  -0.78202  -0.77939  -0.77618
 Alpha  occ. eigenvalues --   -0.77537  -0.77439  -0.77420  -0.77244  -0.77146
 Alpha  occ. eigenvalues --   -0.76912  -0.74195  -0.73569  -0.70911  -0.68535
 Alpha  occ. eigenvalues --   -0.66156  -0.64959  -0.64326  -0.62816  -0.60942
 Alpha  occ. eigenvalues --   -0.60252  -0.57924  -0.57630  -0.57014  -0.56525
 Alpha  occ. eigenvalues --   -0.55016  -0.54886  -0.54004  -0.53252  -0.53087
 Alpha  occ. eigenvalues --   -0.52964  -0.52872  -0.52618  -0.52320  -0.52183
 Alpha  occ. eigenvalues --   -0.51849  -0.51176  -0.51038  -0.50921  -0.50760
 Alpha  occ. eigenvalues --   -0.50554  -0.50371  -0.50247  -0.49990  -0.49936
 Alpha  occ. eigenvalues --   -0.49724  -0.49538  -0.49338  -0.49150  -0.49055
 Alpha  occ. eigenvalues --   -0.48865  -0.48552  -0.48423  -0.48351  -0.48215
 Alpha  occ. eigenvalues --   -0.48176  -0.48135  -0.48012  -0.47943  -0.47908
 Alpha  occ. eigenvalues --   -0.47809  -0.47716  -0.47547  -0.47230  -0.46626
 Alpha  occ. eigenvalues --   -0.46372  -0.46336  -0.46050  -0.45787  -0.45432
 Alpha  occ. eigenvalues --   -0.44970  -0.44635  -0.44144  -0.43411  -0.43142
 Alpha  occ. eigenvalues --   -0.41791  -0.40981  -0.39947  -0.39641  -0.39502
 Alpha  occ. eigenvalues --   -0.39345  -0.39263  -0.39066  -0.39025  -0.38683
 Alpha  occ. eigenvalues --   -0.36642  -0.35593  -0.35266  -0.34831  -0.33890
 Alpha  occ. eigenvalues --   -0.31843  -0.30617
 Alpha virt. eigenvalues --   -0.16639  -0.13448  -0.09890  -0.08971  -0.07771
 Alpha virt. eigenvalues --   -0.07440  -0.07232  -0.06968  -0.06044  -0.05185
 Alpha virt. eigenvalues --   -0.04903  -0.04619  -0.04520  -0.04324  -0.04002

 Mulliken charges:
               1
     1  P    0.732280
     2  P    0.680535
     3  C   -0.406193
     4  C   -0.539823
     5  C   -0.596952
     6  C   -0.542114
     7  C   -0.530540
     8  C   -0.601968
     9  C   -0.525065
    10  H    0.182922
    11  H    0.150231
    12  H    0.139703
    13  H    0.145807
    14  H    0.155421
    15  H    0.142573
    16  H    0.138772
    17  H    0.140964
    18  H    0.158300
    19  H    0.139407
    20  H    0.148773
    21  H    0.142818
    22  H    0.134417
    23  H    0.142050
    24  H    0.159461
    25  H    0.136406
    26  H    0.146196
    27  H    0.146320
    28  H    0.139127
    29  Rh  -0.601836
    30  C   -0.004668
    31  C   -0.091678
    32  C   -0.001198
    33  C   -0.101642
    34  C   -0.356116
    35  H    0.137307
    36  H    0.187699
    37  C   -0.215900
    38  C   -0.364787
    39  H    0.176725
    40  C   -0.234107
    41  H    0.182790
    42  H    0.168930
    43  H    0.169083
    44  H    0.175587
    45  H    0.138071
    46  H    0.168625
    47  H    0.170649
    48  H    0.137080
    49  H    0.174738
    50  C   -0.560935
    51  H    0.138249
    52  H    0.145722
    53  H    0.152792
    54  C   -0.589892
    55  H    0.133445
    56  H    0.141900
    57  H    0.160912
    58  C   -0.524426
    59  H    0.142827
    60  H    0.135160
    61  H    0.141932
    62  Si   0.769471
    63  Si   0.775627
    64  Si   0.782706
    65  C   -0.569118
    66  H    0.144255
    67  H    0.150463
    68  H    0.150460
    69  C   -0.494388
    70  H    0.145139
    71  H    0.147073
    72  H    0.136661
    73  C   -0.571693
    74  H    0.128939
    75  H    0.140850
    76  H    0.158110
    77  Si   0.732850
    78  O   -0.487801
    79  O   -0.458653
    80  O   -0.476078
    81  O   -0.472405
    82  N   -0.147434
    83  C   -0.308846
    84  H    0.108642
    85  H    0.146936
    86  H    0.160524
    87  C   -0.292900
    88  H    0.142575
    89  H    0.108945
    90  H    0.156229
 Sum of Mulliken charges =   1.00000

 Dipole moment (field-independent basis, Debye):
    X=             -0.3765    Y=             -1.4323    Z=             -0.2633  Tot=              1.5042
 Quadrupole moment (field-independent basis, Debye-Ang):
   XX=           -220.6241   YY=           -235.1946   ZZ=           -240.7031
   XY=              0.0033   XZ=             -0.5895   YZ=              0.3471

 Summary of Natural Population Analysis:

                                       Natural Population
                Natural  -----------------------------------------------
    Atom  No    Charge         Core      Valence    Rydberg      Total
 -----------------------------------------------------------------------
      P    1    1.79542      9.99597     3.11150    0.09710    13.20458
      P    2    1.77231      9.99604     3.13554    0.09611    13.22769
      C    3   -0.66194      1.99935     4.63871    0.02387     6.66194
      C    4   -1.11353      1.99943     5.10571    0.00838     7.11353
      C    5   -1.11473      1.99944     5.10674    0.00855     7.11473
      C    6   -1.11565      1.99943     5.10776    0.00847     7.11565
      C    7   -1.10771      1.99944     5.10022    0.00805     7.10771
      C    8   -1.11587      1.99944     5.10778    0.00865     7.11587
      C    9   -1.10753      1.99943     5.10003    0.00807     7.10753
      H   10    0.21253      0.00000     0.78357    0.00390     0.78747
      H   11    0.24384      0.00000     0.75529    0.00086     0.75616
      H   12    0.23711      0.00000     0.76179    0.00110     0.76289
      H   13    0.23926      0.00000     0.75980    0.00095     0.76074
      H   14    0.24612      0.00000     0.75304    0.00085     0.75388
      H   15    0.23204      0.00000     0.76688    0.00109     0.76796
      H   16    0.23608      0.00000     0.76283    0.00109     0.76392
      H   17    0.23875      0.00000     0.76034    0.00090     0.76125
      H   18    0.25075      0.00000     0.74787    0.00138     0.74925
      H   19    0.23888      0.00000     0.76020    0.00092     0.76112
      H   20    0.24299      0.00000     0.75618    0.00082     0.75701
      H   21    0.23875      0.00000     0.76023    0.00102     0.76125
      H   22    0.23422      0.00000     0.76475    0.00103     0.76578
      H   23    0.23485      0.00000     0.76410    0.00106     0.76515
      H   24    0.24630      0.00000     0.75283    0.00087     0.75370
      H   25    0.23178      0.00000     0.76721    0.00101     0.76822
      H   26    0.24246      0.00000     0.75672    0.00082     0.75754
      H   27    0.24155      0.00000     0.75740    0.00105     0.75845
      H   28    0.23656      0.00000     0.76242    0.00102     0.76344
     Rh   29   -0.53826     35.98543     9.52515    0.02767    45.53826
      C   30   -0.17114      1.99907     4.15091    0.02116     6.17114
      C   31   -0.17014      1.99909     4.14987    0.02118     6.17014
      C   32   -0.19134      1.99908     4.17152    0.02074     6.19134
      C   33   -0.15537      1.99908     4.13515    0.02114     6.15537
      C   34   -0.42613      1.99936     4.41469    0.01208     6.42613
      H   35    0.22129      0.00000     0.77626    0.00246     0.77871
      H   36    0.22918      0.00000     0.76875    0.00207     0.77082
      C   37   -0.42167      1.99935     4.40943    0.01288     6.42167
      C   38   -0.42330      1.99936     4.41196    0.01198     6.42330
      H   39    0.22644      0.00000     0.77157    0.00199     0.77356
      C   40   -0.42063      1.99935     4.40835    0.01293     6.42063
      H   41    0.22802      0.00000     0.76954    0.00244     0.77198
      H   42    0.22836      0.00000     0.77016    0.00149     0.77164
      H   43    0.21583      0.00000     0.78214    0.00203     0.78417
      H   44    0.23534      0.00000     0.76278    0.00188     0.76466
      H   45    0.21858      0.00000     0.77982    0.00160     0.78142
      H   46    0.21468      0.00000     0.78330    0.00203     0.78532
      H   47    0.22894      0.00000     0.76957    0.00148     0.77106
      H   48    0.21779      0.00000     0.78055    0.00166     0.78221
      H   49    0.23456      0.00000     0.76350    0.00194     0.76544
      C   50   -1.11422      1.99943     5.10623    0.00856     7.11422
      H   51    0.23700      0.00000     0.76190    0.00110     0.76300
      H   52    0.23920      0.00000     0.75983    0.00097     0.76080
      H   53    0.24346      0.00000     0.75567    0.00087     0.75654
      C   54   -1.11021      1.99944     5.10182    0.00895     7.11021
      H   55    0.23261      0.00000     0.76625    0.00114     0.76739
      H   56    0.23919      0.00000     0.75956    0.00125     0.76081
      H   57    0.24294      0.00000     0.75613    0.00093     0.75706
      C   58   -1.10543      1.99944     5.09817    0.00782     7.10543
      H   59    0.24092      0.00000     0.75820    0.00088     0.75908
      H   60    0.23636      0.00000     0.76275    0.00089     0.76364
      H   61    0.24203      0.00000     0.75715    0.00082     0.75797
     Si   62    1.86787      9.99787     2.10148    0.03278    12.13213
     Si   63    1.86094      9.99794     2.10799    0.03313    12.13906
     Si   64    1.86412      9.99794     2.10446    0.03348    12.13588
      C   65   -1.10842      1.99943     5.10073    0.00826     7.10842
      H   66    0.24057      0.00000     0.75847    0.00096     0.75943
      H   67    0.22983      0.00000     0.76912    0.00105     0.77017
      H   68    0.24444      0.00000     0.75472    0.00083     0.75556
      C   69   -1.10846      1.99943     5.10100    0.00803     7.10846
      H   70    0.24047      0.00000     0.75850    0.00103     0.75953
      H   71    0.24337      0.00000     0.75579    0.00085     0.75663
      H   72    0.23742      0.00000     0.76141    0.00118     0.76258
      C   73   -1.11197      1.99943     5.10401    0.00852     7.11197
      H   74    0.23453      0.00000     0.76432    0.00114     0.76547
      H   75    0.23637      0.00000     0.76247    0.00116     0.76363
      H   76    0.24568      0.00000     0.75344    0.00088     0.75432
     Si   77    1.86143      9.99792     2.10734    0.03331    12.13857
      O   78   -1.14514      1.99977     7.13559    0.00979     9.14514
      O   79   -1.13091      1.99978     7.11937    0.01177     9.13091
      O   80   -1.14231      1.99976     7.13229    0.01026     9.14231
      O   81   -1.13377      1.99978     7.12314    0.01085     9.13377
      N   82   -0.42597      1.99952     5.40327    0.02318     7.42597
      C   83   -0.40273      1.99937     4.39249    0.01087     6.40273
      H   84    0.16103      0.00000     0.83467    0.00430     0.83897
      H   85    0.20793      0.00000     0.79047    0.00160     0.79207
      H   86    0.20243      0.00000     0.79510    0.00247     0.79757
      C   87   -0.40507      1.99937     4.39501    0.01069     6.40507
      H   88    0.20781      0.00000     0.79057    0.00162     0.79219
      H   89    0.16429      0.00000     0.83157    0.00414     0.83571
      H   90    0.20375      0.00000     0.79360    0.00265     0.79625
 =======================================================================
   * Total *    1.00000    151.95278   209.26844    0.77878   362.00000

 Normal termination of Gaussian 16 at Wed Jan 22 22:07:38 2025.
