 Gaussian 16, Revision B.01,
 Gaussian 16:  ES64L-G16RevB.01 20-Dec-2017

 ------------------------------------------
 # nmr=giao b3lyp/genecp pop=nbo scfcyc=200
 ------------------------------------------

 ---------
 MS-87_SPE
 ---------
 Symbolic Z-matrix:
 Charge =  1 Multiplicity = 1

                         Standard orientation:
 ---------------------------------------------------------------------
 Center     Atomic      Atomic             Coordinates (Angstroms)
 Number     Number       Type             X           Y           Z
 ---------------------------------------------------------------------
      1         15           0       -1.428020    0.021992   -0.137660
      2         15           0        1.279240    0.111578    0.087090
      3          6           0       -0.104698    1.348450   -0.409850
      4          6           0       -5.340170    0.048878   -2.102390
      5          6           0       -3.161958    1.726625   -3.550180
      6          6           0       -3.177868    1.407605    3.720270
      7          6           0       -4.477772   -0.908553    2.091460
      8          6           0        3.256008   -1.248975    3.211360
      9          6           0        1.990202    1.385147    4.282330
     10          1           0        0.002072    1.419840   -1.498520
     11          1           0       -6.163329    0.593009   -2.572310
     12          1           0       -5.103961   -0.807732   -2.737080
     13          1           0       -5.696341   -0.328812   -1.142060
     14          1           0       -3.901207    2.326066   -4.087490
     15          1           0       -2.264637    2.337033   -3.432530
     16          1           0       -2.910379    0.869574   -4.178450
     17          1           0       -3.725578    1.142936    4.628160
     18          1           0       -2.238257    1.873883    4.023730
     19          1           0       -3.766607    2.151566    3.180150
     20          1           0       -5.032952   -1.299073    2.948120
     21          1           0       -5.120770   -0.185492    1.585970
     22          1           0       -4.302613   -1.741574    1.407080
     23          1           0        3.753747   -1.735496    2.369330
     24          1           0        3.940098   -1.296706    4.062470
     25          1           0        2.366657   -1.827294    3.470290
     26          1           0        2.670192    1.439346    5.135980
     27          1           0        1.693013    2.404757    4.029080
     28          1           0        1.099701    0.839758    4.600980
     29         45           0       -0.023783   -1.802180   -0.206600
     30          6           0        1.516495   -3.349132   -1.004500
     31          6           0        1.395385   -3.504412    0.354020
     32          6           0       -1.500085   -3.562128   -0.160380
     33          6           0       -1.380515   -3.117778   -1.458970
     34          6           0        0.866604   -4.221871   -2.060370
     35          1           0        2.321356   -2.714783   -1.353730
     36          1           0        2.128615   -3.003983    0.977770
     37          6           0        0.538983   -4.512881    1.078640
     38          6           0       -0.832617   -4.793079    0.424220
     39          1           0       -2.332765   -3.168507    0.412600
     40          6           0       -0.509446   -3.708809   -2.538960
     41          1           0       -2.134274   -2.425747   -1.818190
     42          1           0        1.532544   -4.272952   -2.923680
     43          1           0        0.782782   -5.242451   -1.688470
     44          1           0        1.093032   -5.453452    1.188800
     45          1           0        0.381164   -4.143561    2.094330
     46          1           0       -0.736308   -5.558979   -0.344870
     47          1           0       -1.492338   -5.216248    1.183610
     48          1           0       -0.360245   -2.940129   -3.300060
     49          1           0       -1.049547   -4.522698   -3.039210
     50          6           0        4.334392    1.492564    2.234790
     51          1           0        4.794501    1.010213    1.370910
     52          1           0        4.077564    2.515624    1.955380
     53          1           0        5.083522    1.539862    3.029410
     54          6           0       -1.761202   -1.359887    3.535800
     55          1           0       -1.508363   -2.194558    2.879060
     56          1           0       -0.829631   -0.892889    3.860580
     57          1           0       -2.259233   -1.765687    4.419910
     58          6           0       -4.189926    2.615506   -0.742950
     59          1           0       -4.640607    2.285767    0.194800
     60          1           0       -3.271575    3.155375   -0.504930
     61          1           0       -4.882765    3.316277   -1.215710
     62         14           0       -2.872410   -0.114886    2.668680
     63         14           0       -3.849228    1.169136   -1.892410
     64         14           0        2.826181    0.543456    2.827570
     65          6           0        4.898898   -0.993987   -1.748670
     66          1           0        5.492519   -0.706588   -0.878210
     67          1           0        4.465157   -1.976087   -1.551080
     68          1           0        5.585268   -1.102848   -2.592410
     69          6           0        4.389903    1.987683   -2.417740
     70          1           0        4.968413    2.304173   -1.547700
     71          1           0        5.070233    1.946512   -3.272300
     72          1           0        3.642674    2.755675   -2.625890
     73          6           0        2.504700   -0.191354   -3.585020
     74          1           0        1.965168   -1.119223   -3.386610
     75          1           0        1.770131    0.583137   -3.816970
     76          1           0        3.111769   -0.343775   -4.480970
     77         14           0        3.600110    0.309255   -2.138170
     78          8           0        2.616321    0.485576   -0.742300
     79          8           0        1.633121    0.562068    1.591540
     80          8           0       -2.033209    0.484353    1.291390
     81          8           0       -2.635070    0.163534   -1.187190
     82          7           0       -0.271406    2.623130    0.180400
     83          1           0       -0.537786    2.556031    1.154420
     84         14           0        0.345956    4.199219   -0.370190
     85          6           0       -0.748462    5.494281    0.453280
     86          1           0       -0.397041    6.501421    0.216750
     87          1           0       -1.786162    5.415123    0.123840
     88          1           0       -0.733022    5.394981    1.541860
     89          6           0        0.203896    4.250140   -2.252820
     90          1           0        0.566128    5.212599   -2.622170
     91          1           0        0.801925    3.477219   -2.741480
     92          1           0       -0.830974    4.141141   -2.582750
     93          6           0        2.145396    4.474487    0.141320
     94          1           0        2.242707    4.492237    1.229540
     95          1           0        2.796955    3.686596   -0.241080
     96          1           0        2.516768    5.430346   -0.237550
 ---------------------------------------------------------------------

 SCF Done:  E(RB3LYP) =  -3547.46566900     A.U. after   17 cycles

      1  P    Isotropic =   171.9438   Anisotropy =   192.1123

      2  P    Isotropic =   167.2021   Anisotropy =   171.5007

      3  C    Isotropic =    71.2730   Anisotropy =    81.5443

      4  C    Isotropic =   182.3355   Anisotropy =    14.6117

      5  C    Isotropic =   181.7592   Anisotropy =    13.6770

      6  C    Isotropic =   182.8027   Anisotropy =    14.0418

      7  C    Isotropic =   181.6765   Anisotropy =    11.8560

      8  C    Isotropic =   182.1691   Anisotropy =    11.4599

      9  C    Isotropic =   182.4065   Anisotropy =    13.3436

     10  H    Isotropic =    27.0260   Anisotropy =     7.3612

     11  H    Isotropic =    31.7098   Anisotropy =    11.8138

     12  H    Isotropic =    31.5131   Anisotropy =     7.8518

     13  H    Isotropic =    31.6327   Anisotropy =     7.6662

     14  H    Isotropic =    31.7096   Anisotropy =    11.5331

     15  H    Isotropic =    31.5577   Anisotropy =     9.3531

     16  H    Isotropic =    31.4726   Anisotropy =     7.5760

     17  H    Isotropic =    31.6857   Anisotropy =    11.7217

     18  H    Isotropic =    31.5133   Anisotropy =     7.6240

     19  H    Isotropic =    31.4420   Anisotropy =     7.9202

     20  H    Isotropic =    31.6198   Anisotropy =    11.6833

     21  H    Isotropic =    31.4886   Anisotropy =     7.9812

     22  H    Isotropic =    31.7912   Anisotropy =     6.0680

     23  H    Isotropic =    31.6759   Anisotropy =     6.1856

     24  H    Isotropic =    31.5784   Anisotropy =    11.7424

     25  H    Isotropic =    31.5145   Anisotropy =     7.2135

     26  H    Isotropic =    31.6734   Anisotropy =    11.8522

     27  H    Isotropic =    31.4181   Anisotropy =     7.1695

     28  H    Isotropic =    31.5212   Anisotropy =     8.1277

     29  Rh   Isotropic =  -283.7617   Anisotropy =   315.9637

     30  C    Isotropic =    72.9164   Anisotropy =   129.4644

     31  C    Isotropic =    74.3830   Anisotropy =   121.3594

     32  C    Isotropic =    82.9692   Anisotropy =   114.8423

     33  C    Isotropic =    70.5578   Anisotropy =   127.9188

     34  C    Isotropic =   153.8048   Anisotropy =    24.4743

     35  H    Isotropic =    26.7236   Anisotropy =     7.3072

     36  H    Isotropic =    26.2755   Anisotropy =     4.9305

     37  C    Isotropic =   148.3553   Anisotropy =    27.2004

     38  C    Isotropic =   154.3173   Anisotropy =    23.4599

     39  H    Isotropic =    27.1949   Anisotropy =     6.3978

     40  C    Isotropic =   147.4694   Anisotropy =    28.5987

     41  H    Isotropic =    26.1369   Anisotropy =     4.2389

     42  H    Isotropic =    29.9058   Anisotropy =    10.5380

     43  H    Isotropic =    29.7244   Anisotropy =     9.4404

     44  H    Isotropic =    29.1744   Anisotropy =    12.4097

     45  H    Isotropic =    29.3618   Anisotropy =     6.8101

     46  H    Isotropic =    29.7753   Anisotropy =     9.7111

     47  H    Isotropic =    29.9172   Anisotropy =    11.0218

     48  H    Isotropic =    29.2493   Anisotropy =     6.6648

     49  H    Isotropic =    29.1453   Anisotropy =    12.4236

     50  C    Isotropic =   181.4343   Anisotropy =    12.2380

     51  H    Isotropic =    31.5938   Anisotropy =     7.7108

     52  H    Isotropic =    31.3218   Anisotropy =     7.8707

     53  H    Isotropic =    31.7325   Anisotropy =    11.8621

     54  C    Isotropic =   181.5260   Anisotropy =    10.7848

     55  H    Isotropic =    31.1984   Anisotropy =     9.7463

     56  H    Isotropic =    31.4246   Anisotropy =     8.7054

     57  H    Isotropic =    31.5960   Anisotropy =    11.3790

     58  C    Isotropic =   182.6314   Anisotropy =     9.9119

     59  H    Isotropic =    31.5902   Anisotropy =     7.3340

     60  H    Isotropic =    31.2725   Anisotropy =     9.8386

     61  H    Isotropic =    31.6975   Anisotropy =    11.5496

     62  Si   Isotropic =   313.7150   Anisotropy =    28.7591

     63  Si   Isotropic =   310.9264   Anisotropy =    29.1005

     64  Si   Isotropic =   314.7233   Anisotropy =    31.3762

     65  C    Isotropic =   181.5807   Anisotropy =    14.2650

     66  H    Isotropic =    31.4435   Anisotropy =     7.7209

     67  H    Isotropic =    31.7492   Anisotropy =     7.5805

     68  H    Isotropic =    31.6891   Anisotropy =    11.6574

     69  C    Isotropic =   181.2340   Anisotropy =    13.1370

     70  H    Isotropic =    31.4000   Anisotropy =     7.2155

     71  H    Isotropic =    31.6944   Anisotropy =    11.6563

     72  H    Isotropic =    31.5292   Anisotropy =     8.1280

     73  C    Isotropic =   182.1615   Anisotropy =    10.3969

     74  H    Isotropic =    31.3917   Anisotropy =     9.8294

     75  H    Isotropic =    31.4337   Anisotropy =     7.2129

     76  H    Isotropic =    31.5908   Anisotropy =    11.4382

     77  Si   Isotropic =   316.2059   Anisotropy =    27.7336

     78  O    Isotropic =   188.0561   Anisotropy =   100.7842

     79  O    Isotropic =   192.4309   Anisotropy =   145.4863

     80  O    Isotropic =   183.5560   Anisotropy =   138.6398

     81  O    Isotropic =   184.9624   Anisotropy =   101.7310

     82  N    Isotropic =   201.5381   Anisotropy =    44.3764

     83  H    Isotropic =    29.9108   Anisotropy =     8.1396

     84  Si   Isotropic =   337.5252   Anisotropy =    29.6609

     85  C    Isotropic =   184.4017   Anisotropy =    12.9746

     86  H    Isotropic =    31.7114   Anisotropy =    11.9044

     87  H    Isotropic =    31.7344   Anisotropy =     8.5195

     88  H    Isotropic =    31.7220   Anisotropy =     7.5927

     89  C    Isotropic =   186.7756   Anisotropy =    14.0394

     90  H    Isotropic =    31.6497   Anisotropy =    11.3348

     91  H    Isotropic =    31.6074   Anisotropy =     7.5222

     92  H    Isotropic =    31.8715   Anisotropy =     9.7257

     93  C    Isotropic =   180.2668   Anisotropy =    11.4444

     94  H    Isotropic =    31.7713   Anisotropy =     6.9216

     95  H    Isotropic =    31.7001   Anisotropy =     8.9074

     96  H    Isotropic =    31.7335   Anisotropy =    11.1389

 The electronic state is 1-A.
 Alpha  occ. eigenvalues --  -77.29260 -77.29118 -66.25734 -66.25487 -66.25249
 Alpha  occ. eigenvalues --  -66.25239 -66.22645 -19.23533 -19.23527 -19.23508
 Alpha  occ. eigenvalues --  -19.23222 -14.39272 -10.31860 -10.29134 -10.28990
 Alpha  occ. eigenvalues --  -10.28973 -10.28600 -10.27575 -10.27539 -10.27452
 Alpha  occ. eigenvalues --  -10.27309 -10.24505 -10.24284 -10.24266 -10.24245
 Alpha  occ. eigenvalues --  -10.24114 -10.23866 -10.23862 -10.23782 -10.23769
 Alpha  occ. eigenvalues --  -10.23734 -10.23609 -10.23588 -10.23444 -10.22762
 Alpha  occ. eigenvalues --  -10.22609  -6.74167  -6.73997  -5.39224  -5.39009
 Alpha  occ. eigenvalues --   -5.38761  -5.38745  -5.36336  -4.90635  -4.90469
 Alpha  occ. eigenvalues --   -4.90424  -4.90254  -4.90030  -4.89850  -3.75398
 Alpha  occ. eigenvalues --   -3.75174  -3.74980  -3.74963  -3.74942  -3.74913
 Alpha  occ. eigenvalues --   -3.74765  -3.74754  -3.74504  -3.74500  -3.74499
 Alpha  occ. eigenvalues --   -3.74488  -3.72364  -3.72171  -3.72126  -3.31396
 Alpha  occ. eigenvalues --   -2.08379  -2.07545  -2.04867  -1.13356  -1.13068
 Alpha  occ. eigenvalues --   -1.09019  -1.08817  -0.97954  -0.94449  -0.89202
 Alpha  occ. eigenvalues --   -0.88047  -0.82785  -0.81420  -0.80898  -0.80770
 Alpha  occ. eigenvalues --   -0.80443  -0.80278  -0.79169  -0.77894  -0.77816
 Alpha  occ. eigenvalues --   -0.77673  -0.77425  -0.77407  -0.77365  -0.77185
 Alpha  occ. eigenvalues --   -0.77079  -0.77055  -0.76527  -0.75967  -0.73288
 Alpha  occ. eigenvalues --   -0.70617  -0.70384  -0.65859  -0.65045  -0.64190
 Alpha  occ. eigenvalues --   -0.62572  -0.61273  -0.59961  -0.59654  -0.57237
 Alpha  occ. eigenvalues --   -0.56255  -0.55400  -0.54806  -0.54389  -0.53726
 Alpha  occ. eigenvalues --   -0.53221  -0.52742  -0.52739  -0.52431  -0.52359
 Alpha  occ. eigenvalues --   -0.52197  -0.52135  -0.51476  -0.51098  -0.50935
 Alpha  occ. eigenvalues --   -0.50724  -0.50678  -0.50522  -0.50380  -0.49996
 Alpha  occ. eigenvalues --   -0.49911  -0.49777  -0.49547  -0.49516  -0.49327
 Alpha  occ. eigenvalues --   -0.49220  -0.49084  -0.49006  -0.48766  -0.48574
 Alpha  occ. eigenvalues --   -0.48279  -0.48225  -0.48158  -0.48108  -0.47992
 Alpha  occ. eigenvalues --   -0.47931  -0.47820  -0.47796  -0.47696  -0.47614
 Alpha  occ. eigenvalues --   -0.47483  -0.47295  -0.47081  -0.46591  -0.46508
 Alpha  occ. eigenvalues --   -0.46072  -0.46047  -0.45923  -0.45579  -0.45087
 Alpha  occ. eigenvalues --   -0.44674  -0.44446  -0.44283  -0.43275  -0.43066
 Alpha  occ. eigenvalues --   -0.41749  -0.41155  -0.39854  -0.39725  -0.39640
 Alpha  occ. eigenvalues --   -0.39520  -0.39280  -0.39112  -0.39030  -0.38947
 Alpha  occ. eigenvalues --   -0.38747  -0.38456  -0.36721  -0.35886  -0.35110
 Alpha  occ. eigenvalues --   -0.34546  -0.33539  -0.31319  -0.30449
 Alpha virt. eigenvalues --   -0.16341  -0.13243  -0.09652  -0.08980  -0.07846
 Alpha virt. eigenvalues --   -0.07560  -0.07205  -0.07045  -0.06226  -0.05138
 Alpha virt. eigenvalues --   -0.04801  -0.04702  -0.04689  -0.04271  -0.03855

 Mulliken charges:
               1
     1  P    0.800255
     2  P    0.758775
     3  C   -0.476330
     4  C   -0.521252
     5  C   -0.541218
     6  C   -0.510701
     7  C   -0.575087
     8  C   -0.586653
     9  C   -0.533178
    10  H    0.203334
    11  H    0.143997
    12  H    0.139374
    13  H    0.140016
    14  H    0.144864
    15  H    0.127192
    16  H    0.141649
    17  H    0.142804
    18  H    0.138977
    19  H    0.146955
    20  H    0.155010
    21  H    0.140004
    22  H    0.138813
    23  H    0.131925
    24  H    0.155767
    25  H    0.137591
    26  H    0.144729
    27  H    0.139447
    28  H    0.136783
    29  Rh  -0.594678
    30  C   -0.007273
    31  C   -0.088190
    32  C   -0.058047
    33  C   -0.087894
    34  C   -0.356486
    35  H    0.124267
    36  H    0.180340
    37  C   -0.223573
    38  C   -0.359333
    39  H    0.176441
    40  C   -0.222754
    41  H    0.204012
    42  H    0.168757
    43  H    0.168954
    44  H    0.173498
    45  H    0.135457
    46  H    0.166224
    47  H    0.168044
    48  H    0.133090
    49  H    0.171705
    50  C   -0.528240
    51  H    0.126747
    52  H    0.144708
    53  H    0.146079
    54  C   -0.547230
    55  H    0.123439
    56  H    0.131319
    57  H    0.156514
    58  C   -0.546754
    59  H    0.135060
    60  H    0.143298
    61  H    0.149350
    62  Si   0.739327
    63  Si   0.736954
    64  Si   0.763724
    65  C   -0.585438
    66  H    0.145670
    67  H    0.156441
    68  H    0.148681
    69  C   -0.495956
    70  H    0.150592
    71  H    0.151472
    72  H    0.141834
    73  C   -0.585509
    74  H    0.133696
    75  H    0.140573
    76  H    0.157058
    77  Si   0.738047
    78  O   -0.491861
    79  O   -0.464769
    80  O   -0.493339
    81  O   -0.474842
    82  N   -0.410338
    83  H    0.248831
    84  Si   0.702752
    85  C   -0.539119
    86  H    0.143704
    87  H    0.141406
    88  H    0.131926
    89  C   -0.589466
    90  H    0.154132
    91  H    0.124639
    92  H    0.139142
    93  C   -0.536585
    94  H    0.129067
    95  H    0.134759
    96  H    0.142104
 Sum of Mulliken charges =   1.00000

 Dipole moment (field-independent basis, Debye):
    X=              0.0600    Y=             -1.8798    Z=             -0.3039  Tot=              1.9052
 Quadrupole moment (field-independent basis, Debye-Ang):
   XX=           -243.9013   YY=           -250.7216   ZZ=           -257.4143
   XY=             -1.7074   XZ=             -2.3624   YZ=             -0.6372

 Summary of Natural Population Analysis:

                                       Natural Population
                Natural  -----------------------------------------------
    Atom  No    Charge         Core      Valence    Rydberg      Total
 -----------------------------------------------------------------------
      P    1    1.76506      9.99599     3.14375    0.09520    13.23494
      P    2    1.72958      9.99617     3.18200    0.09224    13.27042
      C    3   -0.61284      1.99942     4.58548    0.02793     6.61284
      C    4   -1.10651      1.99944     5.09914    0.00793     7.10651
      C    5   -1.10786      1.99944     5.10035    0.00807     7.10786
      C    6   -1.10626      1.99943     5.09884    0.00798     7.10626
      C    7   -1.11141      1.99944     5.10343    0.00854     7.11141
      C    8   -1.11338      1.99944     5.10537    0.00857     7.11338
      C    9   -1.10325      1.99944     5.09577    0.00804     7.10325
      H   10    0.23406      0.00000     0.76367    0.00228     0.76594
      H   11    0.24244      0.00000     0.75674    0.00082     0.75756
      H   12    0.23892      0.00000     0.76020    0.00088     0.76108
      H   13    0.23725      0.00000     0.76172    0.00103     0.76275
      H   14    0.24281      0.00000     0.75636    0.00083     0.75719
      H   15    0.23212      0.00000     0.76671    0.00117     0.76788
      H   16    0.23873      0.00000     0.76038    0.00089     0.76127
      H   17    0.24228      0.00000     0.75689    0.00083     0.75772
      H   18    0.23757      0.00000     0.76148    0.00095     0.76243
      H   19    0.24101      0.00000     0.75801    0.00098     0.75899
      H   20    0.24453      0.00000     0.75461    0.00086     0.75547
      H   21    0.23655      0.00000     0.76228    0.00117     0.76345
      H   22    0.23170      0.00000     0.76723    0.00106     0.76830
      H   23    0.23056      0.00000     0.76840    0.00105     0.76944
      H   24    0.24531      0.00000     0.75383    0.00086     0.75469
      H   25    0.23494      0.00000     0.76398    0.00108     0.76506
      H   26    0.24184      0.00000     0.75734    0.00082     0.75816
      H   27    0.23759      0.00000     0.76143    0.00097     0.76241
      H   28    0.23328      0.00000     0.76560    0.00112     0.76672
     Rh   29   -0.55380     35.98552     9.53857    0.02971    45.55380
      C   30   -0.16547      1.99906     4.14535    0.02105     6.16547
      C   31   -0.17569      1.99908     4.15536    0.02125     6.17569
      C   32   -0.19707      1.99907     4.17714    0.02086     6.19707
      C   33   -0.14974      1.99908     4.12970    0.02096     6.14974
      C   34   -0.42736      1.99936     4.41585    0.01216     6.42736
      H   35    0.21989      0.00000     0.77764    0.00247     0.78011
      H   36    0.22949      0.00000     0.76849    0.00203     0.77051
      C   37   -0.42236      1.99936     4.41052    0.01249     6.42236
      C   38   -0.42329      1.99936     4.41198    0.01194     6.42329
      H   39    0.22218      0.00000     0.77543    0.00239     0.77782
      C   40   -0.42170      1.99935     4.40979    0.01256     6.42170
      H   41    0.23591      0.00000     0.76190    0.00219     0.76409
      H   42    0.22754      0.00000     0.77097    0.00149     0.77246
      H   43    0.21553      0.00000     0.78245    0.00202     0.78447
      H   44    0.23467      0.00000     0.76343    0.00190     0.76533
      H   45    0.21878      0.00000     0.77970    0.00152     0.78122
      H   46    0.21421      0.00000     0.78377    0.00202     0.78579
      H   47    0.22804      0.00000     0.77047    0.00149     0.77196
      H   48    0.21971      0.00000     0.77878    0.00151     0.78029
      H   49    0.23373      0.00000     0.76434    0.00193     0.76627
      C   50   -1.10894      1.99943     5.10102    0.00848     7.10894
      H   51    0.23419      0.00000     0.76467    0.00113     0.76581
      H   52    0.24160      0.00000     0.75728    0.00112     0.75840
      H   53    0.24118      0.00000     0.75796    0.00086     0.75882
      C   54   -1.10515      1.99943     5.09692    0.00879     7.10515
      H   55    0.23343      0.00000     0.76528    0.00129     0.76657
      H   56    0.23549      0.00000     0.76323    0.00128     0.76451
      H   57    0.24253      0.00000     0.75659    0.00088     0.75747
      C   58   -1.11478      1.99943     5.10663    0.00872     7.11478
      H   59    0.23464      0.00000     0.76423    0.00114     0.76536
      H   60    0.24269      0.00000     0.75586    0.00144     0.75731
      H   61    0.24252      0.00000     0.75659    0.00088     0.75748
     Si   62    1.86061      9.99794     2.10786    0.03359    12.13939
     Si   63    1.85704      9.99797     2.11218    0.03281    12.14296
     Si   64    1.86144      9.99795     2.10729    0.03332    12.13856
      C   65   -1.10848      1.99943     5.10081    0.00824     7.10848
      H   66    0.23960      0.00000     0.75935    0.00105     0.76040
      H   67    0.22922      0.00000     0.76971    0.00107     0.77078
      H   68    0.24417      0.00000     0.75499    0.00084     0.75583
      C   69   -1.10899      1.99943     5.10135    0.00821     7.10899
      H   70    0.24251      0.00000     0.75650    0.00099     0.75749
      H   71    0.24286      0.00000     0.75628    0.00085     0.75714
      H   72    0.23690      0.00000     0.76206    0.00104     0.76310
      C   73   -1.11099      1.99944     5.10306    0.00849     7.11099
      H   74    0.23257      0.00000     0.76622    0.00120     0.76743
      H   75    0.23466      0.00000     0.76424    0.00110     0.76534
      H   76    0.24498      0.00000     0.75415    0.00087     0.75502
     Si   77    1.86143      9.99793     2.10752    0.03312    12.13857
      O   78   -1.14253      1.99976     7.13297    0.00979     9.14253
      O   79   -1.13163      1.99977     7.12023    0.01162     9.13163
      O   80   -1.13631      1.99978     7.12553    0.01100     9.13631
      O   81   -1.13554      1.99977     7.12561    0.01016     9.13554
      N   82   -1.01453      1.99953     5.99399    0.02100     8.01453
      H   83    0.39824      0.00000     0.59881    0.00294     0.60176
     Si   84    1.75298      9.99816     2.21851    0.03036    12.24702
      C   85   -1.09197      1.99945     5.08457    0.00795     7.09197
      H   86    0.23975      0.00000     0.75938    0.00087     0.76025
      H   87    0.23430      0.00000     0.76463    0.00107     0.76570
      H   88    0.23253      0.00000     0.76655    0.00092     0.76747
      C   89   -1.09805      1.99945     5.09003    0.00857     7.09805
      H   90    0.24413      0.00000     0.75502    0.00085     0.75587
      H   91    0.22377      0.00000     0.77502    0.00121     0.77623
      H   92    0.23110      0.00000     0.76777    0.00113     0.76890
      C   93   -1.10140      1.99945     5.09252    0.00943     7.10140
      H   94    0.22943      0.00000     0.76949    0.00109     0.77057
      H   95    0.23088      0.00000     0.76798    0.00114     0.76912
      H   96    0.23608      0.00000     0.76295    0.00097     0.76392
 =======================================================================
   * Total *    1.00000    163.95099   221.24407    0.80495   386.00000

 Normal termination of Gaussian 16 at Wed Jan 22 22:23:42 2025.
