 Gaussian 16, Revision B.01,
 Gaussian 16:  ES64L-G16RevB.01 20-Dec-2017

 ------------------------------------------
 # nmr=giao b3lyp/genecp pop=nbo scfcyc=200
 ------------------------------------------

 ---------
 MS-81_SPE
 ---------
 Symbolic Z-matrix:
 Charge =  1 Multiplicity = 1

                         Standard orientation:
 ---------------------------------------------------------------------
 Center     Atomic      Atomic             Coordinates (Angstroms)
 Number     Number       Type             X           Y           Z
 ---------------------------------------------------------------------
      1         15           0        1.145132    1.516409   -0.064040
      2         15           0       -1.027110   -0.117519    0.896800
      3          8           0       -1.550997    2.513722    0.448710
      4          8           0       -3.235491   -1.720876   -0.750450
      5          6           0       -1.731650   -0.602438    2.610650
      6          6           0       -0.560140   -0.692209    3.599260
      7          6           0       -2.747579    0.443863    3.086930
      8          6           0       -2.414862   -1.973947    2.484550
      9          6           0       -0.497448    1.686771    0.935660
     10          6           0        0.966793    2.413389   -1.765150
     11          6           0       -2.538458    1.790313   -0.172200
     12          6           0       -2.448009    0.398103   -0.127200
     13          6           0        0.536775    3.884070   -1.645220
     14          6           0       -0.078028    1.628660   -2.580140
     15          6           0        2.416783    2.374128    1.116520
     16          6           0        3.808523    2.458106    0.466640
     17          6           0        1.977385    3.782138    1.548780
     18          6           0        2.521342    1.476307    2.364290
     19          6           0       -3.403020   -0.372976   -0.804070
     20          6           0       -4.447749    0.266355   -1.472950
     21          6           0       -3.576737    2.444094   -0.821290
     22          6           0       -4.193942   -2.561695   -1.401750
     23          6           0       -4.523318    1.658895   -1.465010
     24          6           0        2.303013    2.339088   -2.527110
     25          1           0       -5.199640   -0.301944   -1.999390
     26          1           0       -3.627716    3.523784   -0.828040
     27          1           0       -5.342257    2.139216   -1.985310
     28          1           0        0.224129   -1.366820    3.252140
     29          1           0        3.864084    3.236976   -0.290500
     30          1           0        4.126252    1.517706    0.014810
     31          1           0       -0.242087    2.035031    1.933980
     32          1           0       -0.110199    0.282480    3.793480
     33          1           0       -3.605679    0.515114    2.418670
     34          1           0       -3.249352   -1.952476    1.785470
     35          1           0       -0.364695    4.008441   -1.049030
     36          1           0       -1.083888    1.723441   -2.180150
     37          1           0        0.988125    3.799659    2.007920
     38          1           0       -4.214212   -2.374595   -2.477560
     39          1           0        2.130553    2.689478   -3.547920
     40          1           0        2.694262    1.324217   -2.597000
     41          1           0       -3.865443   -3.580895   -1.216440
     42          1           0       -5.191762   -2.419434   -0.981290
     43          1           0       -0.929031   -1.071159    4.555560
     44          1           0       -2.307508    1.437873    3.186220
     45          1           0        1.323525    4.507509   -1.223190
     46          1           0        2.683905    4.154227    2.295950
     47          1           0        3.072094    2.973957   -2.096140
     48          1           0       -3.118909    0.153684    4.073500
     49          1           0        0.332085    4.266600   -2.649320
     50          1           0        1.977265    4.489778    0.722890
     51          1           0        3.280173    1.891917    3.032000
     52          1           0        1.591502    1.432319    2.930690
     53          1           0        2.811501    0.455417    2.114720
     54          1           0       -1.723613   -2.753838    2.161690
     55          1           0       -2.802172   -2.265197    3.464390
     56          1           0       -0.093097    2.030520   -3.596540
     57          1           0        0.168191    0.567050   -2.641880
     58          1           0        4.538973    2.710255    1.239530
     59         45           0        0.966439   -0.917821   -0.093160
     60          6           0        0.872537   -3.105651    0.486050
     61          6           0        0.186217   -2.922080   -0.700270
     62          6           0        2.584869   -1.542203   -1.572510
     63          6           0        3.137789   -1.483803   -0.310080
     64          1           0        0.284987   -3.102650    1.396220
     65          6           0        2.260636   -3.702932    0.622710
     66          1           0       -0.891063   -2.807049   -0.642030
     67          6           0        0.706047   -3.198461   -2.088960
     68          6           0        2.183117   -2.808182   -2.304990
     69          1           0        2.703700   -0.667053   -2.198860
     70          1           0        3.679430   -0.581584   -0.050550
     71          6           0        3.383418   -2.645133    0.620170
     72          1           0        2.425476   -4.435782   -0.166800
     73          1           0        2.309556   -4.258252    1.560750
     74          1           0        0.561606   -4.258220   -2.334310
     75          1           0        0.082528   -2.642320   -2.792320
     76          1           0        2.350158   -2.657532   -3.372770
     77          1           0        2.841096   -3.625933   -2.011990
     78          1           0        4.342427   -3.117905    0.373770
     79          1           0        3.500708   -2.245624    1.629890
 ---------------------------------------------------------------------

 SCF Done:  E(RB3LYP) =  -2038.74232661     A.U. after   16 cycles

      1  P    Isotropic =   256.0720   Anisotropy =    97.9247

      2  P    Isotropic =   279.5262   Anisotropy =    78.9704

      3  O    Isotropic =   163.1085   Anisotropy =   110.3878

      4  O    Isotropic =   208.6169   Anisotropy =    87.1229

      5  C    Isotropic =   132.9666   Anisotropy =    35.5356

      6  C    Isotropic =   155.6479   Anisotropy =    37.8351

      7  C    Isotropic =   158.1076   Anisotropy =    42.0370

      8  C    Isotropic =   157.0661   Anisotropy =    38.7039

      9  C    Isotropic =    83.0547   Anisotropy =    61.7072

     10  C    Isotropic =   130.8542   Anisotropy =    40.1801

     11  C    Isotropic =    10.6300   Anisotropy =   108.9627

     12  C    Isotropic =    73.1438   Anisotropy =    94.4457

     13  C    Isotropic =   155.3946   Anisotropy =    39.8397

     14  C    Isotropic =   151.0101   Anisotropy =    40.1325

     15  C    Isotropic =   132.5802   Anisotropy =    36.5651

     16  C    Isotropic =   154.1431   Anisotropy =    36.5355

     17  C    Isotropic =   156.5696   Anisotropy =    39.7558

     18  C    Isotropic =   150.2582   Anisotropy =    39.5780

     19  C    Isotropic =    13.9813   Anisotropy =   135.3151

     20  C    Isotropic =    75.9319   Anisotropy =   149.7503

     21  C    Isotropic =    73.3586   Anisotropy =   144.3149

     22  C    Isotropic =   127.8903   Anisotropy =    79.6418

     23  C    Isotropic =    41.6502   Anisotropy =   195.4529

     24  C    Isotropic =   152.6055   Anisotropy =    41.6686

     25  H    Isotropic =    25.3142   Anisotropy =     6.7515

     26  H    Isotropic =    25.0387   Anisotropy =     6.9281

     27  H    Isotropic =    24.1999   Anisotropy =     3.4748

     28  H    Isotropic =    30.2980   Anisotropy =     5.9903

     29  H    Isotropic =    30.3740   Anisotropy =     7.8609

     30  H    Isotropic =    30.7085   Anisotropy =     5.1680

     31  H    Isotropic =    25.5826   Anisotropy =     4.1766

     32  H    Isotropic =    30.6350   Anisotropy =     7.3154

     33  H    Isotropic =    31.2772   Anisotropy =     5.3299

     34  H    Isotropic =    30.5713   Anisotropy =     8.2974

     35  H    Isotropic =    29.7792   Anisotropy =     5.5500

     36  H    Isotropic =    31.2853   Anisotropy =    12.6209

     37  H    Isotropic =    30.2123   Anisotropy =     5.7935

     38  H    Isotropic =    28.1152   Anisotropy =     9.5858

     39  H    Isotropic =    30.9474   Anisotropy =    10.1093

     40  H    Isotropic =    30.9001   Anisotropy =     5.4613

     41  H    Isotropic =    27.8650   Anisotropy =     8.9889

     42  H    Isotropic =    28.1612   Anisotropy =    10.3778

     43  H    Isotropic =    30.6697   Anisotropy =    10.5999

     44  H    Isotropic =    30.9820   Anisotropy =     7.2089

     45  H    Isotropic =    30.4260   Anisotropy =     7.9010

     46  H    Isotropic =    30.6268   Anisotropy =    10.8522

     47  H    Isotropic =    30.4558   Anisotropy =     7.6757

     48  H    Isotropic =    30.9543   Anisotropy =    11.4516

     49  H    Isotropic =    30.8694   Anisotropy =    10.7238

     50  H    Isotropic =    30.1998   Anisotropy =     8.0852

     51  H    Isotropic =    30.7972   Anisotropy =     9.7982

     52  H    Isotropic =    30.4252   Anisotropy =     6.9728

     53  H    Isotropic =    30.0388   Anisotropy =     7.1950

     54  H    Isotropic =    31.0044   Anisotropy =     5.3548

     55  H    Isotropic =    30.9878   Anisotropy =    11.1160

     56  H    Isotropic =    31.3497   Anisotropy =     9.0276

     57  H    Isotropic =    30.1499   Anisotropy =     6.1351

     58  H    Isotropic =    30.6889   Anisotropy =    10.3196

     59  Rh   Isotropic =  -343.2451   Anisotropy =   380.2188

     60  C    Isotropic =    83.6802   Anisotropy =   115.9650

     61  C    Isotropic =    81.0982   Anisotropy =   114.8764

     62  C    Isotropic =    79.1530   Anisotropy =   122.0466

     63  C    Isotropic =    77.8332   Anisotropy =   115.9687

     64  H    Isotropic =    26.8402   Anisotropy =     5.8671

     65  C    Isotropic =   154.4255   Anisotropy =    24.7543

     66  H    Isotropic =    25.7869   Anisotropy =     6.5146

     67  C    Isotropic =   147.3727   Anisotropy =    30.4234

     68  C    Isotropic =   154.0636   Anisotropy =    25.4476

     69  H    Isotropic =    26.7104   Anisotropy =     5.7027

     70  H    Isotropic =    26.2439   Anisotropy =     4.2782

     71  C    Isotropic =   147.2077   Anisotropy =    30.0716

     72  H    Isotropic =    29.7816   Anisotropy =     9.6421

     73  H    Isotropic =    29.8254   Anisotropy =    11.4077

     74  H    Isotropic =    29.0922   Anisotropy =    12.4279

     75  H    Isotropic =    29.1103   Anisotropy =     6.7765

     76  H    Isotropic =    29.8677   Anisotropy =    11.3663

     77  H    Isotropic =    29.8067   Anisotropy =     9.7261

     78  H    Isotropic =    29.1041   Anisotropy =    12.8596

     79  H    Isotropic =    29.0745   Anisotropy =     7.0522

 The electronic state is 1-A.
 Alpha  occ. eigenvalues --  -77.23419 -77.22885 -19.27948 -19.26967 -10.35876
 Alpha  occ. eigenvalues --  -10.35268 -10.34934 -10.32498 -10.31459 -10.31257
 Alpha  occ. eigenvalues --  -10.31079 -10.29438 -10.29228 -10.29172 -10.29085
 Alpha  occ. eigenvalues --  -10.29022 -10.28586 -10.27778 -10.27670 -10.27521
 Alpha  occ. eigenvalues --  -10.27501 -10.27481 -10.27341 -10.27021 -10.26902
 Alpha  occ. eigenvalues --  -10.26869 -10.26601 -10.26566 -10.26455 -10.26332
 Alpha  occ. eigenvalues --  -10.26098 -10.25862  -6.69467  -6.68846  -4.85773
 Alpha  occ. eigenvalues --   -4.85646  -4.85356  -4.85154  -4.85016  -4.84748
 Alpha  occ. eigenvalues --   -3.31743  -2.08615  -2.07996  -2.05173  -1.19207
 Alpha  occ. eigenvalues --   -1.17904  -0.96654  -0.94746  -0.93477  -0.92772
 Alpha  occ. eigenvalues --   -0.91565  -0.89384  -0.88274  -0.88172  -0.86441
 Alpha  occ. eigenvalues --   -0.84457  -0.80718  -0.80603  -0.79883  -0.79801
 Alpha  occ. eigenvalues --   -0.79516  -0.79261  -0.78972  -0.78828  -0.78044
 Alpha  occ. eigenvalues --   -0.75325  -0.73209  -0.70898  -0.70793  -0.69423
 Alpha  occ. eigenvalues --   -0.66247  -0.65992  -0.65663  -0.63450  -0.62863
 Alpha  occ. eigenvalues --   -0.62325  -0.61914  -0.60473  -0.59262  -0.59165
 Alpha  occ. eigenvalues --   -0.58307  -0.57749  -0.57280  -0.56780  -0.56302
 Alpha  occ. eigenvalues --   -0.55960  -0.55694  -0.54953  -0.54806  -0.54550
 Alpha  occ. eigenvalues --   -0.54204  -0.53985  -0.53825  -0.53435  -0.52904
 Alpha  occ. eigenvalues --   -0.52826  -0.52341  -0.51150  -0.50688  -0.50148
 Alpha  occ. eigenvalues --   -0.49916  -0.49475  -0.49342  -0.48933  -0.48683
 Alpha  occ. eigenvalues --   -0.48585  -0.48416  -0.48282  -0.47965  -0.47687
 Alpha  occ. eigenvalues --   -0.47315  -0.46932  -0.46570  -0.46279  -0.46208
 Alpha  occ. eigenvalues --   -0.45674  -0.45250  -0.44936  -0.44836  -0.44365
 Alpha  occ. eigenvalues --   -0.44343  -0.43913  -0.43691  -0.43218  -0.42948
 Alpha  occ. eigenvalues --   -0.42693  -0.42081  -0.40729  -0.40535  -0.39908
 Alpha  occ. eigenvalues --   -0.37840  -0.36408  -0.35228  -0.34890  -0.34206
 Alpha  occ. eigenvalues --   -0.33895  -0.32916  -0.30854
 Alpha virt. eigenvalues --   -0.16412  -0.14782  -0.12657  -0.10218  -0.09744
 Alpha virt. eigenvalues --   -0.08955  -0.08596  -0.07553  -0.07477  -0.06575
 Alpha virt. eigenvalues --   -0.06259  -0.05851  -0.05418  -0.04666  -0.04275

 Mulliken charges:
               1
     1  P    0.392031
     2  P    0.320520
     3  O   -0.136649
     4  O   -0.232631
     5  C   -0.040639
     6  C   -0.372898
     7  C   -0.378794
     8  C   -0.394939
     9  C   -0.397048
    10  C    0.018191
    11  C    0.032906
    12  C   -0.174089
    13  C   -0.395479
    14  C   -0.441048
    15  C   -0.085740
    16  C   -0.415801
    17  C   -0.349475
    18  C   -0.378029
    19  C    0.181598
    20  C   -0.129069
    21  C   -0.142816
    22  C   -0.225532
    23  C   -0.107391
    24  C   -0.401722
    25  H    0.151557
    26  H    0.143923
    27  H    0.134109
    28  H    0.131923
    29  H    0.147526
    30  H    0.146368
    31  H    0.217691
    32  H    0.128307
    33  H    0.157904
    34  H    0.157579
    35  H    0.173733
    36  H    0.183950
    37  H    0.140225
    38  H    0.145244
    39  H    0.156250
    40  H    0.130162
    41  H    0.153316
    42  H    0.149524
    43  H    0.162104
    44  H    0.140021
    45  H    0.130969
    46  H    0.150017
    47  H    0.147628
    48  H    0.152850
    49  H    0.144661
    50  H    0.147502
    51  H    0.160455
    52  H    0.120667
    53  H    0.141167
    54  H    0.137401
    55  H    0.153701
    56  H    0.153545
    57  H    0.140736
    58  H    0.154594
    59  Rh  -0.450992
    60  C   -0.027899
    61  C   -0.088447
    62  C   -0.043375
    63  C   -0.082021
    64  H    0.162883
    65  C   -0.350722
    66  H    0.232635
    67  C   -0.241144
    68  C   -0.345638
    69  H    0.184104
    70  H    0.168017
    71  C   -0.230980
    72  H    0.169844
    73  H    0.169252
    74  H    0.167686
    75  H    0.134596
    76  H    0.168713
    77  H    0.168694
    78  H    0.172047
    79  H    0.129982
 Sum of Mulliken charges =   1.00000

 Dipole moment (field-independent basis, Debye):
    X=             -0.1789    Y=             -1.1268    Z=             -0.3564  Tot=              1.1953
 Quadrupole moment (field-independent basis, Debye-Ang):
   XX=           -182.6049   YY=           -194.7037   ZZ=           -205.5625
   XY=              7.3000   XZ=              6.2555   YZ=              1.3929

 Summary of Natural Population Analysis:

                                       Natural Population
                Natural  -----------------------------------------------
    Atom  No    Charge         Core      Valence    Rydberg      Total
 -----------------------------------------------------------------------
      P    1    1.02468      9.99682     3.93344    0.04506    13.97532
      P    2    1.06903      9.99669     3.88546    0.04882    13.93097
      O    3   -0.46719      1.99976     6.44701    0.02042     8.46719
      O    4   -0.46138      1.99976     6.44642    0.01521     8.46138
      C    5   -0.24794      1.99943     4.23155    0.01696     6.24794
      C    6   -0.60098      1.99935     4.59385    0.00778     6.60098
      C    7   -0.60676      1.99936     4.59814    0.00926     6.60676
      C    8   -0.60393      1.99935     4.59647    0.00811     6.60393
      C    9   -0.43809      1.99922     4.41209    0.02678     6.43809
      C   10   -0.25157      1.99940     4.23457    0.01759     6.25157
      C   11    0.30554      1.99866     3.67199    0.02381     5.69446
      C   12   -0.45157      1.99877     4.42963    0.02317     6.45157
      C   13   -0.61066      1.99934     4.60242    0.00890     6.61066
      C   14   -0.60021      1.99935     4.59161    0.00926     6.60021
      C   15   -0.25242      1.99941     4.23610    0.01691     6.25242
      C   16   -0.59988      1.99934     4.59222    0.00832     6.59988
      C   17   -0.60623      1.99935     4.59786    0.00902     6.60623
      C   18   -0.59820      1.99935     4.59036    0.00849     6.59820
      C   19    0.31785      1.99867     3.66006    0.02342     5.68215
      C   20   -0.31125      1.99908     4.29830    0.01387     6.31125
      C   21   -0.27869      1.99904     4.26434    0.01531     6.27869
      C   22   -0.25867      1.99927     4.24634    0.01305     6.25867
      C   23   -0.13465      1.99924     4.12062    0.01480     6.13465
      C   24   -0.59806      1.99935     4.59060    0.00812     6.59806
      H   25    0.22809      0.00000     0.77010    0.00181     0.77191
      H   26    0.23731      0.00000     0.76118    0.00151     0.76269
      H   27    0.22551      0.00000     0.77343    0.00106     0.77449
      H   28    0.21548      0.00000     0.78300    0.00152     0.78452
      H   29    0.21021      0.00000     0.78814    0.00165     0.78979
      H   30    0.20588      0.00000     0.79262    0.00150     0.79412
      H   31    0.22845      0.00000     0.76748    0.00408     0.77155
      H   32    0.20249      0.00000     0.79579    0.00172     0.79751
      H   33    0.21836      0.00000     0.78005    0.00159     0.78164
      H   34    0.22233      0.00000     0.77620    0.00147     0.77767
      H   35    0.22700      0.00000     0.77129    0.00171     0.77300
      H   36    0.21626      0.00000     0.78173    0.00201     0.78374
      H   37    0.20610      0.00000     0.79243    0.00147     0.79390
      H   38    0.18286      0.00000     0.81518    0.00196     0.81714
      H   39    0.22276      0.00000     0.77541    0.00183     0.77724
      H   40    0.20326      0.00000     0.79518    0.00156     0.79674
      H   41    0.20334      0.00000     0.79544    0.00122     0.79666
      H   42    0.18439      0.00000     0.81367    0.00194     0.81561
      H   43    0.22491      0.00000     0.77329    0.00180     0.77509
      H   44    0.20598      0.00000     0.79236    0.00166     0.79402
      H   45    0.20389      0.00000     0.79443    0.00168     0.79611
      H   46    0.22218      0.00000     0.77609    0.00173     0.77782
      H   47    0.20985      0.00000     0.78849    0.00167     0.79015
      H   48    0.22387      0.00000     0.77435    0.00179     0.77613
      H   49    0.21891      0.00000     0.77939    0.00170     0.78109
      H   50    0.21271      0.00000     0.78557    0.00172     0.78729
      H   51    0.22289      0.00000     0.77524    0.00187     0.77711
      H   52    0.19898      0.00000     0.79918    0.00184     0.80102
      H   53    0.21825      0.00000     0.77999    0.00176     0.78175
      H   54    0.20544      0.00000     0.79304    0.00152     0.79456
      H   55    0.22065      0.00000     0.77755    0.00180     0.77935
      H   56    0.21973      0.00000     0.77840    0.00188     0.78027
      H   57    0.21780      0.00000     0.78064    0.00156     0.78220
      H   58    0.22183      0.00000     0.77634    0.00183     0.77817
     Rh   59   -0.34364     35.98536     9.32918    0.02910    45.34364
      C   60   -0.17986      1.99909     4.16115    0.01962     6.17986
      C   61   -0.16801      1.99909     4.14939    0.01953     6.16801
      C   62   -0.17599      1.99908     4.15701    0.01989     6.17599
      C   63   -0.16388      1.99909     4.14476    0.02002     6.16388
      H   64    0.21873      0.00000     0.77887    0.00240     0.78127
      C   65   -0.42309      1.99935     4.41175    0.01198     6.42309
      H   66    0.23817      0.00000     0.75954    0.00230     0.76183
      C   67   -0.41605      1.99935     4.40417    0.01253     6.41605
      C   68   -0.42347      1.99936     4.41221    0.01191     6.42347
      H   69    0.21983      0.00000     0.77777    0.00239     0.78017
      H   70    0.22006      0.00000     0.77758    0.00236     0.77994
      C   71   -0.41707      1.99935     4.40496    0.01276     6.41707
      H   72    0.21578      0.00000     0.78227    0.00195     0.78422
      H   73    0.22816      0.00000     0.77032    0.00152     0.77184
      H   74    0.23199      0.00000     0.76612    0.00189     0.76801
      H   75    0.21714      0.00000     0.78114    0.00172     0.78286
      H   76    0.22854      0.00000     0.76998    0.00149     0.77146
      H   77    0.21618      0.00000     0.78189    0.00194     0.78382
      H   78    0.23402      0.00000     0.76412    0.00187     0.76598
      H   79    0.21580      0.00000     0.78243    0.00177     0.78420
 =======================================================================
   * Total *    1.00000    115.95650   187.39070    0.65281   304.00000

 Normal termination of Gaussian 16 at Wed Jan 22 21:51:01 2025.
