 Gaussian 16, Revision B.01,
 Gaussian 16:  ES64L-G16RevB.01 20-Dec-2017

 ------------------------------------------
 # nmr=giao b3lyp/genecp pop=nbo scfcyc=200
 ------------------------------------------

 ---------
 MS-91_SPE
 ---------
 Symbolic Z-matrix:
 Charge =  1 Multiplicity = 1

                         Standard orientation:
 ---------------------------------------------------------------------
 Center     Atomic      Atomic             Coordinates (Angstroms)
 Number     Number       Type             X           Y           Z
 ---------------------------------------------------------------------
      1         15           0       -0.140682    1.380920   -0.119230
      2         15           0       -0.126600   -1.323320    0.229650
      3          6           0        1.166009    0.012610   -0.232610
      4          6           0        0.235416    5.040090   -2.542130
      5          6           0        2.102898    2.667721   -3.319440
      6          6           0        0.993247    3.340560    3.720940
      7          6           0       -1.231353    4.489249    1.865910
      8          6           0       -0.369749   -4.256890    2.882480
      9          6           0        0.773530   -1.880230    4.534920
     10          1           0        1.340909   -0.129019   -1.301960
     11          1           0        0.862106    5.783860   -3.040450
     12          1           0       -0.511193    4.698750   -3.262100
     13          1           0       -0.286364    5.539060   -1.723040
     14          1           0        2.762457    3.331781   -3.884060
     15          1           0        2.714048    1.843111   -2.946230
     16          1           0        1.363148    2.266491   -4.015510
     17          1           0        0.662037    3.940270    4.572340
     18          1           0        1.451788    2.431881    4.116710
     19          1           0        1.761697    3.908361    3.192730
     20          1           0       -1.682134    5.093249    2.657460
     21          1           0       -0.487154    5.109490    1.362640
     22          1           0       -2.017883    4.255109    1.145130
     23          1           0       -0.412688   -4.727000    1.898170
     24          1           0       -0.025158   -5.010250    3.595290
     25          1           0       -1.383749   -3.970061    3.169580
     26          1           0        1.148820   -2.534820    5.325390
     27          1           0        1.408900   -0.992499    4.511330
     28          1           0       -0.236750   -1.571350    4.810730
     29         45           0       -1.975401   -0.007521   -0.262360
     30          6           0       -3.448830   -1.588182   -1.097590
     31          6           0       -3.691160   -1.420642    0.244410
     32          6           0       -3.748272    1.455808   -0.383720
     33          6           0       -3.221862    1.296758   -1.645700
     34          6           0       -4.259390   -0.986862   -2.229730
     35          1           0       -2.787580   -2.399572   -1.375880
     36          1           0       -3.225410   -2.127332    0.924360
     37          6           0       -4.749121   -0.548553    0.873290
     38          6           0       -5.004821    0.792307    0.148530
     39          1           0       -3.396502    2.309698    0.185230
     40          6           0       -3.730101    0.376448   -2.727070
     41          1           0       -2.513542    2.044168   -1.986580
     42          1           0       -4.249250   -1.684462   -3.069090
     43          1           0       -5.302210   -0.901513   -1.926360
     44          1           0       -5.688790   -1.109643    0.950530
     45          1           0       -4.441411   -0.346253    1.901520
     46          1           0       -5.719591    0.655357   -0.662270
     47          1           0       -5.482602    1.474497    0.853700
     48          1           0       -2.910661    0.208008   -3.428960
     49          1           0       -4.514161    0.886027   -3.301390
     50          6           0        2.523041   -3.230909    2.339160
     51          1           0        2.521561   -3.723969    1.366060
     52          1           0        3.166180   -2.351878    2.269500
     53          1           0        2.972051   -3.918039    3.061250
     54          6           0       -1.729962    1.852299    3.447420
     55          1           0       -2.527022    1.560678    2.760640
     56          1           0       -1.269971    0.941269    3.834580
     57          1           0       -2.186232    2.383059    4.286800
     58          6           0        2.522557    4.143991   -0.614390
     59          1           0        2.038597    4.648581    0.223600
     60          1           0        3.088167    3.294481   -0.226960
     61          1           0        3.239646    4.843352   -1.052270
     62         14           0       -0.454813    2.939920    2.598090
     63         14           0        1.280407    3.612231   -1.919590
     64         14           0        0.785601   -2.773600    2.883390
     65          6           0       -0.971888   -4.957381   -1.815140
     66          1           0       -0.910898   -5.540271   -0.893790
     67          1           0       -1.964388   -4.505391   -1.863070
     68          1           0       -0.888538   -5.655291   -2.652340
     69          6           0        2.096062   -4.491789   -1.809140
     70          1           0        2.174592   -5.145969   -0.938500
     71          1           0        2.272322   -5.102969   -2.698060
     72          1           0        2.895711   -3.751209   -1.747480
     73          6           0        0.236110   -2.567380   -3.407670
     74          1           0       -0.701330   -2.007481   -3.392830
     75          1           0        1.058020   -1.851770   -3.481950
     76          1           0        0.247851   -3.168720   -4.320250
     77         14           0        0.406281   -3.683120   -1.900180
     78          8           0        0.280461   -2.711040   -0.487030
     79          8           0        0.127220   -1.611840    1.787140
     80          8           0        0.252968    2.028310    1.314800
     81          8           0        0.132688    2.531240   -1.202610
     82          7           0        2.377409    0.154981    0.481380
     83          1           0        2.295859    0.641131    1.361120
     84          6           0        3.669469    0.051822   -0.045070
     85          6           0        4.741269    0.574452    0.693660
     86          6           0        3.941469   -0.572798   -1.267520
     87          6           0        6.040579    0.478033    0.218600
     88          1           0        4.549058    1.059242    1.644780
     89          6           0        5.248699   -0.653827   -1.738650
     90          1           0        3.144850   -1.015958   -1.850480
     91          6           0        6.306619   -0.132167   -1.004860
     92          1           0        6.851239    0.888784    0.807710
     93          1           0        5.437090   -1.140517   -2.687870
     94          1           0        7.320719   -0.203556   -1.374640
 ---------------------------------------------------------------------

 SCF Done:  E(RB3LYP) =  -3369.82791129     A.U. after   17 cycles

      1  P    Isotropic =   177.5623   Anisotropy =   203.9506

      2  P    Isotropic =   165.5491   Anisotropy =   182.6953

      3  C    Isotropic =    77.6646   Anisotropy =    78.4870

      4  C    Isotropic =   182.4044   Anisotropy =    15.5117

      5  C    Isotropic =   182.9928   Anisotropy =    12.3701

      6  C    Isotropic =   182.6950   Anisotropy =    14.5082

      7  C    Isotropic =   181.9583   Anisotropy =    11.6278

      8  C    Isotropic =   181.8779   Anisotropy =    14.1522

      9  C    Isotropic =   182.3010   Anisotropy =    13.5739

     10  H    Isotropic =    26.4236   Anisotropy =     5.7055

     11  H    Isotropic =    31.8395   Anisotropy =    11.7589

     12  H    Isotropic =    31.5483   Anisotropy =     7.9612

     13  H    Isotropic =    31.6569   Anisotropy =     7.5819

     14  H    Isotropic =    32.0152   Anisotropy =    11.3370

     15  H    Isotropic =    31.7868   Anisotropy =    10.9964

     16  H    Isotropic =    31.7078   Anisotropy =     7.3666

     17  H    Isotropic =    31.5886   Anisotropy =    11.7425

     18  H    Isotropic =    31.3887   Anisotropy =     7.5887

     19  H    Isotropic =    31.3643   Anisotropy =     8.0067

     20  H    Isotropic =    31.5911   Anisotropy =    11.7350

     21  H    Isotropic =    31.4666   Anisotropy =     7.8955

     22  H    Isotropic =    31.7829   Anisotropy =     6.5310

     23  H    Isotropic =    31.6065   Anisotropy =     7.8331

     24  H    Isotropic =    31.6807   Anisotropy =    11.9271

     25  H    Isotropic =    31.5307   Anisotropy =     7.3216

     26  H    Isotropic =    31.6698   Anisotropy =    11.8297

     27  H    Isotropic =    31.4996   Anisotropy =     7.3137

     28  H    Isotropic =    31.4226   Anisotropy =     7.3107

     29  Rh   Isotropic =  -282.7539   Anisotropy =   313.7414

     30  C    Isotropic =    72.8681   Anisotropy =   129.3031

     31  C    Isotropic =    74.2949   Anisotropy =   121.2054

     32  C    Isotropic =    81.3297   Anisotropy =   116.8296

     33  C    Isotropic =    70.0626   Anisotropy =   128.3942

     34  C    Isotropic =   153.7162   Anisotropy =    24.4747

     35  H    Isotropic =    26.7127   Anisotropy =     7.6707

     36  H    Isotropic =    26.2234   Anisotropy =     4.3934

     37  C    Isotropic =   148.1225   Anisotropy =    27.6856

     38  C    Isotropic =   154.3626   Anisotropy =    23.4333

     39  H    Isotropic =    27.0927   Anisotropy =     6.4730

     40  C    Isotropic =   147.3911   Anisotropy =    28.9422

     41  H    Isotropic =    26.0650   Anisotropy =     4.0458

     42  H    Isotropic =    29.8683   Anisotropy =    10.6839

     43  H    Isotropic =    29.6682   Anisotropy =     9.3899

     44  H    Isotropic =    29.1079   Anisotropy =    12.5059

     45  H    Isotropic =    29.2824   Anisotropy =     7.2294

     46  H    Isotropic =    29.7489   Anisotropy =     9.6069

     47  H    Isotropic =    29.8977   Anisotropy =    11.1024

     48  H    Isotropic =    29.2164   Anisotropy =     6.8325

     49  H    Isotropic =    29.1155   Anisotropy =    12.3671

     50  C    Isotropic =   182.2732   Anisotropy =    11.1525

     51  H    Isotropic =    31.7079   Anisotropy =     8.3344

     52  H    Isotropic =    31.6036   Anisotropy =     8.8905

     53  H    Isotropic =    31.8863   Anisotropy =    11.8776

     54  C    Isotropic =   181.6959   Anisotropy =    10.6300

     55  H    Isotropic =    31.1805   Anisotropy =    10.0219

     56  H    Isotropic =    31.2758   Anisotropy =     8.6231

     57  H    Isotropic =    31.5851   Anisotropy =    11.4512

     58  C    Isotropic =   182.4357   Anisotropy =    10.4193

     59  H    Isotropic =    31.7274   Anisotropy =     7.5386

     60  H    Isotropic =    31.8117   Anisotropy =     9.6928

     61  H    Isotropic =    31.9462   Anisotropy =    11.4296

     62  Si   Isotropic =   311.4510   Anisotropy =    28.8180

     63  Si   Isotropic =   309.1710   Anisotropy =    31.3761

     64  Si   Isotropic =   310.6908   Anisotropy =    31.5915

     65  C    Isotropic =   181.5431   Anisotropy =    14.4312

     66  H    Isotropic =    31.3918   Anisotropy =     8.0175

     67  H    Isotropic =    31.6914   Anisotropy =     7.6817

     68  H    Isotropic =    31.6377   Anisotropy =    11.6004

     69  C    Isotropic =   181.5827   Anisotropy =    13.4825

     70  H    Isotropic =    31.4278   Anisotropy =     7.6988

     71  H    Isotropic =    31.6841   Anisotropy =    11.6052

     72  H    Isotropic =    31.4011   Anisotropy =     8.8160

     73  C    Isotropic =   181.9826   Anisotropy =    10.1670

     74  H    Isotropic =    31.2875   Anisotropy =     9.0271

     75  H    Isotropic =    31.2221   Anisotropy =     7.3776

     76  H    Isotropic =    31.4532   Anisotropy =    11.4466

     77  Si   Isotropic =   314.5329   Anisotropy =    27.9858

     78  O    Isotropic =   189.8498   Anisotropy =   100.1885

     79  O    Isotropic =   195.8878   Anisotropy =   139.4727

     80  O    Isotropic =   181.9130   Anisotropy =   137.5419

     81  O    Isotropic =   182.1565   Anisotropy =   102.2404

     82  N    Isotropic =   168.5616   Anisotropy =    81.5591

     83  H    Isotropic =    27.3348   Anisotropy =     6.3598

     84  C    Isotropic =    34.6173   Anisotropy =   164.9765

     85  C    Isotropic =    66.5299   Anisotropy =   138.1241

     86  C    Isotropic =    71.9874   Anisotropy =   152.1515

     87  C    Isotropic =    47.4069   Anisotropy =   189.1671

     88  H    Isotropic =    25.1915   Anisotropy =     8.7208

     89  C    Isotropic =    48.6520   Anisotropy =   188.3302

     90  H    Isotropic =    25.3712   Anisotropy =     8.0648

     91  C    Isotropic =    58.6940   Anisotropy =   174.8928

     92  H    Isotropic =    24.3846   Anisotropy =     5.5498

     93  H    Isotropic =    24.3996   Anisotropy =     7.1095

     94  H    Isotropic =    24.8260   Anisotropy =     3.3022

 The electronic state is 1-A.
 Alpha  occ. eigenvalues --  -77.29753 -77.29638 -66.25945 -66.25693 -66.25379
 Alpha  occ. eigenvalues --  -66.25002 -19.23970 -19.23889 -19.23842 -19.23339
 Alpha  occ. eigenvalues --  -14.43245 -10.32511 -10.30580 -10.29341 -10.29244
 Alpha  occ. eigenvalues --  -10.29219 -10.28859 -10.27749 -10.27719 -10.27626
 Alpha  occ. eigenvalues --  -10.27486 -10.25569 -10.25492 -10.25385 -10.25326
 Alpha  occ. eigenvalues --  -10.24791 -10.24478 -10.24333 -10.24293 -10.24257
 Alpha  occ. eigenvalues --  -10.24135 -10.23952 -10.23856 -10.23762 -10.23701
 Alpha  occ. eigenvalues --  -10.23619 -10.23608 -10.23258  -6.74655  -6.74505
 Alpha  occ. eigenvalues --   -5.39436  -5.39222  -5.38893  -5.38515  -4.91112
 Alpha  occ. eigenvalues --   -4.90974  -4.90921  -4.90771  -4.90520  -4.90361
 Alpha  occ. eigenvalues --   -3.75617  -3.75391  -3.75192  -3.75167  -3.75080
 Alpha  occ. eigenvalues --   -3.74973  -3.74965  -3.74694  -3.74633  -3.74625
 Alpha  occ. eigenvalues --   -3.74263  -3.74251  -3.31745  -2.08744  -2.07910
 Alpha  occ. eigenvalues --   -2.05188  -1.13762  -1.13456  -1.09370  -1.09053
 Alpha  occ. eigenvalues --   -1.04008  -0.94645  -0.93259  -0.89419  -0.88224
 Alpha  occ. eigenvalues --   -0.85557  -0.83098  -0.81621  -0.81512  -0.80880
 Alpha  occ. eigenvalues --   -0.80706  -0.80537  -0.79780  -0.78079  -0.77997
 Alpha  occ. eigenvalues --   -0.77794  -0.77607  -0.77509  -0.77222  -0.77130
 Alpha  occ. eigenvalues --   -0.77012  -0.76783  -0.73479  -0.72399  -0.70801
 Alpha  occ. eigenvalues --   -0.69872  -0.67987  -0.66027  -0.65237  -0.64422
 Alpha  occ. eigenvalues --   -0.62750  -0.62511  -0.62125  -0.60116  -0.57496
 Alpha  occ. eigenvalues --   -0.57277  -0.56630  -0.56423  -0.55725  -0.54320
 Alpha  occ. eigenvalues --   -0.53883  -0.53761  -0.53429  -0.52961  -0.52764
 Alpha  occ. eigenvalues --   -0.52574  -0.52504  -0.52320  -0.52258  -0.51595
 Alpha  occ. eigenvalues --   -0.51178  -0.51024  -0.50923  -0.50780  -0.50585
 Alpha  occ. eigenvalues --   -0.50503  -0.50303  -0.50168  -0.50025  -0.49820
 Alpha  occ. eigenvalues --   -0.49657  -0.49381  -0.49217  -0.48932  -0.48841
 Alpha  occ. eigenvalues --   -0.48625  -0.48518  -0.48362  -0.48273  -0.48188
 Alpha  occ. eigenvalues --   -0.48086  -0.47967  -0.47908  -0.47859  -0.47761
 Alpha  occ. eigenvalues --   -0.47536  -0.47422  -0.47061  -0.46608  -0.46263
 Alpha  occ. eigenvalues --   -0.46211  -0.46094  -0.45546  -0.44952  -0.44599
 Alpha  occ. eigenvalues --   -0.44302  -0.44247  -0.43434  -0.43325  -0.42772
 Alpha  occ. eigenvalues --   -0.41966  -0.41819  -0.40047  -0.39921  -0.39761
 Alpha  occ. eigenvalues --   -0.39684  -0.39362  -0.39017  -0.38886  -0.38764
 Alpha  occ. eigenvalues --   -0.38254  -0.36572  -0.35627  -0.35404  -0.34838
 Alpha  occ. eigenvalues --   -0.33886  -0.33789  -0.30814  -0.29003
 Alpha virt. eigenvalues --   -0.16617  -0.13607  -0.09838  -0.09614  -0.09175
 Alpha virt. eigenvalues --   -0.08314  -0.07969  -0.07614  -0.07113  -0.06840
 Alpha virt. eigenvalues --   -0.06350  -0.05282  -0.04821  -0.04573  -0.04505

 Mulliken charges:
               1
     1  P    0.783205
     2  P    0.798317
     3  C   -0.502617
     4  C   -0.509888
     5  C   -0.566013
     6  C   -0.515510
     7  C   -0.572482
     8  C   -0.563320
     9  C   -0.522035
    10  H    0.205760
    11  H    0.144386
    12  H    0.139866
    13  H    0.140583
    14  H    0.147760
    15  H    0.152833
    16  H    0.137910
    17  H    0.145494
    18  H    0.138193
    19  H    0.147232
    20  H    0.155558
    21  H    0.142856
    22  H    0.137074
    23  H    0.134481
    24  H    0.147807
    25  H    0.136601
    26  H    0.146920
    27  H    0.130952
    28  H    0.138730
    29  Rh  -0.599469
    30  C   -0.001068
    31  C   -0.086171
    32  C   -0.047637
    33  C   -0.092049
    34  C   -0.351500
    35  H    0.129771
    36  H    0.181144
    37  C   -0.217227
    38  C   -0.361922
    39  H    0.176046
    40  C   -0.221407
    41  H    0.200868
    42  H    0.168074
    43  H    0.167887
    44  H    0.174458
    45  H    0.138104
    46  H    0.166492
    47  H    0.168834
    48  H    0.131728
    49  H    0.173021
    50  C   -0.550336
    51  H    0.139049
    52  H    0.147911
    53  H    0.144791
    54  C   -0.543463
    55  H    0.122582
    56  H    0.146967
    57  H    0.155079
    58  C   -0.552920
    59  H    0.131498
    60  H    0.153996
    61  H    0.151045
    62  Si   0.733729
    63  Si   0.743802
    64  Si   0.761581
    65  C   -0.556064
    66  H    0.147541
    67  H    0.152486
    68  H    0.150157
    69  C   -0.513990
    70  H    0.146654
    71  H    0.149149
    72  H    0.150216
    73  C   -0.603223
    74  H    0.134827
    75  H    0.146900
    76  H    0.159019
    77  Si   0.738258
    78  O   -0.492269
    79  O   -0.471648
    80  O   -0.506364
    81  O   -0.472529
    82  N   -0.198779
    83  H    0.260317
    84  C    0.105352
    85  C   -0.189048
    86  C   -0.154322
    87  C   -0.129337
    88  H    0.121789
    89  C   -0.155786
    90  H    0.123520
    91  C   -0.095412
    92  H    0.124877
    93  H    0.117190
    94  H    0.126580
 Sum of Mulliken charges =   1.00000

 Dipole moment (field-independent basis, Debye):
    X=             -2.7652    Y=              0.2333    Z=             -0.4889  Tot=              2.8177
 Quadrupole moment (field-independent basis, Debye-Ang):
   XX=           -248.5680   YY=           -245.0581   ZZ=           -256.8204
   XY=              2.0530   XZ=              1.1707   YZ=              6.1038

 Summary of Natural Population Analysis:

                                       Natural Population
                Natural  -----------------------------------------------
    Atom  No    Charge         Core      Valence    Rydberg      Total
 -----------------------------------------------------------------------
      P    1    1.76505      9.99598     3.14400    0.09498    13.23495
      P    2    1.76733      9.99607     3.14296    0.09364    13.23267
      C    3   -0.63611      1.99938     4.61334    0.02340     6.63611
      C    4   -1.10636      1.99943     5.09907    0.00786     7.10636
      C    5   -1.11322      1.99944     5.10566    0.00812     7.11322
      C    6   -1.10703      1.99943     5.09960    0.00800     7.10703
      C    7   -1.11147      1.99944     5.10353    0.00850     7.11147
      C    8   -1.11076      1.99944     5.10304    0.00829     7.11076
      C    9   -1.10453      1.99944     5.09703    0.00806     7.10453
      H   10    0.24545      0.00000     0.75171    0.00283     0.75455
      H   11    0.24274      0.00000     0.75645    0.00082     0.75726
      H   12    0.23921      0.00000     0.75992    0.00088     0.76079
      H   13    0.23832      0.00000     0.76070    0.00097     0.76168
      H   14    0.24498      0.00000     0.75420    0.00082     0.75502
      H   15    0.23992      0.00000     0.75887    0.00121     0.76008
      H   16    0.23683      0.00000     0.76226    0.00091     0.76317
      H   17    0.24388      0.00000     0.75530    0.00082     0.75612
      H   18    0.23666      0.00000     0.76234    0.00100     0.76334
      H   19    0.24053      0.00000     0.75847    0.00099     0.75947
      H   20    0.24518      0.00000     0.75397    0.00085     0.75482
      H   21    0.23752      0.00000     0.76132    0.00115     0.76248
      H   22    0.23138      0.00000     0.76756    0.00106     0.76862
      H   23    0.23455      0.00000     0.76439    0.00106     0.76545
      H   24    0.24272      0.00000     0.75644    0.00084     0.75728
      H   25    0.23568      0.00000     0.76340    0.00092     0.76432
      H   26    0.24217      0.00000     0.75701    0.00082     0.75783
      H   27    0.23354      0.00000     0.76545    0.00101     0.76646
      H   28    0.23667      0.00000     0.76233    0.00100     0.76333
     Rh   29   -0.56193     35.98519     9.54706    0.02968    45.56193
      C   30   -0.16273      1.99906     4.14263    0.02104     6.16273
      C   31   -0.16956      1.99907     4.14940    0.02108     6.16956
      C   32   -0.19301      1.99906     4.17317    0.02078     6.19301
      C   33   -0.14746      1.99907     4.12742    0.02096     6.14746
      C   34   -0.42503      1.99936     4.41357    0.01211     6.42503
      H   35    0.22133      0.00000     0.77622    0.00246     0.77867
      H   36    0.23079      0.00000     0.76733    0.00188     0.76921
      C   37   -0.42293      1.99936     4.41126    0.01231     6.42293
      C   38   -0.42358      1.99936     4.41236    0.01185     6.42358
      H   39    0.22277      0.00000     0.77490    0.00233     0.77723
      C   40   -0.42221      1.99936     4.41025    0.01260     6.42221
      H   41    0.23549      0.00000     0.76242    0.00209     0.76451
      H   42    0.22789      0.00000     0.77062    0.00149     0.77211
      H   43    0.21272      0.00000     0.78499    0.00228     0.78728
      H   44    0.23545      0.00000     0.76268    0.00187     0.76455
      H   45    0.22025      0.00000     0.77825    0.00150     0.77975
      H   46    0.21439      0.00000     0.78369    0.00192     0.78561
      H   47    0.22878      0.00000     0.76972    0.00150     0.77122
      H   48    0.21937      0.00000     0.77909    0.00154     0.78063
      H   49    0.23452      0.00000     0.76355    0.00193     0.76548
      C   50   -1.11354      1.99943     5.10560    0.00851     7.11354
      H   51    0.23900      0.00000     0.75996    0.00104     0.76100
      H   52    0.24344      0.00000     0.75557    0.00099     0.75656
      H   53    0.24145      0.00000     0.75766    0.00089     0.75855
      C   54   -1.10751      1.99943     5.09942    0.00866     7.10751
      H   55    0.23363      0.00000     0.76511    0.00126     0.76637
      H   56    0.24175      0.00000     0.75713    0.00112     0.75825
      H   57    0.24267      0.00000     0.75645    0.00087     0.75733
      C   58   -1.11313      1.99943     5.10505    0.00865     7.11313
      H   59    0.23298      0.00000     0.76586    0.00116     0.76702
      H   60    0.24233      0.00000     0.75654    0.00114     0.75767
      H   61    0.24498      0.00000     0.75416    0.00086     0.75502
     Si   62    1.85847      9.99798     2.11003    0.03352    12.14153
     Si   63    1.85464      9.99798     2.11487    0.03252    12.14536
     Si   64    1.85885      9.99798     2.10967    0.03350    12.14115
      C   65   -1.10774      1.99943     5.10015    0.00815     7.10774
      H   66    0.24131      0.00000     0.75764    0.00105     0.75869
      H   67    0.22992      0.00000     0.76906    0.00103     0.77008
      H   68    0.24446      0.00000     0.75470    0.00084     0.75554
      C   69   -1.11020      1.99943     5.10263    0.00814     7.11020
      H   70    0.24106      0.00000     0.75795    0.00099     0.75894
      H   71    0.24292      0.00000     0.75624    0.00085     0.75708
      H   72    0.24194      0.00000     0.75688    0.00118     0.75806
      C   73   -1.11273      1.99944     5.10487    0.00842     7.11273
      H   74    0.23455      0.00000     0.76433    0.00113     0.76545
      H   75    0.23174      0.00000     0.76725    0.00101     0.76826
      H   76    0.24658      0.00000     0.75256    0.00086     0.75342
     Si   77    1.86005      9.99794     2.10915    0.03285    12.13995
      O   78   -1.14325      1.99976     7.13416    0.00932     9.14325
      O   79   -1.12846      1.99978     7.11714    0.01154     9.12846
      O   80   -1.13883      1.99979     7.12804    0.01100     9.13883
      O   81   -1.13218      1.99978     7.12224    0.01016     9.13218
      N   82   -0.58509      1.99945     5.56195    0.02368     7.58509
      H   83    0.39886      0.00000     0.59770    0.00344     0.60114
      C   84    0.14917      1.99896     3.83307    0.01881     5.85083
      C   85   -0.25450      1.99911     4.24052    0.01487     6.25450
      C   86   -0.28045      1.99909     4.26673    0.01463     6.28045
      C   87   -0.17322      1.99921     4.15907    0.01494     6.17322
      H   88    0.20514      0.00000     0.79323    0.00163     0.79486
      C   89   -0.17501      1.99922     4.16065    0.01514     6.17501
      H   90    0.19658      0.00000     0.80102    0.00239     0.80342
      C   91   -0.23775      1.99920     4.22289    0.01567     6.23775
      H   92    0.21689      0.00000     0.78193    0.00118     0.78311
      H   93    0.21336      0.00000     0.78541    0.00124     0.78664
      H   94    0.21874      0.00000     0.78005    0.00121     0.78126
 =======================================================================
   * Total *    1.00000    159.94875   225.21314    0.83811   386.00000

 Normal termination of Gaussian 16 at Wed Jan 22 23:02:20 2025.
