 Gaussian 16, Revision B.01,
 Gaussian 16:  ES64L-G16RevB.01 20-Dec-2017

 ------------------------------------------
 # nmr=giao b3lyp/genecp pop=nbo scfcyc=200
 ------------------------------------------

 ---------
 MS-93_SPE
 ---------
 Symbolic Z-matrix:
 Charge =  1 Multiplicity = 1

                         Standard orientation:
 ---------------------------------------------------------------------
 Center     Atomic      Atomic             Coordinates (Angstroms)
 Number     Number       Type             X           Y           Z
 ---------------------------------------------------------------------
      1         15           0       -2.348999   -0.964361   -0.253741
      2         15           0        0.265880   -0.588180    0.954699
      3          8           0       -0.448369   -3.112510    0.239079
      4          6           0        0.878810   -0.696710    2.772909
      5          6           0       -0.299110   -0.322820    3.685439
      6          6           0        1.368271   -2.113980    3.098189
      7          6           0        2.025460    0.304271    2.972899
      8          6           0       -1.034549   -1.925561    0.755439
      9          6           0       -2.351609   -1.552201   -2.091291
     10          6           0        0.827701   -2.899520   -0.226271
     11          6           0        1.401711   -1.627910   -0.066631
     12          6           0       -2.761559   -3.023081   -2.258831
     13          6           0       -0.938049   -1.343600   -2.661221
     14          6           0       -3.982509   -1.450812    0.669279
     15          6           0       -5.220969   -0.947592   -0.090051
     16          6           0       -4.106699   -2.969232    0.885749
     17          6           0       -3.940709   -0.764742    2.047909
     18          6           0        3.329101   -2.432389   -1.257661
     19          6           0        1.492962   -3.944070   -0.847071
     20          6           0        2.759232   -3.695979   -1.357691
     21          6           0       -3.305210   -0.652821   -2.900371
     22          1           0        4.306381   -2.249429   -1.684131
     23          1           0        1.018042   -4.911980   -0.934601
     24          1           0        3.301092   -4.491749   -1.853071
     25          1           0       -0.739100    0.640960    3.424319
     26          1           0       -5.405259   -1.516422   -0.999941
     27          1           0       -5.159220    0.110028   -0.351261
     28          1           0       -1.499549   -2.171981    1.707669
     29          1           0       -1.089749   -1.074081    3.669969
     30          1           0        2.230341   -2.394019    2.493749
     31          1           0        2.894250    0.040231    2.375539
     32          1           0       -2.177758   -3.689901   -1.625741
     33          1           0       -0.224459   -2.075370   -2.295011
     34          1           0       -3.258199   -3.392431    1.424369
     35          1           0       -3.298169   -1.000321   -3.936821
     36          1           0       -2.971360    0.384089   -2.907141
     37          1           0        0.059480   -0.259280    4.715849
     38          1           0        0.590071   -2.866930    2.959529
     39          1           0       -3.820189   -3.181882   -2.056991
     40          1           0       -4.997389   -3.160382    1.490839
     41          1           0       -4.335680   -0.683732   -2.556741
     42          1           0        1.670921   -2.150220    4.148529
     43          1           0       -2.588469   -3.313251   -3.299091
     44          1           0       -4.221439   -3.519252   -0.044491
     45          1           0       -4.870909   -0.987722    2.576729
     46          1           0       -3.125559   -1.127681    2.673569
     47          1           0       -3.846800    0.317348    1.972719
     48          1           0        1.735910    1.328440    2.735929
     49          1           0        2.327770    0.286551    4.023779
     50          1           0       -0.990879   -1.458041   -3.747481
     51          1           0       -0.545450   -0.348150   -2.447901
     52          1           0       -6.098239   -1.073272    0.549789
     53         45           0       -1.219620    1.147279    0.183689
     54          6           0       -0.352151    2.942270    1.270979
     55          6           0        0.249259    2.829710    0.032879
     56          6           0       -2.457541    2.644379   -0.975821
     57          6           0       -3.021461    2.473849    0.274809
     58          1           0        0.169719    2.500900    2.110289
     59          6           0       -1.432311    3.940079    1.642939
     60          1           0        1.212839    2.333700   -0.011671
     61          6           0       -0.103871    3.613850   -1.205601
     62          6           0       -1.617271    3.830239   -1.410431
     63          1           0       -2.884270    2.061659   -1.782191
     64          1           0       -3.869110    1.802258    0.340209
     65          6           0       -2.859151    3.383649    1.466519
     66          1           0       -1.304561    4.853949    1.063169
     67          1           0       -1.296281    4.226869    2.687029
     68          1           0        0.414949    4.580520   -1.194571
     69          1           0        0.294839    3.068240   -2.062161
     70          1           0       -1.802391    4.016019   -2.469771
     71          1           0       -1.949901    4.726989   -0.887821
     72          1           0       -3.578981    4.209269    1.400769
     73          1           0       -3.135901    2.818959    2.359639
     74          6           0        2.666951   -1.377489   -0.622571
     75          6           0        3.354450   -0.049899   -0.620541
     76          6           0        4.428060    0.202561    0.251109
     77          6           0        3.081440    0.890031   -1.627581
     78          6           0        5.161520    1.387362    0.165579
     79          6           0        3.816810    2.073491   -1.724811
     80          6           0        4.844009    2.309092   -0.822091
     81          1           0        5.977760    1.586102    0.843519
     82          1           0        3.606549    2.795191   -2.500131
     83          1           0        5.416399    3.225212   -0.896061
     84          8           0        4.691501   -0.780158    1.158309
     85          8           0        2.079320    0.563011   -2.496551
     86          6           0        5.862840   -0.677878    1.968049
     87          1           0        5.805230    0.174512    2.650219
     88          1           0        5.902151   -1.598568    2.544549
     89          1           0        6.761710   -0.595188    1.352709
     90          6           0        2.047340    1.211961   -3.766851
     91          1           0        1.290670    0.690290   -4.348021
     92          1           0        1.768249    2.265510   -3.680591
     93          1           0        3.012780    1.134201   -4.272171
 ---------------------------------------------------------------------

 SCF Done:  E(RB3LYP) =  -2384.42083862     A.U. after   17 cycles

      1  P    Isotropic =   262.4022   Anisotropy =   105.4858

      2  P    Isotropic =   285.7125   Anisotropy =    73.6060

      3  O    Isotropic =   167.2679   Anisotropy =   110.4788

      4  C    Isotropic =   133.4153   Anisotropy =    34.7262

      5  C    Isotropic =   154.9546   Anisotropy =    39.1322

      6  C    Isotropic =   157.9919   Anisotropy =    40.5103

      7  C    Isotropic =   159.9736   Anisotropy =    39.7761

      8  C    Isotropic =    88.3389   Anisotropy =    67.1562

      9  C    Isotropic =   131.4531   Anisotropy =    39.4736

     10  C    Isotropic =    11.3788   Anisotropy =   113.6042

     11  C    Isotropic =    55.5207   Anisotropy =   117.7003

     12  C    Isotropic =   154.6055   Anisotropy =    36.6069

     13  C    Isotropic =   150.5527   Anisotropy =    41.9507

     14  C    Isotropic =   132.8950   Anisotropy =    37.0667

     15  C    Isotropic =   154.4598   Anisotropy =    34.2973

     16  C    Isotropic =   155.9502   Anisotropy =    41.1869

     17  C    Isotropic =   151.3842   Anisotropy =    40.2835

     18  C    Isotropic =    50.7342   Anisotropy =   163.1510

     19  C    Isotropic =    67.6368   Anisotropy =   152.7147

     20  C    Isotropic =    44.4334   Anisotropy =   192.4641

     21  C    Isotropic =   153.1104   Anisotropy =    41.9178

     22  H    Isotropic =    25.0160   Anisotropy =     9.3840

     23  H    Isotropic =    24.6785   Anisotropy =     6.9622

     24  H    Isotropic =    24.1708   Anisotropy =     3.0504

     25  H    Isotropic =    30.2371   Anisotropy =     6.4358

     26  H    Isotropic =    30.3853   Anisotropy =     7.6079

     27  H    Isotropic =    30.7928   Anisotropy =     5.2759

     28  H    Isotropic =    25.7188   Anisotropy =     4.3004

     29  H    Isotropic =    30.6005   Anisotropy =     7.6040

     30  H    Isotropic =    31.0770   Anisotropy =     4.4737

     31  H    Isotropic =    30.4457   Anisotropy =    14.2306

     32  H    Isotropic =    29.9440   Anisotropy =     5.5246

     33  H    Isotropic =    31.1611   Anisotropy =    12.3929

     34  H    Isotropic =    30.1621   Anisotropy =     5.4564

     35  H    Isotropic =    30.9676   Anisotropy =    10.1994

     36  H    Isotropic =    30.7368   Anisotropy =     5.9282

     37  H    Isotropic =    30.7672   Anisotropy =    10.5147

     38  H    Isotropic =    30.9973   Anisotropy =     7.0166

     39  H    Isotropic =    30.3995   Anisotropy =     8.1171

     40  H    Isotropic =    30.6848   Anisotropy =    11.0868

     41  H    Isotropic =    30.4039   Anisotropy =     7.1559

     42  H    Isotropic =    31.0443   Anisotropy =    11.2486

     43  H    Isotropic =    30.8383   Anisotropy =    10.6143

     44  H    Isotropic =    30.0496   Anisotropy =     7.4155

     45  H    Isotropic =    30.8205   Anisotropy =    10.1206

     46  H    Isotropic =    30.3398   Anisotropy =     6.6026

     47  H    Isotropic =    30.1928   Anisotropy =     7.5798

     48  H    Isotropic =    31.6035   Anisotropy =     4.0287

     49  H    Isotropic =    31.3226   Anisotropy =    10.4019

     50  H    Isotropic =    31.2327   Anisotropy =     7.6957

     51  H    Isotropic =    29.9032   Anisotropy =     8.0230

     52  H    Isotropic =    30.6817   Anisotropy =    10.6961

     53  Rh   Isotropic =  -355.5039   Anisotropy =   397.0709

     54  C    Isotropic =    81.3974   Anisotropy =   118.9530

     55  C    Isotropic =    81.7806   Anisotropy =   112.5513

     56  C    Isotropic =    81.8749   Anisotropy =   119.2550

     57  C    Isotropic =    80.4352   Anisotropy =   112.4855

     58  H    Isotropic =    27.0644   Anisotropy =     4.7670

     59  C    Isotropic =   154.6079   Anisotropy =    25.1200

     60  H    Isotropic =    27.2215   Anisotropy =     9.7924

     61  C    Isotropic =   147.8400   Anisotropy =    28.1717

     62  C    Isotropic =   154.3770   Anisotropy =    24.7262

     63  H    Isotropic =    26.8829   Anisotropy =     5.4440

     64  H    Isotropic =    26.5050   Anisotropy =     4.6941

     65  C    Isotropic =   147.1419   Anisotropy =    30.3849

     66  H    Isotropic =    29.9740   Anisotropy =     9.5183

     67  H    Isotropic =    30.0025   Anisotropy =    11.2626

     68  H    Isotropic =    29.3174   Anisotropy =    11.5410

     69  H    Isotropic =    29.1951   Anisotropy =     8.8592

     70  H    Isotropic =    29.9034   Anisotropy =    10.9601

     71  H    Isotropic =    29.9172   Anisotropy =     9.9453

     72  H    Isotropic =    29.1877   Anisotropy =    13.2013

     73  H    Isotropic =    29.1612   Anisotropy =     6.9314

     74  C    Isotropic =    33.7559   Anisotropy =   185.8815

     75  C    Isotropic =    57.7571   Anisotropy =   125.7587

     76  C    Isotropic =    17.0694   Anisotropy =   138.7782

     77  C    Isotropic =    17.0239   Anisotropy =   137.7716

     78  C    Isotropic =    76.7829   Anisotropy =   152.1463

     79  C    Isotropic =    76.9025   Anisotropy =   152.1269

     80  C    Isotropic =    47.1823   Anisotropy =   192.1765

     81  H    Isotropic =    25.3211   Anisotropy =     6.3322

     82  H    Isotropic =    25.2198   Anisotropy =     7.3506

     83  H    Isotropic =    24.2991   Anisotropy =     4.1016

     84  O    Isotropic =   212.6477   Anisotropy =   104.9999

     85  O    Isotropic =   222.9690   Anisotropy =   101.7388

     86  C    Isotropic =   128.3910   Anisotropy =    78.7968

     87  H    Isotropic =    28.3567   Anisotropy =     9.4882

     88  H    Isotropic =    28.0585   Anisotropy =    10.0459

     89  H    Isotropic =    28.3591   Anisotropy =    11.0200

     90  C    Isotropic =   127.0568   Anisotropy =    78.8599

     91  H    Isotropic =    28.0357   Anisotropy =     7.8721

     92  H    Isotropic =    27.8246   Anisotropy =     7.5337

     93  H    Isotropic =    28.5007   Anisotropy =    10.6146

 The electronic state is 1-A.
 Alpha  occ. eigenvalues --  -77.22638 -77.22303 -19.27002 -19.24712 -19.24707
 Alpha  occ. eigenvalues --  -10.35035 -10.33764 -10.32874 -10.32842 -10.31179
 Alpha  occ. eigenvalues --  -10.30995 -10.30757 -10.30720 -10.30357 -10.29279
 Alpha  occ. eigenvalues --  -10.29077 -10.28916 -10.28789 -10.28733 -10.28574
 Alpha  occ. eigenvalues --  -10.27471 -10.27333 -10.27250 -10.27216 -10.27179
 Alpha  occ. eigenvalues --  -10.27170 -10.26772 -10.26662 -10.26566 -10.26552
 Alpha  occ. eigenvalues --  -10.26396 -10.26159 -10.26122 -10.26058 -10.25709
 Alpha  occ. eigenvalues --  -10.25634 -10.25628 -10.25595 -10.25513 -10.25330
 Alpha  occ. eigenvalues --   -6.68660  -6.68283  -4.84961  -4.84838  -4.84582
 Alpha  occ. eigenvalues --   -4.84558  -4.84455  -4.84190  -3.31326  -2.08177
 Alpha  occ. eigenvalues --   -2.07569  -2.04772  -1.18311  -1.15896  -1.15677
 Alpha  occ. eigenvalues --   -0.96476  -0.94424  -0.94315  -0.93012  -0.92078
 Alpha  occ. eigenvalues --   -0.91098  -0.89013  -0.88281  -0.87974  -0.85585
 Alpha  occ. eigenvalues --   -0.85083  -0.84665  -0.82193  -0.80275  -0.79532
 Alpha  occ. eigenvalues --   -0.79521  -0.79361  -0.78971  -0.78525  -0.78508
 Alpha  occ. eigenvalues --   -0.78308  -0.77906  -0.77693  -0.74914  -0.72629
 Alpha  occ. eigenvalues --   -0.71543  -0.70482  -0.69081  -0.67920  -0.67725
 Alpha  occ. eigenvalues --   -0.65890  -0.65530  -0.64601  -0.62999  -0.62567
 Alpha  occ. eigenvalues --   -0.62446  -0.60757  -0.60167  -0.59588  -0.59556
 Alpha  occ. eigenvalues --   -0.58327  -0.57965  -0.57343  -0.57289  -0.56819
 Alpha  occ. eigenvalues --   -0.56541  -0.56189  -0.55882  -0.55630  -0.55105
 Alpha  occ. eigenvalues --   -0.55009  -0.54278  -0.54035  -0.53693  -0.53594
 Alpha  occ. eigenvalues --   -0.53439  -0.53310  -0.52975  -0.52591  -0.52500
 Alpha  occ. eigenvalues --   -0.52464  -0.51667  -0.51151  -0.50236  -0.50055
 Alpha  occ. eigenvalues --   -0.49346  -0.49283  -0.48833  -0.48697  -0.48472
 Alpha  occ. eigenvalues --   -0.48325  -0.48162  -0.47932  -0.47707  -0.47602
 Alpha  occ. eigenvalues --   -0.47247  -0.47216  -0.46679  -0.46475  -0.46203
 Alpha  occ. eigenvalues --   -0.46082  -0.45884  -0.45639  -0.44996  -0.44540
 Alpha  occ. eigenvalues --   -0.44404  -0.44355  -0.44197  -0.43843  -0.43502
 Alpha  occ. eigenvalues --   -0.43073  -0.42996  -0.42802  -0.42629  -0.42419
 Alpha  occ. eigenvalues --   -0.41444  -0.41078  -0.40374  -0.40041  -0.39623
 Alpha  occ. eigenvalues --   -0.39350  -0.37384  -0.35909  -0.35107  -0.34620
 Alpha  occ. eigenvalues --   -0.34310  -0.33628  -0.32480  -0.32021  -0.31384
 Alpha  occ. eigenvalues --   -0.30480
 Alpha virt. eigenvalues --   -0.15955  -0.14507  -0.12331  -0.10625  -0.09759
 Alpha virt. eigenvalues --   -0.09361  -0.08537  -0.08121  -0.07907  -0.07158
 Alpha virt. eigenvalues --   -0.06625  -0.06024  -0.05677  -0.05068  -0.04637

 Mulliken charges:
               1
     1  P    0.422332
     2  P    0.279788
     3  O   -0.134097
     4  C   -0.045455
     5  C   -0.376988
     6  C   -0.389463
     7  C   -0.437770
     8  C   -0.394512
     9  C    0.047848
    10  C    0.063219
    11  C   -0.133146
    12  C   -0.415382
    13  C   -0.485510
    14  C   -0.109306
    15  C   -0.426321
    16  C   -0.346975
    17  C   -0.374506
    18  C   -0.145367
    19  C   -0.169341
    20  C   -0.046682
    21  C   -0.411757
    22  H    0.118577
    23  H    0.142960
    24  H    0.126737
    25  H    0.128099
    26  H    0.150663
    27  H    0.149711
    28  H    0.205635
    29  H    0.125210
    30  H    0.170259
    31  H    0.200545
    32  H    0.172957
    33  H    0.190347
    34  H    0.143136
    35  H    0.156751
    36  H    0.123434
    37  H    0.160495
    38  H    0.143055
    39  H    0.134508
    40  H    0.147982
    41  H    0.157204
    42  H    0.146168
    43  H    0.146872
    44  H    0.153414
    45  H    0.160071
    46  H    0.124603
    47  H    0.128328
    48  H    0.144514
    49  H    0.147868
    50  H    0.147372
    51  H    0.170573
    52  H    0.154451
    53  Rh  -0.417915
    54  C   -0.002283
    55  C   -0.093522
    56  C   -0.030247
    57  C   -0.102958
    58  H    0.161062
    59  C   -0.355965
    60  H    0.237693
    61  C   -0.227406
    62  C   -0.358493
    63  H    0.192439
    64  H    0.174273
    65  C   -0.235502
    66  H    0.169673
    67  H    0.168397
    68  H    0.168188
    69  H    0.114496
    70  H    0.166724
    71  H    0.169701
    72  H    0.170253
    73  H    0.130691
    74  C    0.215807
    75  C   -0.215806
    76  C    0.073463
    77  C    0.055235
    78  C   -0.094651
    79  C   -0.093913
    80  C   -0.135378
    81  H    0.142187
    82  H    0.133183
    83  H    0.122581
    84  O   -0.224827
    85  O   -0.218440
    86  C   -0.232815
    87  H    0.132870
    88  H    0.154556
    89  H    0.146494
    90  C   -0.229542
    91  H    0.151427
    92  H    0.118984
    93  H    0.156176
 Sum of Mulliken charges =   1.00000

 Dipole moment (field-independent basis, Debye):
    X=             -1.0860    Y=              1.5072    Z=              0.3386  Tot=              1.8883
 Quadrupole moment (field-independent basis, Debye-Ang):
   XX=           -210.1612   YY=           -241.2777   ZZ=           -242.3096
   XY=              2.7650   XZ=              3.6094   YZ=             -1.5158

 Summary of Natural Population Analysis:

                                       Natural Population
                Natural  -----------------------------------------------
    Atom  No    Charge         Core      Valence    Rydberg      Total
 -----------------------------------------------------------------------
      P    1    1.02431      9.99683     3.93348    0.04538    13.97569
      P    2    1.02948      9.99683     3.92768    0.04600    13.97052
      O    3   -0.47357      1.99976     6.45311    0.02070     8.47357
      C    4   -0.23962      1.99943     4.22302    0.01717     6.23962
      C    5   -0.59986      1.99935     4.59262    0.00789     6.59986
      C    6   -0.60949      1.99936     4.60100    0.00913     6.60949
      C    7   -0.60942      1.99934     4.60080    0.00928     6.60942
      C    8   -0.44542      1.99921     4.41992    0.02630     6.44542
      C    9   -0.25248      1.99940     4.23510    0.01798     6.25248
      C   10    0.28201      1.99865     3.69579    0.02354     5.71799
      C   11   -0.37254      1.99877     4.35054    0.02324     6.37254
      C   12   -0.61007      1.99935     4.60182    0.00890     6.61007
      C   13   -0.60325      1.99935     4.59396    0.00993     6.60325
      C   14   -0.24921      1.99941     4.23296    0.01684     6.24921
      C   15   -0.60432      1.99935     4.59656    0.00841     6.60432
      C   16   -0.60800      1.99935     4.59956    0.00909     6.60800
      C   17   -0.59730      1.99936     4.58940    0.00854     6.59730
      C   18   -0.19944      1.99909     4.18624    0.01411     6.19944
      C   19   -0.25328      1.99903     4.23928    0.01497     6.25328
      C   20   -0.15432      1.99921     4.14086    0.01426     6.15432
      C   21   -0.59979      1.99935     4.59224    0.00819     6.59979
      H   22    0.22135      0.00000     0.77719    0.00146     0.77865
      H   23    0.23391      0.00000     0.76454    0.00154     0.76609
      H   24    0.22343      0.00000     0.77549    0.00109     0.77657
      H   25    0.21573      0.00000     0.78272    0.00155     0.78427
      H   26    0.21018      0.00000     0.78810    0.00173     0.78982
      H   27    0.20657      0.00000     0.79193    0.00150     0.79343
      H   28    0.22889      0.00000     0.76700    0.00412     0.77111
      H   29    0.20035      0.00000     0.79794    0.00171     0.79965
      H   30    0.22495      0.00000     0.77338    0.00167     0.77505
      H   31    0.22911      0.00000     0.76866    0.00223     0.77089
      H   32    0.22395      0.00000     0.77436    0.00170     0.77605
      H   33    0.21968      0.00000     0.77823    0.00209     0.78032
      H   34    0.20724      0.00000     0.79125    0.00151     0.79276
      H   35    0.22141      0.00000     0.77675    0.00184     0.77859
      H   36    0.20529      0.00000     0.79317    0.00153     0.79471
      H   37    0.22414      0.00000     0.77400    0.00186     0.77586
      H   38    0.20583      0.00000     0.79246    0.00171     0.79417
      H   39    0.20342      0.00000     0.79487    0.00172     0.79658
      H   40    0.22051      0.00000     0.77772    0.00177     0.77949
      H   41    0.21080      0.00000     0.78754    0.00166     0.78920
      H   42    0.21994      0.00000     0.77822    0.00184     0.78006
      H   43    0.21924      0.00000     0.77902    0.00173     0.78076
      H   44    0.21553      0.00000     0.78280    0.00166     0.78447
      H   45    0.22156      0.00000     0.77655    0.00189     0.77844
      H   46    0.20136      0.00000     0.79684    0.00180     0.79864
      H   47    0.21385      0.00000     0.78424    0.00190     0.78615
      H   48    0.20270      0.00000     0.79576    0.00154     0.79730
      H   49    0.21698      0.00000     0.78110    0.00192     0.78302
      H   50    0.21613      0.00000     0.78194    0.00193     0.78387
      H   51    0.22393      0.00000     0.77391    0.00216     0.77607
      H   52    0.22193      0.00000     0.77620    0.00187     0.77807
     Rh   53   -0.30580     35.98562     9.29127    0.02891    45.30580
      C   54   -0.17459      1.99909     4.15596    0.01954     6.17459
      C   55   -0.17446      1.99910     4.15560    0.01976     6.17446
      C   56   -0.18286      1.99910     4.16401    0.01975     6.18286
      C   57   -0.16312      1.99910     4.14405    0.01998     6.16312
      H   58    0.21810      0.00000     0.77942    0.00247     0.78190
      C   59   -0.42375      1.99935     4.41240    0.01200     6.42375
      H   60    0.23648      0.00000     0.76126    0.00226     0.76352
      C   61   -0.41444      1.99934     4.40207    0.01303     6.41444
      C   62   -0.42181      1.99935     4.41073    0.01173     6.42181
      H   63    0.22102      0.00000     0.77674    0.00224     0.77898
      H   64    0.21818      0.00000     0.77936    0.00246     0.78182
      C   65   -0.41634      1.99934     4.40431    0.01268     6.41634
      H   66    0.21579      0.00000     0.78227    0.00194     0.78421
      H   67    0.22762      0.00000     0.77086    0.00152     0.77238
      H   68    0.23092      0.00000     0.76716    0.00191     0.76908
      H   69    0.21380      0.00000     0.78379    0.00241     0.78620
      H   70    0.22636      0.00000     0.77213    0.00150     0.77364
      H   71    0.21583      0.00000     0.78222    0.00194     0.78417
      H   72    0.23262      0.00000     0.76549    0.00189     0.76738
      H   73    0.21527      0.00000     0.78287    0.00186     0.78473
      C   74    0.02547      1.99899     3.95155    0.02399     5.97453
      C   75   -0.16390      1.99885     4.14272    0.02234     6.16390
      C   76    0.31640      1.99871     3.66390    0.02100     5.68360
      C   77    0.31331      1.99869     3.66675    0.02125     5.68669
      C   78   -0.31444      1.99908     4.30104    0.01432     6.31444
      C   79   -0.31838      1.99908     4.30486    0.01444     6.31838
      C   80   -0.15272      1.99923     4.13791    0.01558     6.15272
      H   81    0.22354      0.00000     0.77456    0.00190     0.77646
      H   82    0.22084      0.00000     0.77725    0.00191     0.77916
      H   83    0.21894      0.00000     0.77992    0.00115     0.78106
      O   84   -0.46563      1.99976     6.44981    0.01606     8.46563
      O   85   -0.46354      1.99977     6.44745    0.01632     8.46354
      C   86   -0.25700      1.99927     4.24449    0.01323     6.25700
      H   87    0.17425      0.00000     0.82362    0.00213     0.82575
      H   88    0.20349      0.00000     0.79529    0.00122     0.79651
      H   89    0.18288      0.00000     0.81510    0.00202     0.81712
      C   90   -0.25351      1.99927     4.24107    0.01317     6.25351
      H   91    0.19856      0.00000     0.79999    0.00145     0.80144
      H   92    0.16625      0.00000     0.83154    0.00220     0.83375
      H   93    0.18606      0.00000     0.81199    0.00195     0.81394
 =======================================================================
   * Total *    1.00000    131.94985   227.24462    0.80553   360.00000

 Normal termination of Gaussian 16 at Wed Jan 22 23:12:10 2025.
