 Gaussian 16, Revision B.01,
 Gaussian 16:  ES64L-G16RevB.01 20-Dec-2017

 ------------------------------------------
 # nmr=giao b3lyp/genecp pop=nbo scfcyc=200
 ------------------------------------------

 ---------
 MS-92_SPE
 ---------
 Symbolic Z-matrix:
 Charge =  1 Multiplicity = 1

                         Standard orientation:
 ---------------------------------------------------------------------
 Center     Atomic      Atomic             Coordinates (Angstroms)
 Number     Number       Type             X           Y           Z
 ---------------------------------------------------------------------
      1         15           0       -0.575850    1.493040    0.196399
      2         15           0       -0.493510   -1.232170   -0.534901
      3          6           0       -0.199770   -2.403850   -2.020991
      4          6           0       -0.629350   -1.660881   -3.294421
      5          6           0        1.268841   -2.824080   -2.127661
      6          6           0       -1.066899   -3.656501   -1.810671
      7          6           0        0.777360    0.158450   -0.396221
      8          6           0       -0.356791    2.022820    2.048739
      9          6           0        1.495270   -1.336790    1.261089
     10          6           0        0.278300   -1.982700    0.941989
     11          6           0        1.089509    2.327610    2.457699
     12          6           0       -0.870300    0.861829    2.920039
     13          6           0       -0.296941    2.991660   -1.013211
     14          6           0       -1.529941    3.913489   -1.029241
     15          6           0        0.944869    3.819430   -0.650121
     16          6           0       -0.141591    2.439740   -2.444371
     17          6           0        0.489981   -3.434180    2.854459
     18          6           0        2.177430   -1.748430    2.413349
     19          6           0        1.679701   -2.790430    3.185749
     20          6           0       -1.227021    3.262429    2.323269
     21          1           0        0.110061   -4.236860    3.472359
     22          1           0        3.082730   -1.251090    2.724959
     23          1           0        2.223931   -3.091010    4.072509
     24          1           0       -1.663990   -1.319271   -3.243971
     25          1           0       -1.834301    4.258229   -0.044321
     26          1           0       -2.378481    3.429899   -1.509721
     27          1           0        1.094590    0.516740   -1.364651
     28          1           0        0.002660   -0.792450   -3.491431
     29          1           0        1.617981   -3.319490   -1.221451
     30          1           0       -0.766099   -4.213321   -0.921961
     31          1           0        1.724300    1.452980    2.357569
     32          1           0       -0.256500   -0.031130    2.821909
     33          1           0        1.839909    3.209080   -0.534711
     34          1           0       -1.240161    3.438059    3.402219
     35          1           0       -2.261901    3.136919    2.003369
     36          1           0       -0.538380   -2.330890   -4.153261
     37          1           0        1.921080   -1.976420   -2.335501
     38          1           0        1.529989    3.144670    1.890839
     39          1           0        1.138389    4.535220   -1.454201
     40          1           0       -0.829241    4.162699    1.857199
     41          1           0        1.379131   -3.530340   -2.955461
     42          1           0        1.093519    2.624210    3.510759
     43          1           0        0.804109    4.394260    0.264049
     44          1           0       -0.217301    3.274830   -3.145371
     45          1           0        0.827089    1.973480   -2.622291
     46          1           0       -0.928731    1.726789   -2.697221
     47          1           0       -2.129679   -3.426731   -1.734011
     48          1           0       -0.940219   -4.322631   -2.668331
     49          1           0       -0.832600    1.173479    3.967529
     50          1           0       -1.898790    0.592369    2.682999
     51          1           0       -1.288571    4.798929   -1.623721
     52         45           0       -2.450550   -0.002861   -0.168631
     53          6           0       -4.041070   -1.320231   -1.113211
     54          6           0       -3.789690   -1.773881    0.167949
     55          6           0       -4.210000    0.987389    0.944879
     56          6           0       -4.184610    1.470329   -0.343171
     57          1           0       -3.511530   -1.812281   -1.919851
     58          6           0       -5.254650   -0.519182   -1.546011
     59          1           0       -3.118019   -2.619321    0.268509
     60          6           0       -4.608780   -1.496231    1.402779
     61          6           0       -5.164540   -0.060612    1.482689
     62          1           0       -3.713340    1.585679    1.698519
     63          1           0       -3.706281    2.428169   -0.492461
     64          6           0       -5.030150    1.005068   -1.500721
     65          1           0       -6.113980   -0.796172   -0.935711
     66          1           0       -5.510420   -0.803162   -2.568161
     67          1           0       -5.431460   -2.219012    1.472109
     68          1           0       -3.973550   -1.683381    2.271299
     69          1           0       -5.380210    0.171568    2.526989
     70          1           0       -6.116990    0.008858    0.957849
     71          1           0       -5.996630    1.524338   -1.485221
     72          1           0       -4.537560    1.321939   -2.422761
     73          6           0       -0.216999   -3.013510    1.735249
     74          1           0       -1.157969   -3.488371    1.487409
     75          7           0        1.889510   -0.290970    0.402129
     76          6           0        3.348080   -0.054160    0.019859
     77          6           0        4.128290   -1.390039   -0.063051
     78          6           0        3.452580    0.619520   -1.367111
     79          6           0        4.043170    0.880071    1.039379
     80          1           0        3.659380   -2.038649   -0.805041
     81          1           0        4.093110   -1.922499    0.885399
     82          6           0        5.602110   -1.142519   -0.439311
     83          1           0        2.928830    1.577650   -1.363911
     84          1           0        2.988100   -0.009590   -2.131591
     85          6           0        4.925410    0.867761   -1.755621
     86          1           0        3.984200    0.460421    2.045149
     87          1           0        3.520829    1.837980    1.065669
     88          6           0        5.519580    1.108831    0.662259
     89          1           0        6.115710   -2.106909   -0.469761
     90          6           0        5.675990   -0.470309   -1.817201
     91          6           0        6.258860   -0.238079    0.616409
     92          1           0        4.941540    1.348651   -2.737321
     93          6           0        5.588959    1.783921   -0.715851
     94          1           0        5.976049    1.756771    1.415059
     95          1           0        5.236320   -1.119989   -2.580641
     96          1           0        6.717510   -0.303149   -2.104931
     97          1           0        6.230240   -0.720169    1.598659
     98          1           0        7.313190   -0.080209    0.373129
     99          1           0        6.629039    1.973301   -0.994631
    100          1           0        5.086779    2.756321   -0.687531
 ---------------------------------------------------------------------

 SCF Done:  E(RB3LYP) =  -2293.92367110     A.U. after   16 cycles

      1  P    Isotropic =   236.5191   Anisotropy =    84.7904

      2  P    Isotropic =   273.8461   Anisotropy =   141.9033

      3  C    Isotropic =   134.1563   Anisotropy =    33.4764

      4  C    Isotropic =   156.0996   Anisotropy =    38.0977

      5  C    Isotropic =   155.6754   Anisotropy =    41.0043

      6  C    Isotropic =   160.0110   Anisotropy =    39.0490

      7  C    Isotropic =    98.2251   Anisotropy =    46.2996

      8  C    Isotropic =   131.0751   Anisotropy =    39.0266

      9  C    Isotropic =    22.3284   Anisotropy =   141.5181

     10  C    Isotropic =    53.8045   Anisotropy =   130.1315

     11  C    Isotropic =   155.1377   Anisotropy =    38.0413

     12  C    Isotropic =   149.7887   Anisotropy =    40.0960

     13  C    Isotropic =   131.0733   Anisotropy =    38.2208

     14  C    Isotropic =   152.6404   Anisotropy =    40.0419

     15  C    Isotropic =   154.4399   Anisotropy =    32.7523

     16  C    Isotropic =   152.0006   Anisotropy =    36.1022

     17  C    Isotropic =    57.3914   Anisotropy =   176.5056

     18  C    Isotropic =    59.9879   Anisotropy =   161.6531

     19  C    Isotropic =    46.2250   Anisotropy =   191.3093

     20  C    Isotropic =   152.7506   Anisotropy =    36.9362

     21  H    Isotropic =    24.5912   Anisotropy =     4.8817

     22  H    Isotropic =    24.4815   Anisotropy =     9.4178

     23  H    Isotropic =    24.1910   Anisotropy =     5.0973

     24  H    Isotropic =    30.4141   Anisotropy =     6.1053

     25  H    Isotropic =    30.3579   Anisotropy =     5.5198

     26  H    Isotropic =    30.5270   Anisotropy =     7.4205

     27  H    Isotropic =    25.3301   Anisotropy =     8.0243

     28  H    Isotropic =    30.7143   Anisotropy =     5.9192

     29  H    Isotropic =    31.0907   Anisotropy =     4.1470

     30  H    Isotropic =    30.7153   Anisotropy =     7.2546

     31  H    Isotropic =    30.0128   Anisotropy =    10.2122

     32  H    Isotropic =    31.7201   Anisotropy =    12.1258

     33  H    Isotropic =    30.1000   Anisotropy =     8.5947

     34  H    Isotropic =    31.0262   Anisotropy =    10.5029

     35  H    Isotropic =    31.1018   Anisotropy =     5.4097

     36  H    Isotropic =    30.7759   Anisotropy =    10.7539

     37  H    Isotropic =    30.9140   Anisotropy =     9.8914

     38  H    Isotropic =    30.4077   Anisotropy =     5.3295

     39  H    Isotropic =    30.6431   Anisotropy =     9.9831

     40  H    Isotropic =    30.5849   Anisotropy =     7.3746

     41  H    Isotropic =    30.9848   Anisotropy =    10.4014

     42  H    Isotropic =    31.0298   Anisotropy =     9.6762

     43  H    Isotropic =    30.2005   Anisotropy =     6.5382

     44  H    Isotropic =    30.7183   Anisotropy =     9.1794

     45  H    Isotropic =    30.2330   Anisotropy =     6.0933

     46  H    Isotropic =    30.1239   Anisotropy =     6.0059

     47  H    Isotropic =    31.2840   Anisotropy =     6.8808

     48  H    Isotropic =    31.1379   Anisotropy =    11.4944

     49  H    Isotropic =    31.4630   Anisotropy =     9.0937

     50  H    Isotropic =    30.2308   Anisotropy =     7.1711

     51  H    Isotropic =    30.8124   Anisotropy =    10.4931

     52  Rh   Isotropic =  -323.7246   Anisotropy =   354.3994

     53  C    Isotropic =    83.5700   Anisotropy =   116.9933

     54  C    Isotropic =    84.4751   Anisotropy =   107.7717

     55  C    Isotropic =    75.2742   Anisotropy =   127.9893

     56  C    Isotropic =    77.9893   Anisotropy =   118.2274

     57  H    Isotropic =    26.8775   Anisotropy =     5.8599

     58  C    Isotropic =   154.5051   Anisotropy =    25.2412

     59  H    Isotropic =    26.3419   Anisotropy =     4.4627

     60  C    Isotropic =   147.4057   Anisotropy =    30.3191

     61  C    Isotropic =   154.3320   Anisotropy =    25.7307

     62  H    Isotropic =    26.6988   Anisotropy =     4.9356

     63  H    Isotropic =    26.1235   Anisotropy =     4.6450

     64  C    Isotropic =   148.6447   Anisotropy =    28.7407

     65  H    Isotropic =    29.7333   Anisotropy =    10.0732

     66  H    Isotropic =    29.7935   Anisotropy =    11.5824

     67  H    Isotropic =    29.0760   Anisotropy =    12.9719

     68  H    Isotropic =    29.1587   Anisotropy =     6.8031

     69  H    Isotropic =    29.9178   Anisotropy =    11.4472

     70  H    Isotropic =    29.7754   Anisotropy =    10.0774

     71  H    Isotropic =    29.1657   Anisotropy =    13.0792

     72  H    Isotropic =    29.1142   Anisotropy =     7.1811

     73  C    Isotropic =    46.1748   Anisotropy =   182.8405

     74  H    Isotropic =    24.1967   Anisotropy =     8.5675

     75  N    Isotropic =   136.7638   Anisotropy =    86.4522

     76  C    Isotropic =   114.4393   Anisotropy =    66.9026

     77  C    Isotropic =   142.8799   Anisotropy =    17.9916

     78  C    Isotropic =   136.6200   Anisotropy =    10.0485

     79  C    Isotropic =   136.1210   Anisotropy =    16.1102

     80  H    Isotropic =    30.8434   Anisotropy =     7.2989

     81  H    Isotropic =    29.2089   Anisotropy =     8.3655

     82  C    Isotropic =   148.3487   Anisotropy =     9.5220

     83  H    Isotropic =    29.6591   Anisotropy =     9.1335

     84  H    Isotropic =    29.9956   Anisotropy =     6.8142

     85  C    Isotropic =   147.2216   Anisotropy =     9.8070

     86  H    Isotropic =    29.5183   Anisotropy =     4.2278

     87  H    Isotropic =    29.8280   Anisotropy =     7.6224

     88  C    Isotropic =   148.1398   Anisotropy =     9.6772

     89  H    Isotropic =    29.8537   Anisotropy =    10.8830

     90  C    Isotropic =   144.7326   Anisotropy =     6.6898

     91  C    Isotropic =   145.6751   Anisotropy =     6.0877

     92  H    Isotropic =    29.6486   Anisotropy =     9.6677

     93  C    Isotropic =   144.6835   Anisotropy =     7.6171

     94  H    Isotropic =    29.8102   Anisotropy =    10.7678

     95  H    Isotropic =    30.2986   Anisotropy =     8.0336

     96  H    Isotropic =    30.0755   Anisotropy =    10.5561

     97  H    Isotropic =    30.1502   Anisotropy =     9.2171

     98  H    Isotropic =    30.0954   Anisotropy =    10.8169

     99  H    Isotropic =    30.0568   Anisotropy =    10.3966

    100  H    Isotropic =    30.2082   Anisotropy =     7.4170

 The electronic state is 1-A.
 Alpha  occ. eigenvalues --  -77.22320 -77.22267 -14.44155 -10.33333 -10.32034
 Alpha  occ. eigenvalues --  -10.31838 -10.31153 -10.30683 -10.30618 -10.28838
 Alpha  occ. eigenvalues --  -10.28732 -10.28645 -10.28548 -10.28487 -10.28051
 Alpha  occ. eigenvalues --  -10.27387 -10.27293 -10.27257 -10.27120 -10.27089
 Alpha  occ. eigenvalues --  -10.27052 -10.26877 -10.26596 -10.26575 -10.26562
 Alpha  occ. eigenvalues --  -10.26541 -10.26510 -10.26432 -10.26365 -10.26165
 Alpha  occ. eigenvalues --  -10.25888 -10.25473 -10.25467 -10.25394 -10.25355
 Alpha  occ. eigenvalues --  -10.25333 -10.25128 -10.24366 -10.24244 -10.24105
 Alpha  occ. eigenvalues --   -6.68390  -6.68138  -4.84663  -4.84578  -4.84429
 Alpha  occ. eigenvalues --   -4.84322  -4.84304  -4.84058  -3.30961  -2.07847
 Alpha  occ. eigenvalues --   -2.07199  -2.04380  -1.05671  -0.96451  -0.94681
 Alpha  occ. eigenvalues --   -0.94303  -0.92920  -0.92393  -0.91188  -0.88942
 Alpha  occ. eigenvalues --   -0.87863  -0.87605  -0.86318  -0.85732  -0.85390
 Alpha  occ. eigenvalues --   -0.83939  -0.81295  -0.80242  -0.79708  -0.79485
 Alpha  occ. eigenvalues --   -0.79403  -0.79128  -0.78754  -0.78380  -0.77619
 Alpha  occ. eigenvalues --   -0.76087  -0.75761  -0.74367  -0.71885  -0.70726
 Alpha  occ. eigenvalues --   -0.70362  -0.69302  -0.67337  -0.67188  -0.66383
 Alpha  occ. eigenvalues --   -0.65858  -0.65495  -0.64395  -0.62549  -0.62253
 Alpha  occ. eigenvalues --   -0.62063  -0.60122  -0.59318  -0.58889  -0.57719
 Alpha  occ. eigenvalues --   -0.57224  -0.57116  -0.56445  -0.55933  -0.55753
 Alpha  occ. eigenvalues --   -0.55199  -0.55021  -0.54848  -0.54533  -0.54489
 Alpha  occ. eigenvalues --   -0.54313  -0.54112  -0.53746  -0.53488  -0.53416
 Alpha  occ. eigenvalues --   -0.53257  -0.52955  -0.52435  -0.52357  -0.51449
 Alpha  occ. eigenvalues --   -0.50572  -0.50225  -0.49993  -0.49911  -0.49735
 Alpha  occ. eigenvalues --   -0.49408  -0.49218  -0.48790  -0.48520  -0.48498
 Alpha  occ. eigenvalues --   -0.48133  -0.48087  -0.47871  -0.47772  -0.47532
 Alpha  occ. eigenvalues --   -0.47262  -0.47170  -0.46756  -0.46600  -0.46184
 Alpha  occ. eigenvalues --   -0.45875  -0.45797  -0.45271  -0.44958  -0.44606
 Alpha  occ. eigenvalues --   -0.44384  -0.44079  -0.43795  -0.43344  -0.43018
 Alpha  occ. eigenvalues --   -0.42603  -0.42499  -0.42365  -0.42059  -0.41986
 Alpha  occ. eigenvalues --   -0.41691  -0.41475  -0.41106  -0.40109  -0.40042
 Alpha  occ. eigenvalues --   -0.39053  -0.37971  -0.37335  -0.36941  -0.36609
 Alpha  occ. eigenvalues --   -0.36025  -0.35045  -0.34372  -0.33988  -0.33190
 Alpha  occ. eigenvalues --   -0.30434  -0.29683
 Alpha virt. eigenvalues --   -0.15800  -0.13754  -0.12108  -0.10846  -0.09461
 Alpha virt. eigenvalues --   -0.08695  -0.07849  -0.06917  -0.06622  -0.06339
 Alpha virt. eigenvalues --   -0.05876  -0.05773  -0.04867  -0.04761  -0.04350

 Mulliken charges:
               1
     1  P    0.437946
     2  P    0.267100
     3  C    0.017286
     4  C   -0.380186
     5  C   -0.386556
     6  C   -0.451545
     7  C   -0.472707
     8  C    0.015128
     9  C   -0.035162
    10  C   -0.083464
    11  C   -0.412641
    12  C   -0.418015
    13  C    0.017508
    14  C   -0.454404
    15  C   -0.415635
    16  C   -0.477627
    17  C   -0.080119
    18  C   -0.142520
    19  C   -0.108981
    20  C   -0.442043
    21  H    0.122959
    22  H    0.133954
    23  H    0.127712
    24  H    0.131965
    25  H    0.164386
    26  H    0.145415
    27  H    0.213470
    28  H    0.135733
    29  H    0.162279
    30  H    0.156471
    31  H    0.182026
    32  H    0.175344
    33  H    0.146692
    34  H    0.155761
    35  H    0.147911
    36  H    0.158066
    37  H    0.124396
    38  H    0.143095
    39  H    0.153216
    40  H    0.150778
    41  H    0.151625
    42  H    0.142609
    43  H    0.154538
    44  H    0.162112
    45  H    0.151516
    46  H    0.164431
    47  H    0.153678
    48  H    0.157927
    49  H    0.152165
    50  H    0.126512
    51  H    0.155552
    52  Rh  -0.510538
    53  C   -0.013604
    54  C   -0.118106
    55  C   -0.052209
    56  C   -0.086317
    57  H    0.162100
    58  C   -0.345796
    59  H    0.192998
    60  C   -0.226580
    61  C   -0.354996
    62  H    0.173537
    63  H    0.198145
    64  C   -0.229127
    65  H    0.169019
    66  H    0.167610
    67  H    0.169565
    68  H    0.132556
    69  H    0.166599
    70  H    0.168419
    71  H    0.170343
    72  H    0.129476
    73  C   -0.049612
    74  H    0.125206
    75  N    0.091184
    76  C   -0.018825
    77  C   -0.370692
    78  C   -0.458950
    79  C   -0.357113
    80  H    0.154775
    81  H    0.164693
    82  C    0.044671
    83  H    0.149872
    84  H    0.155881
    85  C    0.005540
    86  H    0.154320
    87  H    0.147065
    88  C    0.014335
    89  H    0.186607
    90  C   -0.381560
    91  C   -0.379454
    92  H    0.184399
    93  C   -0.377946
    94  H    0.186282
    95  H    0.132505
    96  H    0.157369
    97  H    0.133003
    98  H    0.157571
    99  H    0.158406
   100  H    0.129715
 Sum of Mulliken charges =   1.00000

 Dipole moment (field-independent basis, Debye):
    X=             -1.9368    Y=              0.5844    Z=             -0.6521  Tot=              2.1256
 Quadrupole moment (field-independent basis, Debye-Ang):
   XX=           -219.3563   YY=           -250.0106   ZZ=           -257.1488
   XY=              1.7975   XZ=              1.0484   YZ=             -0.8036

 Summary of Natural Population Analysis:

                                       Natural Population
                Natural  -----------------------------------------------
    Atom  No    Charge         Core      Valence    Rydberg      Total
 -----------------------------------------------------------------------
      P    1    1.01182      9.99683     3.94650    0.04486    13.98818
      P    2    1.09011      9.99661     3.86409    0.04919    13.90989
      C    3   -0.25966      1.99942     4.24278    0.01746     6.25966
      C    4   -0.59922      1.99936     4.59227    0.00759     6.59922
      C    5   -0.60546      1.99936     4.59641    0.00969     6.60546
      C    6   -0.60487      1.99935     4.59748    0.00804     6.60487
      C    7   -0.51731      1.99922     4.49285    0.02524     6.51731
      C    8   -0.25435      1.99939     4.23732    0.01765     6.25435
      C    9    0.18052      1.99883     3.79970    0.02095     5.81948
      C   10   -0.38588      1.99893     4.36312    0.02383     6.38588
      C   11   -0.60983      1.99934     4.60031    0.01017     6.60983
      C   12   -0.59758      1.99935     4.58886    0.00936     6.59758
      C   13   -0.24843      1.99940     4.23187    0.01716     6.24843
      C   14   -0.60295      1.99934     4.59496    0.00864     6.60295
      C   15   -0.60853      1.99934     4.59886    0.01033     6.60853
      C   16   -0.60483      1.99935     4.59685    0.00863     6.60483
      C   17   -0.22551      1.99919     4.21097    0.01535     6.22551
      C   18   -0.25088      1.99906     4.23740    0.01443     6.25088
      C   19   -0.16291      1.99921     4.14914    0.01456     6.16291
      C   20   -0.60306      1.99935     4.59528    0.00843     6.60306
      H   21    0.22304      0.00000     0.77577    0.00118     0.77696
      H   22    0.21878      0.00000     0.77904    0.00218     0.78122
      H   23    0.22158      0.00000     0.77728    0.00115     0.77842
      H   24    0.21426      0.00000     0.78417    0.00156     0.78574
      H   25    0.21354      0.00000     0.78481    0.00165     0.78646
      H   26    0.20789      0.00000     0.79052    0.00159     0.79211
      H   27    0.25088      0.00000     0.74518    0.00394     0.74912
      H   28    0.20578      0.00000     0.79267    0.00155     0.79422
      H   29    0.21821      0.00000     0.78008    0.00171     0.78179
      H   30    0.21558      0.00000     0.78292    0.00150     0.78442
      H   31    0.21942      0.00000     0.77856    0.00202     0.78058
      H   32    0.21952      0.00000     0.77820    0.00229     0.78048
      H   33    0.20165      0.00000     0.79587    0.00248     0.79835
      H   34    0.22310      0.00000     0.77495    0.00195     0.77690
      H   35    0.20531      0.00000     0.79307    0.00163     0.79469
      H   36    0.22220      0.00000     0.77598    0.00182     0.77780
      H   37    0.20080      0.00000     0.79697    0.00223     0.79920
      H   38    0.20721      0.00000     0.79110    0.00168     0.79279
      H   39    0.22038      0.00000     0.77775    0.00187     0.77962
      H   40    0.20736      0.00000     0.79086    0.00179     0.79264
      H   41    0.22120      0.00000     0.77694    0.00186     0.77880
      H   42    0.21655      0.00000     0.78160    0.00185     0.78345
      H   43    0.21016      0.00000     0.78804    0.00180     0.78984
      H   44    0.22479      0.00000     0.77336    0.00185     0.77521
      H   45    0.20012      0.00000     0.79843    0.00145     0.79988
      H   46    0.21879      0.00000     0.77972    0.00149     0.78121
      H   47    0.20661      0.00000     0.79173    0.00165     0.79339
      H   48    0.22422      0.00000     0.77390    0.00187     0.77578
      H   49    0.21686      0.00000     0.78123    0.00191     0.78314
      H   50    0.21563      0.00000     0.78260    0.00177     0.78437
      H   51    0.21998      0.00000     0.77815    0.00187     0.78002
     Rh   52   -0.34873     35.98593     9.33398    0.02882    45.34873
      C   53   -0.18216      1.99909     4.16351    0.01957     6.18216
      C   54   -0.17012      1.99910     4.15153    0.01949     6.17012
      C   55   -0.17186      1.99908     4.15280    0.01997     6.17186
      C   56   -0.17729      1.99910     4.15829    0.01990     6.17729
      H   57    0.21766      0.00000     0.77999    0.00235     0.78234
      C   58   -0.42193      1.99935     4.41055    0.01203     6.42193
      H   59    0.21724      0.00000     0.78060    0.00216     0.78276
      C   60   -0.41544      1.99934     4.40342    0.01267     6.41544
      C   61   -0.42515      1.99935     4.41374    0.01206     6.42515
      H   62    0.21943      0.00000     0.77828    0.00229     0.78057
      H   63    0.22345      0.00000     0.77440    0.00215     0.77655
      C   64   -0.41588      1.99934     4.40384    0.01270     6.41588
      H   65    0.21529      0.00000     0.78275    0.00197     0.78471
      H   66    0.22741      0.00000     0.77108    0.00151     0.77259
      H   67    0.23160      0.00000     0.76650    0.00190     0.76840
      H   68    0.21782      0.00000     0.78045    0.00174     0.78218
      H   69    0.22830      0.00000     0.77022    0.00148     0.77170
      H   70    0.21594      0.00000     0.78213    0.00193     0.78406
      H   71    0.23221      0.00000     0.76591    0.00188     0.76779
      H   72    0.21585      0.00000     0.78237    0.00178     0.78415
      C   73   -0.17375      1.99909     4.15823    0.01642     6.17375
      H   74    0.21149      0.00000     0.78647    0.00204     0.78851
      N   75   -0.46682      1.99938     5.43433    0.03311     7.46682
      C   76    0.19677      1.99920     3.78361    0.02042     5.80323
      C   77   -0.42162      1.99929     4.40985    0.01249     6.42162
      C   78   -0.41688      1.99930     4.40478    0.01280     6.41688
      C   79   -0.40942      1.99928     4.39885    0.01129     6.40942
      H   80    0.20657      0.00000     0.79141    0.00202     0.79343
      H   81    0.21452      0.00000     0.78319    0.00230     0.78548
      C   82   -0.20667      1.99938     4.19369    0.01359     6.20667
      H   83    0.19835      0.00000     0.79919    0.00246     0.80165
      H   84    0.19965      0.00000     0.79808    0.00228     0.80035
      C   85   -0.20097      1.99938     4.18917    0.01242     6.20097
      H   86    0.20009      0.00000     0.79794    0.00197     0.79991
      H   87    0.20301      0.00000     0.79479    0.00219     0.79699
      C   88   -0.21127      1.99938     4.19902    0.01286     6.21127
      H   89    0.21774      0.00000     0.78057    0.00168     0.78226
      C   90   -0.39089      1.99936     4.38121    0.01032     6.39089
      C   91   -0.39092      1.99936     4.38132    0.01024     6.39092
      H   92    0.21133      0.00000     0.78710    0.00157     0.78867
      C   93   -0.39045      1.99936     4.38086    0.01023     6.39045
      H   94    0.21669      0.00000     0.78159    0.00171     0.78331
      H   95    0.20081      0.00000     0.79770    0.00148     0.79919
      H   96    0.21172      0.00000     0.78660    0.00168     0.78828
      H   97    0.20202      0.00000     0.79644    0.00154     0.79798
      H   98    0.21104      0.00000     0.78728    0.00168     0.78896
      H   99    0.21231      0.00000     0.78598    0.00170     0.78769
      H  100    0.19930      0.00000     0.79915    0.00155     0.80070
 =======================================================================
   * Total *    1.00000    131.95169   229.26323    0.78508   362.00000

 Normal termination of Gaussian 16 at Wed Jan 22 23:04:38 2025.
