 Gaussian 16, Revision B.01,
 Gaussian 16:  ES64L-G16RevB.01 20-Dec-2017

 ------------------------------------------
 # nmr=giao b3lyp/genecp pop=nbo scfcyc=200
 ------------------------------------------

 ----------
 phPAMP_SPE
 ----------
 Symbolic Z-matrix:
 Charge =  1 Multiplicity = 1

                         Standard orientation:
 ---------------------------------------------------------------------
 Center     Atomic      Atomic             Coordinates (Angstroms)
 Number     Number       Type             X           Y           Z
 ---------------------------------------------------------------------
      1         15           0        1.166359    0.127639   -0.742941
      2         15           0       -1.621761    0.394790   -0.533971
      3          8           0        3.663599    0.316487    0.715599
      4          6           0        2.106460    1.671848   -0.402891
      5          6           0        3.306500    1.573047    0.330599
      6          6           0        4.050100    2.715257    0.617969
      7          1           0        4.977140    2.644266    1.168199
      8          6           0        3.591751    3.961927    0.202469
      9          1           0        4.175352    4.843757    0.434879
     10          6           0        2.400781    4.078478   -0.499751
     11          1           0        2.043162    5.048168   -0.819241
     12          6           0        1.666821    2.934868   -0.797491
     13          1           0        0.740841    3.043299   -1.344031
     14          6           0        4.946689    0.106736    1.311259
     15          1           0        5.029138   -0.966004    1.463829
     16          1           0        5.025099    0.618396    2.273479
     17          1           0        5.745469    0.442456    0.646579
     18          6           0        2.235328   -0.898842   -1.839871
     19          6           0        2.003267   -2.274552   -1.908671
     20          1           0        1.245857   -2.726431   -1.279301
     21          6           0        2.740967   -3.067212   -2.782261
     22          1           0        2.556146   -4.133202   -2.829121
     23          6           0        3.718387   -2.492053   -3.587431
     24          1           0        4.295787   -3.108963   -4.264391
     25          6           0        3.953358   -1.121673   -3.521511
     26          1           0        4.712388   -0.670513   -4.148391
     27          6           0        3.215349   -0.325053   -2.653201
     28          1           0        3.406999    0.739617   -2.610121
     29          6           0       -0.291851    0.594370   -1.832921
     30          1           0       -0.262500    1.552450   -2.349261
     31          1           0       -0.386611   -0.192350   -2.580911
     32         45           0       -0.238632   -0.804930    0.943729
     33          6           0        1.139247   -2.393051    1.860109
     34          6           0        1.251628   -1.225051    2.581269
     35          6           0       -1.666102   -1.253690    2.650859
     36          6           0       -1.771443   -2.246239    1.694599
     37          1           0        1.876237   -2.555722    1.081889
     38          6           0        0.331727   -3.609851    2.270569
     39          1           0        2.073998   -0.568442    2.318749
     40          6           0        0.554068   -0.889261    3.876089
     41          6           0       -0.911562   -1.368690    3.962619
     42          1           0       -2.398171   -0.454549    2.603459
     43          1           0       -2.588602   -2.164709    0.985319
     44          6           0       -1.112813   -3.603860    1.725109
     45          1           0        0.327047   -3.697231    3.356889
     46          1           0        0.836726   -4.504001    1.900959
     47          1           0        1.126818   -1.295041    4.719599
     48          1           0        0.582389    0.196269    3.994389
     49          1           0       -1.427112   -0.768430    4.714109
     50          1           0       -0.954793   -2.396790    4.321979
     51          1           0       -1.732304   -4.298170    2.306929
     52          1           0       -1.111974   -3.992800    0.704489
     53          6           0       -3.101211   -0.359259   -1.333111
     54          6           0       -2.947132   -1.427229   -2.224001
     55          6           0       -4.389681    0.047792   -0.974061
     56          6           0       -4.061302   -2.055108   -2.767401
     57          1           0       -1.960922   -1.780489   -2.499631
     58          6           0       -5.502062   -0.588757   -1.515781
     59          1           0       -4.531971    0.867812   -0.282511
     60          6           0       -5.341222   -1.636637   -2.415151
     61          1           0       -3.929363   -2.872248   -3.465441
     62          1           0       -6.494971   -0.260137   -1.235631
     63          1           0       -6.208302   -2.127127   -2.838881
     64          6           0       -2.112520    2.105051   -0.069951
     65          6           0       -1.928580    2.548261    1.240819
     66          6           0       -2.639119    2.982601   -1.025791
     67          6           0       -2.270559    3.850531    1.595289
     68          1           0       -1.509670    1.877660    1.980369
     69          6           0       -2.978009    4.281171   -0.668511
     70          1           0       -2.797310    2.652841   -2.045841
     71          6           0       -2.794828    4.715991    0.642829
     72          1           0       -2.125459    4.186751    2.614179
     73          1           0       -3.388248    4.953661   -1.411451
     74          1           0       -3.062248    5.728301    0.918679
 ---------------------------------------------------------------------

 SCF Done:  E(RB3LYP) =  -2186.17851847     A.U. after   16 cycles

      1  P    Isotropic =   327.2444   Anisotropy =   101.1331

      2  P    Isotropic =   313.2718   Anisotropy =   103.8120

      3  O    Isotropic =   208.8613   Anisotropy =   100.7263

      4  C    Isotropic =    62.6109   Anisotropy =   136.3225

      5  C    Isotropic =    15.4145   Anisotropy =   139.6061

      6  C    Isotropic =    69.4207   Anisotropy =   161.0794

      7  H    Isotropic =    25.0107   Anisotropy =     7.8994

      8  C    Isotropic =    44.4692   Anisotropy =   194.2220

      9  H    Isotropic =    24.1899   Anisotropy =     3.8392

     10  C    Isotropic =    57.6960   Anisotropy =   177.9782

     11  H    Isotropic =    24.9450   Anisotropy =     6.5223

     12  C    Isotropic =    48.0676   Anisotropy =   187.2378

     13  H    Isotropic =    25.1251   Anisotropy =     8.6618

     14  C    Isotropic =   128.5269   Anisotropy =    78.8857

     15  H    Isotropic =    28.3670   Anisotropy =     8.6616

     16  H    Isotropic =    28.2736   Anisotropy =    10.0086

     17  H    Isotropic =    28.6701   Anisotropy =    10.3644

     18  C    Isotropic =    41.3905   Anisotropy =   177.9783

     19  C    Isotropic =    47.1545   Anisotropy =   176.6720

     20  H    Isotropic =    23.3424   Anisotropy =     9.8702

     21  C    Isotropic =    49.0583   Anisotropy =   187.4006

     22  H    Isotropic =    23.9407   Anisotropy =     6.9654

     23  C    Isotropic =    45.9904   Anisotropy =   196.0890

     24  H    Isotropic =    24.0216   Anisotropy =     3.8276

     25  C    Isotropic =    48.5700   Anisotropy =   189.1687

     26  H    Isotropic =    24.3592   Anisotropy =     6.6762

     27  C    Isotropic =    49.5153   Anisotropy =   187.2614

     28  H    Isotropic =    24.9470   Anisotropy =    13.0573

     29  C    Isotropic =   129.5286   Anisotropy =    53.0752

     30  H    Isotropic =    27.9752   Anisotropy =     7.6767

     31  H    Isotropic =    28.0381   Anisotropy =     3.1070

     32  Rh   Isotropic =  -322.2664   Anisotropy =   365.7873

     33  C    Isotropic =    75.8691   Anisotropy =   126.8010

     34  C    Isotropic =    73.2892   Anisotropy =   124.8215

     35  C    Isotropic =    83.7970   Anisotropy =   114.2482

     36  C    Isotropic =    73.8407   Anisotropy =   120.7085

     37  H    Isotropic =    26.5321   Anisotropy =     4.8302

     38  C    Isotropic =   153.7093   Anisotropy =    25.0948

     39  H    Isotropic =    25.7996   Anisotropy =     6.8693

     40  C    Isotropic =   148.0067   Anisotropy =    29.0668

     41  C    Isotropic =   153.9709   Anisotropy =    24.5976

     42  H    Isotropic =    27.2069   Anisotropy =     6.4555

     43  H    Isotropic =    27.0996   Anisotropy =     4.4700

     44  C    Isotropic =   147.3997   Anisotropy =    29.7940

     45  H    Isotropic =    29.7317   Anisotropy =     9.4195

     46  H    Isotropic =    29.7245   Anisotropy =    11.2396

     47  H    Isotropic =    29.1531   Anisotropy =    12.3958

     48  H    Isotropic =    29.1521   Anisotropy =     7.2706

     49  H    Isotropic =    29.8454   Anisotropy =    11.6478

     50  H    Isotropic =    29.7726   Anisotropy =     9.5934

     51  H    Isotropic =    29.1980   Anisotropy =    12.3499

     52  H    Isotropic =    28.9969   Anisotropy =     7.3604

     53  C    Isotropic =    44.1430   Anisotropy =   170.0245

     54  C    Isotropic =    49.8302   Anisotropy =   187.3927

     55  C    Isotropic =    47.2543   Anisotropy =   190.8285

     56  C    Isotropic =    48.9423   Anisotropy =   189.4698

     57  H    Isotropic =    23.9774   Anisotropy =    10.7143

     58  C    Isotropic =    48.6954   Anisotropy =   190.1027

     59  H    Isotropic =    24.9929   Anisotropy =    12.6733

     60  C    Isotropic =    46.5218   Anisotropy =   195.6496

     61  H    Isotropic =    24.0246   Anisotropy =     6.7905

     62  H    Isotropic =    24.3391   Anisotropy =     6.4582

     63  H    Isotropic =    24.0974   Anisotropy =     3.7689

     64  C    Isotropic =    45.7161   Anisotropy =   173.9025

     65  C    Isotropic =    40.7778   Anisotropy =   182.6032

     66  C    Isotropic =    46.3956   Anisotropy =   189.1006

     67  C    Isotropic =    49.4670   Anisotropy =   188.8059

     68  H    Isotropic =    23.5116   Anisotropy =     9.3733

     69  C    Isotropic =    47.7782   Anisotropy =   191.4327

     70  H    Isotropic =    24.2755   Anisotropy =    11.6508

     71  C    Isotropic =    44.6933   Anisotropy =   199.3393

     72  H    Isotropic =    24.1940   Anisotropy =     6.5883

     73  H    Isotropic =    24.0150   Anisotropy =     5.7248

     74  H    Isotropic =    23.9111   Anisotropy =     3.4456

 The electronic state is 1-A.
 Alpha  occ. eigenvalues --  -77.23650 -77.23618 -19.26415 -10.34416 -10.32106
 Alpha  occ. eigenvalues --  -10.29985 -10.29523 -10.29515 -10.29307 -10.29087
 Alpha  occ. eigenvalues --  -10.28834 -10.28563 -10.28490 -10.28476 -10.28431
 Alpha  occ. eigenvalues --  -10.28369 -10.28364 -10.28277 -10.27999 -10.27895
 Alpha  occ. eigenvalues --  -10.27752 -10.27699 -10.27678 -10.27676 -10.27600
 Alpha  occ. eigenvalues --  -10.27438 -10.27435 -10.27319 -10.27301 -10.27263
 Alpha  occ. eigenvalues --  -10.27259 -10.27224 -10.27143 -10.27085 -10.27084
 Alpha  occ. eigenvalues --  -10.27043 -10.26762  -6.69608  -6.69568  -4.85887
 Alpha  occ. eigenvalues --   -4.85869  -4.85835  -4.85791  -4.85506  -4.85459
 Alpha  occ. eigenvalues --   -3.31338  -2.08228  -2.07559  -2.04810  -1.17436
 Alpha  occ. eigenvalues --   -0.96798  -0.96385  -0.96046  -0.95800  -0.94148
 Alpha  occ. eigenvalues --   -0.89554  -0.88831  -0.87760  -0.87404  -0.85853
 Alpha  occ. eigenvalues --   -0.85363  -0.85253  -0.85112  -0.84837  -0.84769
 Alpha  occ. eigenvalues --   -0.83594  -0.80054  -0.79911  -0.77525  -0.75633
 Alpha  occ. eigenvalues --   -0.73495  -0.71260  -0.71036  -0.70812  -0.70419
 Alpha  occ. eigenvalues --   -0.70296  -0.70197  -0.69667  -0.67016  -0.66624
 Alpha  occ. eigenvalues --   -0.65532  -0.63691  -0.62458  -0.62260  -0.61547
 Alpha  occ. eigenvalues --   -0.60692  -0.59858  -0.58968  -0.58144  -0.57419
 Alpha  occ. eigenvalues --   -0.56628  -0.56368  -0.56147  -0.56004  -0.55672
 Alpha  occ. eigenvalues --   -0.55573  -0.55444  -0.55341  -0.54780  -0.54252
 Alpha  occ. eigenvalues --   -0.53408  -0.53212  -0.52772  -0.52523  -0.52423
 Alpha  occ. eigenvalues --   -0.52292  -0.52235  -0.52174  -0.51164  -0.49981
 Alpha  occ. eigenvalues --   -0.48934  -0.48733  -0.48410  -0.47880  -0.47738
 Alpha  occ. eigenvalues --   -0.47448  -0.47158  -0.46735  -0.46328  -0.45929
 Alpha  occ. eigenvalues --   -0.45738  -0.45410  -0.45116  -0.44907  -0.44619
 Alpha  occ. eigenvalues --   -0.43833  -0.43458  -0.43442  -0.42976  -0.42863
 Alpha  occ. eigenvalues --   -0.42474  -0.42208  -0.41176  -0.37898  -0.37362
 Alpha  occ. eigenvalues --   -0.36756  -0.36263  -0.35853  -0.35717  -0.35580
 Alpha  occ. eigenvalues --   -0.35436  -0.34999  -0.34489  -0.34184  -0.33703
 Alpha  occ. eigenvalues --   -0.32794  -0.30520
 Alpha virt. eigenvalues --   -0.16204  -0.14710  -0.13568  -0.12912  -0.12421
 Alpha virt. eigenvalues --   -0.12006  -0.11435  -0.10822  -0.10472  -0.10014
 Alpha virt. eigenvalues --   -0.08953  -0.07406  -0.06326  -0.06218  -0.05947

 Mulliken charges:
               1
     1  P    0.412022
     2  P    0.392051
     3  O   -0.253520
     4  C   -0.202163
     5  C    0.107289
     6  C   -0.098633
     7  H    0.151241
     8  C   -0.117008
     9  H    0.133791
    10  C   -0.100123
    11  H    0.127870
    12  C   -0.035223
    13  H    0.126703
    14  C   -0.230052
    15  H    0.156235
    16  H    0.144415
    17  H    0.150187
    18  C   -0.220182
    19  C   -0.075004
    20  H    0.177882
    21  C   -0.103765
    22  H    0.129110
    23  C   -0.093143
    24  H    0.137479
    25  C   -0.094290
    26  H    0.133889
    27  C   -0.062544
    28  H    0.155861
    29  C   -0.594510
    30  H    0.207818
    31  H    0.225376
    32  Rh  -0.557145
    33  C   -0.083236
    34  C   -0.068469
    35  C   -0.034768
    36  C   -0.095261
    37  H    0.199333
    38  C   -0.345303
    39  H    0.212814
    40  C   -0.216236
    41  C   -0.353255
    42  H    0.186545
    43  H    0.212468
    44  C   -0.227032
    45  H    0.166022
    46  H    0.166547
    47  H    0.168222
    48  H    0.130758
    49  H    0.167412
    50  H    0.166111
    51  H    0.170462
    52  H    0.128278
    53  C   -0.179935
    54  C   -0.074791
    55  C   -0.064681
    56  C   -0.103167
    57  H    0.134324
    58  C   -0.099919
    59  H    0.158972
    60  C   -0.096220
    61  H    0.131870
    62  H    0.135695
    63  H    0.140029
    64  C   -0.286365
    65  C   -0.002285
    66  C   -0.094705
    67  C   -0.119764
    68  H    0.156814
    69  C   -0.086836
    70  H    0.150624
    71  C   -0.091533
    72  H    0.130821
    73  H    0.137287
    74  H    0.140440
 Sum of Mulliken charges =   1.00000

 Dipole moment (field-independent basis, Debye):
    X=              0.8294    Y=              0.3675    Z=              0.2657  Tot=              0.9453
 Quadrupole moment (field-independent basis, Debye-Ang):
   XX=           -185.6966   YY=           -200.9979   ZZ=           -217.0632
   XY=             -0.8180   XZ=              4.9246   YZ=              3.4945

 Summary of Natural Population Analysis:

                                       Natural Population
                Natural  -----------------------------------------------
    Atom  No    Charge         Core      Valence    Rydberg      Total
 -----------------------------------------------------------------------
      P    1    1.11576      9.99658     3.83605    0.05161    13.88424
      P    2    1.12988      9.99644     3.82308    0.05060    13.87012
      O    3   -0.46755      1.99976     6.45216    0.01562     8.46755
      C    4   -0.38017      1.99890     4.35694    0.02433     6.38017
      C    5    0.29698      1.99869     3.68171    0.02263     5.70302
      C    6   -0.28271      1.99907     4.26983    0.01380     6.28271
      H    7    0.22560      0.00000     0.77253    0.00187     0.77440
      C    8   -0.15702      1.99922     4.14270    0.01510     6.15702
      H    9    0.22257      0.00000     0.77630    0.00114     0.77743
      C   10   -0.22388      1.99919     4.20950    0.01519     6.22388
      H   11    0.22309      0.00000     0.77571    0.00120     0.77691
      C   12   -0.17101      1.99912     4.15624    0.01565     6.17101
      H   13    0.21088      0.00000     0.78675    0.00237     0.78912
      C   14   -0.25656      1.99927     4.24427    0.01302     6.25656
      H   15    0.20496      0.00000     0.79379    0.00125     0.79504
      H   16    0.17914      0.00000     0.81887    0.00199     0.82086
      H   17    0.18574      0.00000     0.81233    0.00193     0.81426
      C   18   -0.32635      1.99898     4.30319    0.02417     6.32635
      C   19   -0.19974      1.99909     4.18531    0.01534     6.19974
      H   20    0.21720      0.00000     0.78087    0.00193     0.78280
      C   21   -0.19530      1.99920     4.18144    0.01466     6.19530
      H   22    0.21969      0.00000     0.77908    0.00124     0.78031
      C   23   -0.18126      1.99921     4.16742    0.01464     6.18126
      H   24    0.22204      0.00000     0.77678    0.00119     0.77796
      C   25   -0.19007      1.99920     4.17633    0.01454     6.19007
      H   26    0.22171      0.00000     0.77706    0.00123     0.77829
      C   27   -0.19065      1.99909     4.17551    0.01605     6.19065
      H   28    0.22071      0.00000     0.77746    0.00183     0.77929
      C   29   -0.97100      1.99942     4.95386    0.01773     6.97100
      H   30    0.25283      0.00000     0.74516    0.00201     0.74717
      H   31    0.26546      0.00000     0.73312    0.00142     0.73454
     Rh   32   -0.39322     35.98562     9.37874    0.02886    45.39322
      C   33   -0.17196      1.99906     4.15337    0.01953     6.17196
      C   34   -0.16561      1.99907     4.14669    0.01984     6.16561
      C   35   -0.18644      1.99906     4.16788    0.01950     6.18644
      C   36   -0.14897      1.99907     4.13028    0.01961     6.14897
      H   37    0.22872      0.00000     0.76910    0.00219     0.77128
      C   38   -0.42526      1.99936     4.41404    0.01186     6.42526
      H   39    0.24096      0.00000     0.75670    0.00234     0.75904
      C   40   -0.41911      1.99935     4.40725    0.01250     6.41911
      C   41   -0.42232      1.99936     4.41120    0.01176     6.42232
      H   42    0.22449      0.00000     0.77356    0.00195     0.77551
      H   43    0.23115      0.00000     0.76690    0.00196     0.76885
      C   44   -0.41758      1.99935     4.40562    0.01261     6.41758
      H   45    0.21442      0.00000     0.78359    0.00199     0.78558
      H   46    0.22686      0.00000     0.77164    0.00150     0.77314
      H   47    0.23252      0.00000     0.76557    0.00191     0.76748
      H   48    0.21514      0.00000     0.78331    0.00155     0.78486
      H   49    0.22714      0.00000     0.77137    0.00149     0.77286
      H   50    0.21421      0.00000     0.78379    0.00200     0.78579
      H   51    0.23329      0.00000     0.76480    0.00191     0.76671
      H   52    0.21504      0.00000     0.78340    0.00156     0.78496
      C   53   -0.34179      1.99900     4.31928    0.02351     6.34179
      C   54   -0.19731      1.99909     4.18293    0.01528     6.19731
      C   55   -0.19565      1.99910     4.18134    0.01521     6.19565
      C   56   -0.19062      1.99920     4.17667    0.01475     6.19062
      H   57    0.20819      0.00000     0.78968    0.00214     0.79181
      C   58   -0.18889      1.99920     4.17497    0.01472     6.18889
      H   59    0.22267      0.00000     0.77562    0.00171     0.77733
      C   60   -0.18083      1.99920     4.16691    0.01471     6.18083
      H   61    0.22174      0.00000     0.77703    0.00123     0.77826
      H   62    0.22305      0.00000     0.77573    0.00121     0.77695
      H   63    0.22324      0.00000     0.77559    0.00117     0.77676
      C   64   -0.34944      1.99900     4.32626    0.02418     6.34944
      C   65   -0.17877      1.99909     4.16425    0.01542     6.17877
      C   66   -0.19431      1.99909     4.17928    0.01594     6.19431
      C   67   -0.19539      1.99920     4.18160    0.01459     6.19539
      H   68    0.22200      0.00000     0.77602    0.00198     0.77800
      C   69   -0.19398      1.99920     4.18010    0.01468     6.19398
      H   70    0.21806      0.00000     0.77993    0.00201     0.78194
      C   71   -0.17499      1.99921     4.16121    0.01457     6.17499
      H   72    0.22180      0.00000     0.77698    0.00122     0.77820
      H   73    0.22362      0.00000     0.77514    0.00124     0.77638
      H   74    0.22310      0.00000     0.77572    0.00117     0.77690
 =======================================================================
   * Total *    1.00000    125.94932   195.28236    0.76832   322.00000

 Normal termination of Gaussian 16 at Thu Jan 30 10:50:56 2025.
