 Gaussian 16, Revision B.01,
 Gaussian 16:  ES64L-G16RevB.01 20-Dec-2017

 -----------------------------------------------------
 # opt freq b3lyp/genecp pop=npa optcyc=200 scfcyc=200
 -----------------------------------------------------

 -----
 MB-27
 -----
 Symbolic Z-matrix:
 Charge =  1 Multiplicity = 1

 SCF Done:  E(RB3LYP) =  -2495.71623459     A.U. after   16 cycles
 SCF Done:  E(RB3LYP) =  -2495.72616032     A.U. after   11 cycles
 SCF Done:  E(RB3LYP) =  -2495.72804066     A.U. after   11 cycles
 SCF Done:  E(RB3LYP) =  -2495.72835532     A.U. after   11 cycles
 SCF Done:  E(RB3LYP) =  -2495.72856724     A.U. after   12 cycles
 SCF Done:  E(RB3LYP) =  -2495.72865414     A.U. after   11 cycles
 SCF Done:  E(RB3LYP) =  -2495.72870483     A.U. after   11 cycles
 SCF Done:  E(RB3LYP) =  -2495.72872977     A.U. after   11 cycles
 SCF Done:  E(RB3LYP) =  -2495.72873879     A.U. after   10 cycles
 SCF Done:  E(RB3LYP) =  -2495.72874099     A.U. after   10 cycles
 SCF Done:  E(RB3LYP) =  -2495.72874541     A.U. after   10 cycles
 SCF Done:  E(RB3LYP) =  -2495.72874625     A.U. after   10 cycles
 SCF Done:  E(RB3LYP) =  -2495.72874685     A.U. after   10 cycles
 SCF Done:  E(RB3LYP) =  -2495.72874737     A.U. after    8 cycles
 SCF Done:  E(RB3LYP) =  -2495.72874761     A.U. after    8 cycles
 SCF Done:  E(RB3LYP) =  -2495.72874777     A.U. after    8 cycles
 SCF Done:  E(RB3LYP) =  -2495.72874790     A.U. after    8 cycles
 SCF Done:  E(RB3LYP) =  -2495.72874800     A.U. after    8 cycles
 SCF Done:  E(RB3LYP) =  -2495.72874804     A.U. after    7 cycles
 Optimization completed.
    -- Stationary point found.
 Normal termination of Gaussian 16 at Sun Dec 15 23:33:35 2024.

 ------------------------------------------------------------------
 #N Geom=AllCheck Guess=TCheck SCRF=Check GenChk RB3LYP/GenECP Freq
 ------------------------------------------------------------------

 Structure from the checkpoint file:  "/scratch/3311770.1.iqtc08.q/Gau-28581.chk"
 -----
 MB-27
 -----
 Charge =  1 Multiplicity = 1

                         Standard orientation:
 ---------------------------------------------------------------------
 Center     Atomic      Atomic             Coordinates (Angstroms)
 Number     Number       Type             X           Y           Z
 ---------------------------------------------------------------------
      1         15           0        1.364176   -0.874200    0.019412
      2         15           0       -1.364590   -0.873774   -0.016990
      3          6           0        2.451954   -1.332287    1.536506
      4          6           0       -2.510586   -1.356030    1.448901
      5          6           0       -0.000429   -2.152068    0.003541
      6          1           0       -0.012879   -2.785064    0.891626
      7          1           0        0.011796   -2.790084   -0.880911
      8          6           0       -2.448558   -1.333694   -1.536229
      9          6           0        2.506266   -1.358860   -1.448713
     10         45           0        0.000165    0.995282    0.000782
     11          6           0        1.450131    2.695463    0.614061
     12          6           0        1.499875    2.549230   -0.753947
     13          6           0       -1.449222    2.694869   -0.616327
     14          6           0       -1.499030    2.551436    0.751957
     15          6           0        0.686088    3.763853    1.370838
     16          1           0        2.204003    2.165991    1.187612
     17          1           0        2.313990    1.953196   -1.154915
     18          6           0        0.741492    3.339268   -1.788191
     19          6           0       -0.684685    3.761346   -1.375271
     20          1           0       -2.203234    2.164488   -1.188849
     21          6           0       -0.740318    3.343321    1.784566
     22          1           0       -2.313316    1.956454    1.154139
     23          1           0        1.245330    4.002973    2.276064
     24          1           0        0.659911    4.678973    0.780966
     25          1           0        1.326499    4.227045   -2.058162
     26          1           0        0.689971    2.734987   -2.696090
     27          1           0       -0.658023    4.677622   -0.787225
     28          1           0       -1.243838    3.998934   -2.280957
     29          1           0       -0.689117    2.740930    2.693740
     30          1           0       -1.324911    4.231937    2.052661
     31          9           0        2.927792   -2.621811   -1.382140
     32          9           0        3.567410   -0.544305   -1.482365
     33          9           0        1.806225   -1.203962   -2.582732
     34          9           0       -1.686919   -1.218345   -2.634718
     35          9           0       -2.920907   -2.579171   -1.478810
     36          9           0       -3.474636   -0.480682   -1.630693
     37          9           0       -3.568448   -0.537169    1.482179
     38          9           0       -2.937216   -2.617097    1.380269
     39          9           0       -1.811346   -1.205269    2.584012
     40          9           0        1.691367   -1.220922    2.636177
     41          9           0        2.928873   -2.575875    1.477017
     42          9           0        3.474995   -0.475565    1.630541
 ---------------------------------------------------------------------

 SCF Done:  E(RB3LYP) =  -2495.72874804     A.U. after    1 cycles

 The electronic state is 1-A.
 Alpha  occ. eigenvalues --  -77.32014 -77.32013 -24.86873 -24.86872 -24.86836
 Alpha  occ. eigenvalues --  -24.86835 -24.86815 -24.86815 -24.86815 -24.86813
 Alpha  occ. eigenvalues --  -24.86729 -24.86728 -24.86699 -24.86697 -10.58547
 Alpha  occ. eigenvalues --  -10.58547 -10.58523 -10.58523 -10.38045 -10.34360
 Alpha  occ. eigenvalues --  -10.34357 -10.34200 -10.34198 -10.31746 -10.31745
 Alpha  occ. eigenvalues --  -10.31477 -10.31477  -6.78109  -6.78108  -4.94377
 Alpha  occ. eigenvalues --   -4.94374  -4.94355  -4.94355  -4.93935  -4.93934
 Alpha  occ. eigenvalues --   -3.38367  -2.15542  -2.14620  -2.11545  -1.47307
 Alpha  occ. eigenvalues --   -1.47299  -1.47092  -1.47085  -1.38548  -1.38546
 Alpha  occ. eigenvalues --   -1.38426  -1.38408  -1.38387  -1.38382  -1.38265
 Alpha  occ. eigenvalues --   -1.38252  -0.99240  -0.96964  -0.94240  -0.92447
 Alpha  occ. eigenvalues --   -0.91013  -0.86872  -0.85894  -0.85818  -0.84991
 Alpha  occ. eigenvalues --   -0.82451  -0.81070  -0.79239  -0.75151  -0.75132
 Alpha  occ. eigenvalues --   -0.75109  -0.75056  -0.74945  -0.74883  -0.74808
 Alpha  occ. eigenvalues --   -0.74635  -0.74613  -0.73545  -0.73068  -0.70383
 Alpha  occ. eigenvalues --   -0.69874  -0.66961  -0.65372  -0.64586  -0.62683
 Alpha  occ. eigenvalues --   -0.62678  -0.62433  -0.62388  -0.62343  -0.62018
 Alpha  occ. eigenvalues --   -0.61985  -0.61896  -0.61856  -0.61339  -0.60508
 Alpha  occ. eigenvalues --   -0.59699  -0.59622  -0.59452  -0.59193  -0.58409
 Alpha  occ. eigenvalues --   -0.58237  -0.58105  -0.58028  -0.57905  -0.57319
 Alpha  occ. eigenvalues --   -0.56938  -0.56810  -0.56622  -0.56594  -0.56262
 Alpha  occ. eigenvalues --   -0.56229  -0.53596  -0.52479  -0.52072  -0.51060
 Alpha  occ. eigenvalues --   -0.50843  -0.50795  -0.50477  -0.50047  -0.48569
 Alpha  occ. eigenvalues --   -0.47667  -0.46936  -0.42954  -0.42640  -0.41920
 Alpha  occ. eigenvalues --   -0.41435  -0.40307  -0.37336
 Alpha virt. eigenvalues --   -0.23270  -0.21572  -0.16678  -0.14779  -0.14634
 Alpha virt. eigenvalues --   -0.14064  -0.12646  -0.11830  -0.10227  -0.08940
 Alpha virt. eigenvalues --   -0.08587  -0.08147  -0.06824  -0.06772  -0.06388

 Mulliken charges:
               1
     1  P    0.246370
     2  P    0.246348
     3  C    0.399402
     4  C    0.392988
     5  C   -0.609894
     6  H    0.264443
     7  H    0.264449
     8  C    0.399253
     9  C    0.392830
    10  Rh  -0.490732
    11  C    0.011594
    12  C   -0.095992
    13  C    0.011255
    14  C   -0.095586
    15  C   -0.355033
    16  H    0.202742
    17  H    0.210246
    18  C   -0.227736
    19  C   -0.355033
    20  H    0.202667
    21  C   -0.227739
    22  H    0.210284
    23  H    0.190007
    24  H    0.178577
    25  H    0.196561
    26  H    0.155587
    27  H    0.178581
    28  H    0.190002
    29  H    0.155580
    30  H    0.196567
    31  F   -0.107405
    32  F   -0.124224
    33  F   -0.128216
    34  F   -0.128430
    35  F   -0.107247
    36  F   -0.123788
    37  F   -0.124269
    38  F   -0.107293
    39  F   -0.128267
    40  F   -0.128483
    41  F   -0.107144
    42  F   -0.123820
 Sum of Mulliken charges =   1.00000

 Dipole moment (field-independent basis, Debye):
    X=              0.0007    Y=              5.2479    Z=              0.0024  Tot=              5.2479
 Quadrupole moment (field-independent basis, Debye-Ang):
   XX=           -175.1491   YY=           -142.0535   ZZ=           -176.1513
   XY=              0.0055   XZ=             -0.4675   YZ=             -0.0286

  Exact polarizability: 230.137   0.007 270.025  -2.193  -0.029 200.550
 Approx polarizability: 376.425   0.008 412.649  -3.891  -0.036 347.492

 Summary of Natural Population Analysis:

                                       Natural Population
                Natural  -----------------------------------------------
    Atom  No    Charge         Core      Valence    Rydberg      Total
 -----------------------------------------------------------------------
      P    1    0.87902      9.99592     4.07214    0.05291    14.12098
      P    2    0.87896      9.99593     4.07221    0.05291    14.12104
      C    3    0.75227      1.99965     3.18840    0.05968     5.24773
      C    4    0.75169      1.99965     3.18901    0.05965     5.24831
      C    5   -0.97078      1.99942     4.95481    0.01655     6.97078
      H    6    0.29604      0.00000     0.70242    0.00155     0.70396
      H    7    0.29599      0.00000     0.70246    0.00155     0.70401
      C    8    0.75226      1.99965     3.18841    0.05968     5.24774
      C    9    0.75169      1.99965     3.18901    0.05966     5.24831
     Rh   10   -0.46295     35.98536     9.45091    0.02669    45.46295
      C   11   -0.14486      1.99907     4.12467    0.02112     6.14486
      C   12   -0.13588      1.99908     4.11513    0.02167     6.13588
      C   13   -0.14464      1.99907     4.12444    0.02112     6.14464
      C   14   -0.13610      1.99908     4.11535    0.02167     6.13610
      C   15   -0.42915      1.99936     4.41782    0.01197     6.42915
      H   16    0.23989      0.00000     0.75858    0.00153     0.76011
      H   17    0.24027      0.00000     0.75818    0.00156     0.75973
      C   18   -0.43098      1.99935     4.41885    0.01278     6.43098
      C   19   -0.42918      1.99936     4.41785    0.01197     6.42918
      H   20    0.23984      0.00000     0.75863    0.00153     0.76016
      C   21   -0.43097      1.99935     4.41884    0.01278     6.43097
      H   22    0.24032      0.00000     0.75812    0.00155     0.75968
      H   23    0.24216      0.00000     0.75647    0.00136     0.75784
      H   24    0.21965      0.00000     0.77840    0.00196     0.78035
      H   25    0.25064      0.00000     0.74770    0.00166     0.74936
      H   26    0.23107      0.00000     0.76741    0.00151     0.76893
      H   27    0.21965      0.00000     0.77839    0.00196     0.78035
      H   28    0.24217      0.00000     0.75647    0.00136     0.75783
      H   29    0.23106      0.00000     0.76743    0.00151     0.76894
      H   30    0.25064      0.00000     0.74770    0.00166     0.74936
      F   31   -0.28450      1.99992     7.27508    0.00950     9.28450
      F   32   -0.29265      1.99992     7.28344    0.00930     9.29265
      F   33   -0.29559      1.99992     7.28660    0.00907     9.29559
      F   34   -0.29562      1.99992     7.28658    0.00911     9.29562
      F   35   -0.28468      1.99992     7.27527    0.00949     9.28468
      F   36   -0.29184      1.99992     7.28272    0.00920     9.29184
      F   37   -0.29267      1.99992     7.28346    0.00930     9.29267
      F   38   -0.28444      1.99992     7.27502    0.00950     9.28444
      F   39   -0.29565      1.99992     7.28665    0.00907     9.29565
      F   40   -0.29567      1.99992     7.28664    0.00912     9.29567
      F   41   -0.28462      1.99992     7.27521    0.00949     9.28462
      F   42   -0.29186      1.99992     7.28274    0.00920     9.29186
 =======================================================================
   * Total *    1.00000    105.96797   167.37563    0.65641   274.00000

                      1                      2                      3
                      A                      A                      A
 Frequencies --     11.5242                11.8059                14.6191
 Red. masses --     13.5353                17.9189                17.2394
 Frc consts  --      0.0011                 0.0015                 0.0022
 IR Inten    --      0.6504                 0.0860                 0.2899

                      4                      5                      6
                      A                      A                      A
 Frequencies --     24.9429                25.2607                37.0002
 Red. masses --      7.0912                 4.9422                18.3222
 Frc consts  --      0.0026                 0.0019                 0.0148
 IR Inten    --      0.0803                 0.0066                 0.6997

                      7                      8                      9
                      A                      A                      A
 Frequencies --     38.1926                48.1771                55.7848
 Red. masses --     13.0755                11.2134                 8.1934
 Frc consts  --      0.0112                 0.0153                 0.0150
 IR Inten    --      0.3542                 0.0047                 0.1497

                     10                     11                     12
                      A                      A                      A
 Frequencies --     67.2669                87.8938                88.7580
 Red. masses --     15.4097                14.3669                15.2016
 Frc consts  --      0.0411                 0.0654                 0.0706
 IR Inten    --      2.3917                 1.9823                 0.5108

                     13                     14                     15
                      A                      A                      A
 Frequencies --     90.7484                98.6272               145.2168
 Red. masses --      9.6188                15.8188                 5.2078
 Frc consts  --      0.0467                 0.0907                 0.0647
 IR Inten    --      0.5092                 3.4951                 1.4453

                     16                     17                     18
                      A                      A                      A
 Frequencies --    152.2005               167.0274               178.7253
 Red. masses --      2.9606                 4.8865                16.5749
 Frc consts  --      0.0404                 0.0803                 0.3119
 IR Inten    --      1.0225                 3.0391                 1.0108

                     19                     20                     21
                      A                      A                      A
 Frequencies --    184.8362               189.8957               196.0994
 Red. masses --      3.8251                 3.6406                 4.1060
 Frc consts  --      0.0770                 0.0773                 0.0930
 IR Inten    --      0.2638                 0.1265                 0.3138

                     22                     23                     24
                      A                      A                      A
 Frequencies --    196.3809               235.5669               237.1360
 Red. masses --      4.5488                17.8921                16.9496
 Frc consts  --      0.1034                 0.5850                 0.5616
 IR Inten    --      1.7121                 0.1142                11.8476

                     25                     26                     27
                      A                      A                      A
 Frequencies --    240.7576               258.5442               269.9328
 Red. masses --     14.3593                17.8811                17.8874
 Frc consts  --      0.4904                 0.7042                 0.7679
 IR Inten    --      0.1400                 0.0004                 0.5439

                     28                     29                     30
                      A                      A                      A
 Frequencies --    274.1138               274.4628               282.1221
 Red. masses --      5.2389                16.2850                 4.7948
 Frc consts  --      0.2319                 0.7228                 0.2249
 IR Inten    --      0.1530                 0.4240                 4.8251

                     31                     32                     33
                      A                      A                      A
 Frequencies --    296.9416               327.1169               365.4703
 Red. masses --      3.0954                 4.6405                 6.6404
 Frc consts  --      0.1608                 0.2926                 0.5226
 IR Inten    --      2.7803                 0.0052                25.4656

                     34                     35                     36
                      A                      A                      A
 Frequencies --    372.6621               387.6629               436.2739
 Red. masses --     11.1214                 8.2862                 2.8373
 Frc consts  --      0.9100                 0.7337                 0.3182
 IR Inten    --      6.3793                 8.7938                27.9041

                     37                     38                     39
                      A                      A                      A
 Frequencies --    443.4983               451.8935               455.1650
 Red. masses --      5.6448                16.7184                21.1663
 Frc consts  --      0.6542                 2.0115                 2.5836
 IR Inten    --     16.4702                 0.0073                59.5900

                     40                     41                     42
                      A                      A                      A
 Frequencies --    493.0322               502.2711               527.1511
 Red. masses --      3.6534                 6.3907                15.7792
 Frc consts  --      0.5232                 0.9499                 2.5835
 IR Inten    --     13.7341                13.7043                 0.5510

                     43                     44                     45
                      A                      A                      A
 Frequencies --    527.2938               534.4916               536.1966
 Red. masses --     17.6314                14.2659                17.6206
 Frc consts  --      2.8883                 2.4012                 2.9848
 IR Inten    --      0.0004                 0.0923                 0.0001

                     46                     47                     48
                      A                      A                      A
 Frequencies --    538.6909               542.7587               546.4302
 Red. masses --     16.3502                 3.2935                 8.8589
 Frc consts  --      2.7955                 0.5716                 1.5585
 IR Inten    --      0.0836                 1.6513                 0.2437

                     49                     50                     51
                      A                      A                      A
 Frequencies --    555.1626               575.2654               676.9984
 Red. masses --     18.6077                19.1879                 4.9066
 Frc consts  --      3.3790                 3.7412                 1.3250
 IR Inten    --     27.7381                50.9391                20.9853

                     52                     53                     54
                      A                      A                      A
 Frequencies --    686.3769               689.2241               710.9551
 Red. masses --      1.5977                 2.7801                 2.2847
 Frc consts  --      0.4435                 0.7781                 0.6804
 IR Inten    --      0.8852                 9.7080                51.4544

                     55                     56                     57
                      A                      A                      A
 Frequencies --    743.8102               748.4368               749.1854
 Red. masses --     11.1319                16.5129                16.4664
 Frc consts  --      3.6287                 5.4498                 5.4454
 IR Inten    --     12.1862                 4.9418                 0.0293

                     58                     59                     60
                      A                      A                      A
 Frequencies --    753.4504               762.1672               762.7259
 Red. masses --      8.2270                 6.2673                 2.3598
 Frc consts  --      2.7517                 2.1450                 0.8088
 IR Inten    --     28.0007                 0.4605                 2.1670

                     61                     62                     63
                      A                      A                      A
 Frequencies --    783.6703               833.2563               861.7172
 Red. masses --      1.4272                 2.3037                 1.7120
 Frc consts  --      0.5164                 0.9424                 0.7490
 IR Inten    --     12.5244                 6.3603                 4.6136

                     64                     65                     66
                      A                      A                      A
 Frequencies --    862.2804               878.8495               918.2474
 Red. masses --      2.6048                 1.6178                 1.7995
 Frc consts  --      1.1411                 0.7362                 0.8939
 IR Inten    --      7.7377                 2.4939                 1.8240

                     67                     68                     69
                      A                      A                      A
 Frequencies --    985.2977              1006.9298              1020.3772
 Red. masses --      2.2161                 1.3222                 2.2372
 Frc consts  --      1.2676                 0.7898                 1.3724
 IR Inten    --      0.1388                12.3716                 0.2537

                     70                     71                     72
                      A                      A                      A
 Frequencies --   1023.6066              1028.0534              1050.8999
 Red. masses --      1.7512                 1.3147                 1.1551
 Frc consts  --      1.0811                 0.8186                 0.7516
 IR Inten    --      1.9765                 0.1423                 0.0112

                     73                     74                     75
                      A                      A                      A
 Frequencies --   1096.4201              1100.2623              1107.7233
 Red. masses --      2.1758                 1.8360                 6.2048
 Frc consts  --      1.5411                 1.3095                 4.4858
 IR Inten    --      4.2545                 4.5935                 0.1712

                     76                     77                     78
                      A                      A                      A
 Frequencies --   1108.5401              1121.7371              1124.5042
 Red. masses --     12.8141                10.2044                13.2113
 Frc consts  --      9.2777                 7.5652                 9.8428
 IR Inten    --    536.1230               137.8296                 0.0494

                     79                     80                     81
                      A                      A                      A
 Frequencies --   1140.1306              1141.8767              1155.4626
 Red. masses --     13.1732                12.8211                 1.6381
 Frc consts  --     10.0890                 9.8495                 1.2886
 IR Inten    --    330.7442                48.1522                29.9786

                     82                     83                     84
                      A                      A                      A
 Frequencies --   1160.1643              1162.4286              1175.3007
 Red. masses --     11.8439                12.5189                 9.6835
 Frc consts  --      9.3926                 9.9666                 7.8810
 IR Inten    --      0.0951                 6.7492               760.9580

                     85                     86                     87
                      A                      A                      A
 Frequencies --   1180.5712              1199.1023              1201.8088
 Red. masses --     10.5197                 1.0842                11.8605
 Frc consts  --      8.6385                 0.9185                10.0931
 IR Inten    --    177.9368                33.1479               573.3682

                     88                     89                     90
                      A                      A                      A
 Frequencies --   1202.9332              1214.7568              1225.3054
 Red. masses --      4.8623                 1.1981                 1.2008
 Frc consts  --      4.1454                 1.0416                 1.0622
 IR Inten    --    195.9367                 7.4420                 0.6520

                     91                     92                     93
                      A                      A                      A
 Frequencies --   1267.3197              1276.9764              1286.7584
 Red. masses --      1.2453                 1.1743                 1.2616
 Frc consts  --      1.1784                 1.1282                 1.2308
 IR Inten    --      3.8964                 0.6178                 0.2248

                     94                     95                     96
                      A                      A                      A
 Frequencies --   1347.7336              1356.5901              1385.6586
 Red. masses --      1.3075                 1.2803                 1.2950
 Frc consts  --      1.3993                 1.3882                 1.4650
 IR Inten    --      0.1093                 5.7628                 0.1793

                     97                     98                     99
                      A                      A                      A
 Frequencies --   1390.0211              1405.2955              1430.9668
 Red. masses --      1.4594                 1.0845                 1.3377
 Frc consts  --      1.6613                 1.2619                 1.6139
 IR Inten    --      6.3351                11.3417                 0.0330

                    100                    101                    102
                      A                      A                      A
 Frequencies --   1434.3140              1474.7307              1478.1537
 Red. masses --      1.5033                 1.1134                 1.0858
 Frc consts  --      1.8222                 1.4267                 1.3977
 IR Inten    --      0.0027                30.1365                 1.4889

                    103                    104                    105
                      A                      A                      A
 Frequencies --   1501.2249              1529.1470              1574.2798
 Red. masses --      1.1060                 1.0893                 4.1869
 Frc consts  --      1.4686                 1.5007                 6.1138
 IR Inten    --      1.5510                 8.3363                 0.5128

                    106                    107                    108
                      A                      A                      A
 Frequencies --   1585.1251              3018.2231              3018.4755
 Red. masses --      4.1168                 1.0688                 1.0691
 Frc consts  --      6.0945                 5.7368                 5.7389
 IR Inten    --     12.1070                 7.4320                 1.0129

                    109                    110                    111
                      A                      A                      A
 Frequencies --   3068.4109              3071.3290              3073.1357
 Red. masses --      1.0748                 1.0922                 1.0785
 Frc consts  --      5.9620                 6.0704                 6.0011
 IR Inten    --      3.9614                 0.2547                 2.2764

                    112                    113                    114
                      A                      A                      A
 Frequencies --   3075.7897              3076.0555              3105.4423
 Red. masses --      1.0578                 1.0637                 1.1049
 Frc consts  --      5.8960                 5.9302                 6.2781
 IR Inten    --     14.5715                10.8298                 9.8452

                    115                    116                    117
                      A                      A                      A
 Frequencies --   3116.7883              3137.2568              3143.4048
 Red. masses --      1.0994                 1.1073                 1.0860
 Frc consts  --      6.2924                 6.4215                 6.3225
 IR Inten    --      3.0420                 9.1279                 0.3401

                    118                    119                    120
                      A                      A                      A
 Frequencies --   3144.0747              3158.3330              3161.0461
 Red. masses --      1.0863                 1.0917                 1.0926
 Frc consts  --      6.3269                 6.4159                 6.4326
 IR Inten    --      0.0274                 0.7042                 6.4992

 - Thermochemistry -
 -------------------
 Temperature   298.150 Kelvin.  Pressure   1.00000 Atm.
 Atom     1 has atomic number 15 and mass  30.97376

 Molecular mass:   562.94272 amu.
 Principal axes and moments of inertia in atomic units:
                           1         2         3
     Eigenvalues --  ******************************
           X            1.00000   0.00008  -0.00279
           Y           -0.00008   1.00000  -0.00012
           Z            0.00279   0.00012   1.00000
 This molecule is an asymmetric top.
 Rotational symmetry number  1.
 Warning -- assumption of classical behavior for rotation
           may cause significant error
 Rotational temperatures (Kelvin)      0.00762     0.00684     0.00548
 Rotational constants (GHZ):           0.15877     0.14250     0.11415
 Zero-point vibrational energy     712057.1 (Joules/Mol)
                                  170.18574 (Kcal/Mol)
 Warning -- explicit consideration of  50 degrees of freedom as
           vibrations may cause significant error
 Vibrational temperatures:     16.58    16.99    21.03    35.89    36.34
          (Kelvin)             53.24    54.95    69.32    80.26    96.78
                              126.46   127.70   130.57   141.90   208.93
                              218.98   240.32   257.15   265.94   273.22
                              282.14   282.55   338.93   341.19   346.40
                              371.99   388.37   394.39   394.89   405.91
                              427.23   470.65   525.83   536.18   557.76
                              627.70   638.10   650.17   654.88   709.36
                              722.66   758.45   758.66   769.01   771.47
                              775.06   780.91   786.19   798.76   827.68
                              974.05   987.54   991.64  1022.91  1070.18
                             1076.83  1077.91  1084.05  1096.59  1097.39
                             1127.53  1198.87  1239.82  1240.63  1264.47
                             1321.15  1417.62  1448.75  1468.10  1472.74
                             1479.14  1512.01  1577.50  1583.03  1593.77
                             1594.94  1613.93  1617.91  1640.39  1642.91
                             1662.45  1669.22  1672.48  1691.00  1698.58
                             1725.24  1729.13  1730.75  1747.76  1762.94
                             1823.39  1837.28  1851.36  1939.09  1951.83
                             1993.65  1999.93  2021.91  2058.84  2063.66
                             2121.81  2126.73  2159.93  2200.10  2265.04
                             2280.64  4342.55  4342.91  4414.76  4418.96
                             4421.56  4425.38  4425.76  4468.04  4484.36
                             4513.81  4522.66  4523.62  4544.14  4548.04

 Zero-point correction=                           0.271208 (Hartree/Particle)
 Thermal correction to Energy=                    0.301523
 Thermal correction to Enthalpy=                  0.302467
 Thermal correction to Gibbs Free Energy=         0.203466
 Sum of electronic and zero-point Energies=          -2495.457540
 Sum of electronic and thermal Energies=             -2495.427225
 Sum of electronic and thermal Enthalpies=           -2495.426281
 Sum of electronic and thermal Free Energies=        -2495.525282

                     E (Thermal)             CV                S
                      KCal/Mol        Cal/Mol-Kelvin    Cal/Mol-Kelvin
 Total                  189.208            108.017            208.364
 Electronic               0.000              0.000              0.000
 Translational            0.889              2.981             44.869
 Rotational               0.889              2.981             36.074
 Vibrational            187.431            102.055            127.421
 Vibration     1          0.593              1.987              7.729
 Vibration     2          0.593              1.987              7.681
 Vibration     3          0.593              1.986              7.257
 Vibration     4          0.593              1.985              6.196
 Vibration     5          0.593              1.985              6.171
 Vibration     6          0.594              1.982              5.414
 Vibration     7          0.594              1.982              5.351
 Vibration     8          0.595              1.978              4.891
 Vibration     9          0.596              1.975              4.601
 Vibration    10          0.598              1.970              4.232
 Vibration    11          0.601              1.958              3.706
 Vibration    12          0.602              1.957              3.687
 Vibration    13          0.602              1.956              3.644
 Vibration    14          0.604              1.950              3.481
 Vibration    15          0.617              1.908              2.734
 Vibration    16          0.619              1.900              2.645
 Vibration    17          0.624              1.883              2.469
 Vibration    18          0.629              1.868              2.342
 Vibration    19          0.631              1.861              2.279
 Vibration    20          0.633              1.854              2.229
 Vibration    21          0.636              1.845              2.169
 Vibration    22          0.636              1.845              2.167
 Vibration    23          0.655              1.786              1.836
 Vibration    24          0.656              1.784              1.824
 Vibration    25          0.658              1.778              1.797
 Vibration    26          0.667              1.748              1.672
 Vibration    27          0.674              1.729              1.597
 Vibration    28          0.676              1.721              1.570
 Vibration    29          0.677              1.721              1.568
 Vibration    30          0.681              1.707              1.521
 Vibration    31          0.691              1.679              1.434
 Vibration    32          0.711              1.621              1.274
 Vibration    33          0.739              1.543              1.099
 Vibration    34          0.744              1.528              1.069
 Vibration    35          0.756              1.497              1.009
 Vibration    36          0.797              1.391              0.838
 Vibration    37          0.803              1.375              0.816
 Vibration    38          0.811              1.357              0.790
 Vibration    39          0.813              1.349              0.780
 Vibration    40          0.849              1.265              0.676
 Vibration    41          0.858              1.245              0.652
 Vibration    42          0.882              1.190              0.594
 Vibration    43          0.882              1.190              0.593
 Vibration    44          0.889              1.174              0.577
 Vibration    45          0.891              1.170              0.574
 Vibration    46          0.894              1.164              0.568
 Vibration    47          0.898              1.156              0.559
 Vibration    48          0.902              1.147              0.552
 Vibration    49          0.911              1.128              0.534
 Vibration    50          0.932              1.085              0.494

                           ! Non-Optimized Parameters !
 Normal termination of Gaussian 16 at Mon Dec 16 00:25:01 2024.
