 Gaussian 16, Revision B.01,
 Gaussian 16:  ES64L-G16RevB.01 20-Dec-2017

 -----------------------------------------------------
 # opt freq b3lyp/genecp pop=npa optcyc=200 scfcyc=200
 -----------------------------------------------------

 ----
 MB-2
 ----
 Symbolic Z-matrix:
 Charge =  1 Multiplicity = 1

 SCF Done:  E(RB3LYP) =  -1343.76342643     A.U. after   14 cycles
 SCF Done:  E(RB3LYP) =  -1343.76747086     A.U. after   12 cycles
 SCF Done:  E(RB3LYP) =  -1343.76792497     A.U. after   11 cycles
 SCF Done:  E(RB3LYP) =  -1343.76799054     A.U. after   11 cycles
 SCF Done:  E(RB3LYP) =  -1343.76801513     A.U. after   11 cycles
 SCF Done:  E(RB3LYP) =  -1343.76802405     A.U. after   10 cycles
 SCF Done:  E(RB3LYP) =  -1343.76802949     A.U. after   10 cycles
 SCF Done:  E(RB3LYP) =  -1343.76803484     A.U. after   10 cycles
 SCF Done:  E(RB3LYP) =  -1343.76804154     A.U. after   10 cycles
 SCF Done:  E(RB3LYP) =  -1343.76805336     A.U. after   11 cycles
 SCF Done:  E(RB3LYP) =  -1343.77038668     A.U. after   11 cycles
 SCF Done:  E(RB3LYP) =  -1343.77041736     A.U. after   10 cycles
 SCF Done:  E(RB3LYP) =  -1343.77043883     A.U. after   11 cycles
 SCF Done:  E(RB3LYP) =  -1343.77044341     A.U. after   10 cycles
 SCF Done:  E(RB3LYP) =  -1343.77045175     A.U. after   10 cycles
 SCF Done:  E(RB3LYP) =  -1343.77045364     A.U. after    9 cycles
 SCF Done:  E(RB3LYP) =  -1343.77045416     A.U. after    8 cycles
 SCF Done:  E(RB3LYP) =  -1343.77045434     A.U. after    7 cycles
 SCF Done:  E(RB3LYP) =  -1343.77045449     A.U. after    7 cycles
 Optimization completed.
    -- Stationary point found.
 Normal termination of Gaussian 16 at Sun Dec 15 22:15:56 2024.

 ------------------------------------------------------------------
 #N Geom=AllCheck Guess=TCheck SCRF=Check GenChk RB3LYP/GenECP Freq
 ------------------------------------------------------------------

 Structure from the checkpoint file:  "/scratch/3311762.1.iqtc08.q/Gau-23287.chk"
 ----
 MB-2
 ----
 Charge =  1 Multiplicity = 1

                         Standard orientation:
 ---------------------------------------------------------------------
 Center     Atomic      Atomic             Coordinates (Angstroms)
 Number     Number       Type             X           Y           Z
 ---------------------------------------------------------------------
      1         15           0       -1.483059    1.384110   -0.012323
      2         15           0       -1.475497   -1.379782    0.125810
      3          6           0       -2.098728    2.014156   -1.635110
      4          1           0       -2.080352    1.221242   -2.381407
      5          1           0       -1.436072    2.811163   -1.973764
      6          1           0       -3.111488    2.409699   -1.549428
      7          6           0       -2.105524   -2.192761   -1.407692
      8          1           0       -1.443823   -3.021413   -1.661914
      9          1           0       -2.100316   -1.489806   -2.239487
     10          1           0       -3.115098   -2.579885   -1.265381
     11          6           0       -2.662074    0.023395    0.541404
     12          1           0       -2.630944    0.077976    1.634842
     13          6           0       -1.697741   -2.675984    1.421381
     14          1           0       -2.730904   -3.025320    1.451897
     15          1           0       -1.421789   -2.272164    2.394823
     16          1           0       -1.047140   -3.523272    1.201092
     17          6           0       -1.738299    2.814371    1.126951
     18          1           0       -1.100405    3.643238    0.817454
     19          1           0       -1.466901    2.528861    2.142710
     20          1           0       -2.777326    3.146648    1.108948
     21         45           0        0.415211    0.003663   -0.014784
     22          6           0        2.083338    1.416848   -0.683938
     23          6           0        1.946902    1.508427    0.684603
     24          6           0        2.084363   -1.415622    0.645827
     25          6           0        1.937923   -1.507091   -0.721493
     26          6           0        3.164216    0.643236   -1.415228
     27          1           0        1.556743    2.154578   -1.280203
     28          1           0        1.357432    2.334108    1.069922
     29          6           0        2.778017    0.803534    1.727891
     30          6           0        3.173649   -0.644622    1.367800
     31          1           0        1.561148   -2.151467    1.246760
     32          6           0        2.762013   -0.804593   -1.771726
     33          1           0        1.340486   -2.330019   -1.101757
     34          1           0        3.400354    1.171048   -2.340470
     35          1           0        4.080609    0.649231   -0.825897
     36          1           0        3.679935    1.391811    1.938050
     37          1           0        2.205421    0.796484    2.657865
     38          1           0        4.084353   -0.652768    0.769749
     39          1           0        3.417090   -1.173645    2.290490
     40          1           0        2.181951   -0.796566   -2.697106
     41          1           0        3.660996   -1.394451   -1.989499
     42          6           0       -4.110564   -0.003944    0.066740
     43          1           0       -4.640017   -0.864244    0.482022
     44          1           0       -4.644906    0.889317    0.397581
     45          1           0       -4.190159   -0.056247   -1.019383
 ---------------------------------------------------------------------

 SCF Done:  E(RB3LYP) =  -1343.77045449     A.U. after    1 cycles

 The electronic state is 1-A.
 Alpha  occ. eigenvalues --  -77.24944 -77.24938 -10.32576 -10.30396 -10.30369
 Alpha  occ. eigenvalues --  -10.30326 -10.30299 -10.30286 -10.30264 -10.30233
 Alpha  occ. eigenvalues --  -10.30138 -10.29439 -10.28607 -10.28597 -10.28368
 Alpha  occ. eigenvalues --  -10.28344  -6.70989  -6.70983  -4.87271  -4.87264
 Alpha  occ. eigenvalues --   -4.87204  -4.87199  -4.86884  -4.86877  -3.32866
 Alpha  occ. eigenvalues --   -2.09795  -2.09113  -2.06274  -0.95642  -0.93271
 Alpha  occ. eigenvalues --   -0.90437  -0.89121  -0.88461  -0.86263  -0.82951
 Alpha  occ. eigenvalues --   -0.82719  -0.81514  -0.78988  -0.78299  -0.71697
 Alpha  occ. eigenvalues --   -0.68554  -0.67058  -0.66270  -0.63625  -0.61298
 Alpha  occ. eigenvalues --   -0.58724  -0.58679  -0.57497  -0.57358  -0.57056
 Alpha  occ. eigenvalues --   -0.55886  -0.55524  -0.54708  -0.54177  -0.53757
 Alpha  occ. eigenvalues --   -0.53677  -0.53659  -0.53520  -0.52781  -0.52774
 Alpha  occ. eigenvalues --   -0.52625  -0.50176  -0.49388  -0.48976  -0.48091
 Alpha  occ. eigenvalues --   -0.47543  -0.47071  -0.46812  -0.44580  -0.44340
 Alpha  occ. eigenvalues --   -0.43449  -0.43227  -0.42589  -0.38262  -0.37801
 Alpha  occ. eigenvalues --   -0.36440  -0.36020  -0.35155  -0.32086
 Alpha virt. eigenvalues --   -0.17515  -0.14961  -0.10932  -0.10292  -0.09191
 Alpha virt. eigenvalues --   -0.09109  -0.08432  -0.07528  -0.06954  -0.05868
 Alpha virt. eigenvalues --   -0.05694  -0.05584  -0.05415  -0.04666  -0.04158

 Mulliken charges:
               1
     1  P    0.338640
     2  P    0.330869
     3  C   -0.429145
     4  H    0.151839
     5  H    0.167387
     6  H    0.166954
     7  C   -0.432354
     8  H    0.167520
     9  H    0.152832
    10  H    0.167954
    11  C   -0.406661
    12  H    0.206671
    13  C   -0.408868
    14  H    0.161769
    15  H    0.160376
    16  H    0.164809
    17  C   -0.420659
    18  H    0.167238
    19  H    0.161308
    20  H    0.163550
    21  Rh  -0.494308
    22  C   -0.011265
    23  C   -0.097676
    24  C   -0.016222
    25  C   -0.087159
    26  C   -0.345450
    27  H    0.168777
    28  H    0.183350
    29  C   -0.218049
    30  C   -0.348765
    31  H    0.178187
    32  C   -0.217038
    33  H    0.169388
    34  H    0.172556
    35  H    0.168448
    36  H    0.175804
    37  H    0.132648
    38  H    0.169737
    39  H    0.172411
    40  H    0.133962
    41  H    0.174873
    42  C   -0.352447
    43  H    0.155257
    44  H    0.155345
    45  H    0.145607
 Sum of Mulliken charges =   1.00000

 Dipole moment (field-independent basis, Debye):
    X=             -3.1197    Y=             -0.0065    Z=              0.1707  Tot=              3.1244
 Quadrupole moment (field-independent basis, Debye-Ang):
   XX=            -98.7125   YY=           -110.8838   ZZ=           -121.5973
   XY=             -0.0699   XZ=             -0.5201   YZ=             -0.4400

  Exact polarizability: 283.082  -0.040 233.569   0.330   1.014 204.525
 Approx polarizability: 408.436  -0.101 380.575  -0.912   2.822 360.014

 Summary of Natural Population Analysis:

                                       Natural Population
                Natural  -----------------------------------------------
    Atom  No    Charge         Core      Valence    Rydberg      Total
 -----------------------------------------------------------------------
      P    1    1.12843      9.99669     3.82602    0.04886    13.87157
      P    2    1.12863      9.99669     3.82585    0.04883    13.87137
      C    3   -0.90391      1.99942     4.89456    0.00993     6.90391
      H    4    0.23983      0.00000     0.75895    0.00122     0.76017
      H    5    0.24680      0.00000     0.75209    0.00111     0.75320
      H    6    0.23908      0.00000     0.75909    0.00183     0.76092
      C    7   -0.90472      1.99942     4.89542    0.00989     6.90472
      H    8    0.24614      0.00000     0.75276    0.00110     0.75386
      H    9    0.23985      0.00000     0.75894    0.00121     0.76015
      H   10    0.23951      0.00000     0.75865    0.00184     0.76049
      C   11   -0.75041      1.99946     4.73051    0.02044     6.75041
      H   12    0.24908      0.00000     0.74931    0.00161     0.75092
      C   13   -0.90200      1.99942     4.89331    0.00927     6.90200
      H   14    0.23966      0.00000     0.75850    0.00184     0.76034
      H   15    0.24416      0.00000     0.75476    0.00108     0.75584
      H   16    0.24475      0.00000     0.75416    0.00109     0.75525
      C   17   -0.90346      1.99942     4.89477    0.00927     6.90346
      H   18    0.24483      0.00000     0.75407    0.00110     0.75517
      H   19    0.24378      0.00000     0.75515    0.00108     0.75622
      H   20    0.24017      0.00000     0.75797    0.00186     0.75983
     Rh   21   -0.46773     35.98535     9.45696    0.02543    45.46773
      C   22   -0.16907      1.99904     4.14993    0.02010     6.16907
      C   23   -0.14841      1.99904     4.12874    0.02063     6.14841
      C   24   -0.15972      1.99904     4.14084    0.01984     6.15972
      C   25   -0.15441      1.99904     4.13486    0.02051     6.15441
      C   26   -0.42295      1.99937     4.41165    0.01194     6.42295
      H   27    0.22646      0.00000     0.77201    0.00153     0.77354
      H   28    0.22251      0.00000     0.77579    0.00170     0.77749
      C   29   -0.42274      1.99936     4.41093    0.01246     6.42274
      C   30   -0.42355      1.99936     4.41217    0.01201     6.42355
      H   31    0.22305      0.00000     0.77522    0.00173     0.77695
      C   32   -0.42301      1.99936     4.41120    0.01245     6.42301
      H   33    0.22212      0.00000     0.77613    0.00175     0.77788
      H   34    0.23114      0.00000     0.76745    0.00141     0.76886
      H   35    0.21286      0.00000     0.78512    0.00202     0.78714
      H   36    0.23637      0.00000     0.76186    0.00176     0.76363
      H   37    0.21918      0.00000     0.77931    0.00151     0.78082
      H   38    0.21303      0.00000     0.78493    0.00204     0.78697
      H   39    0.23091      0.00000     0.76767    0.00142     0.76909
      H   40    0.21950      0.00000     0.77900    0.00150     0.78050
      H   41    0.23669      0.00000     0.76155    0.00176     0.76331
      C   42   -0.61429      1.99941     4.60490    0.00998     6.61429
      H   43    0.22500      0.00000     0.77341    0.00159     0.77500
      H   44    0.22505      0.00000     0.77336    0.00159     0.77495
      H   45    0.21184      0.00000     0.78661    0.00155     0.78816
 =======================================================================
   * Total *    1.00000     83.96889   101.66646    0.36464   186.00000

                      1                      2                      3
                      A                      A                      A
 Frequencies --     36.2444                38.6395                57.3791
 Red. masses --      3.5936                 3.5029                 3.5645
 Frc consts  --      0.0028                 0.0031                 0.0069
 IR Inten    --      0.2049                 0.0007                 0.5568

                      4                      5                      6
                      A                      A                      A
 Frequencies --     76.6160               130.1533               131.4401
 Red. masses --      3.9453                 2.8257                 3.0291
 Frc consts  --      0.0136                 0.0282                 0.0308
 IR Inten    --      0.3064                 0.0034                 0.1660

                      7                      8                      9
                      A                      A                      A
 Frequencies --    143.7354               160.3356               168.6164
 Red. masses --      3.2419                 2.6357                 1.9376
 Frc consts  --      0.0395                 0.0399                 0.0325
 IR Inten    --      0.2150                 0.2086                 0.1688

                     10                     11                     12
                      A                      A                      A
 Frequencies --    170.7627               172.4628               182.3326
 Red. masses --      2.1707                 1.2659                 1.1614
 Frc consts  --      0.0373                 0.0222                 0.0227
 IR Inten    --      0.9095                 0.0632                 0.0616

                     13                     14                     15
                      A                      A                      A
 Frequencies --    184.6531               192.4971               194.7568
 Red. masses --      1.6405                 1.8396                 1.6021
 Frc consts  --      0.0330                 0.0402                 0.0358
 IR Inten    --      0.5970                 0.1087                 0.4606

                     16                     17                     18
                      A                      A                      A
 Frequencies --    201.2073               205.8625               208.9952
 Red. masses --      2.2030                 1.6058                 1.9693
 Frc consts  --      0.0525                 0.0401                 0.0507
 IR Inten    --      0.8998                 0.4135                 0.0263

                     19                     20                     21
                      A                      A                      A
 Frequencies --    212.3748               219.7696               238.4686
 Red. masses --      3.0505                 3.6258                 1.2540
 Frc consts  --      0.0811                 0.1032                 0.0420
 IR Inten    --      1.7102                 2.6476                 0.0174

                     22                     23                     24
                      A                      A                      A
 Frequencies --    275.3939               279.0765               282.9730
 Red. masses --      3.0396                 5.3107                 6.5917
 Frc consts  --      0.1358                 0.2437                 0.3110
 IR Inten    --      6.4621                 6.2048                19.7805

                     25                     26                     27
                      A                      A                      A
 Frequencies --    296.4613               332.9903               347.0212
 Red. masses --      3.0668                 4.4114                 4.6528
 Frc consts  --      0.1588                 0.2882                 0.3301
 IR Inten    --      5.8906                 1.2348                 1.9839

                     28                     29                     30
                      A                      A                      A
 Frequencies --    354.0343               396.5687               434.7621
 Red. masses --      4.3196                 4.8856                 3.5105
 Frc consts  --      0.3190                 0.4527                 0.3910
 IR Inten    --      1.3703                 1.7577                 9.9176

                     31                     32                     33
                      A                      A                      A
 Frequencies --    448.6873               498.1832               549.5548
 Red. masses --      2.5515                 2.7074                 2.8028
 Frc consts  --      0.3026                 0.3959                 0.4987
 IR Inten    --      8.2147                 0.1685                 0.3080

                     34                     35                     36
                      A                      A                      A
 Frequencies --    595.1680               635.4940               686.6729
 Red. masses --      3.5744                 3.8620                 1.7321
 Frc consts  --      0.7460                 0.9189                 0.4812
 IR Inten    --     10.3868                 0.4505                 0.2157

                     37                     38                     39
                      A                      A                      A
 Frequencies --    688.1097               695.0132               708.5726
 Red. masses --      2.3402                 4.3259                 4.0152
 Frc consts  --      0.6529                 1.2311                 1.1878
 IR Inten    --      1.1970                 3.6067                35.8090

                     40                     41                     42
                      A                      A                      A
 Frequencies --    719.3538               723.0243               756.3868
 Red. masses --      4.4305                 3.9809                 1.8241
 Frc consts  --      1.3508                 1.2261                 0.6149
 IR Inten    --      0.6058                14.8527                 4.2326

                     43                     44                     45
                      A                      A                      A
 Frequencies --    772.7525               830.3844               841.2304
 Red. masses --      1.4058                 2.2832                 1.7132
 Frc consts  --      0.4946                 0.9276                 0.7143
 IR Inten    --      9.6516                 4.9758                 0.3433

                     46                     47                     48
                      A                      A                      A
 Frequencies --    841.9187               853.9625               865.0307
 Red. masses --      1.3367                 1.2863                 2.5875
 Frc consts  --      0.5582                 0.5527                 1.1408
 IR Inten    --      0.8958                 9.8888                 5.7163

                     49                     50                     51
                      A                      A                      A
 Frequencies --    868.8552               872.9822               883.2496
 Red. masses --      1.2356                 1.5876                 1.2514
 Frc consts  --      0.5496                 0.7129                 0.5752
 IR Inten    --      1.3477                 6.8231                 7.6042

                     52                     53                     54
                      A                      A                      A
 Frequencies --    908.0513               909.5641               938.2465
 Red. masses --      1.7802                 1.3970                 1.4557
 Frc consts  --      0.8649                 0.6809                 0.7550
 IR Inten    --      0.5809                 1.1248               106.3296

                     55                     56                     57
                      A                      A                      A
 Frequencies --    969.9634               975.8188               984.0010
 Red. masses --      1.3873                 1.4082                 1.2741
 Frc consts  --      0.7690                 0.7900                 0.7268
 IR Inten    --     94.3153                61.5335                16.0563

                     58                     59                     60
                      A                      A                      A
 Frequencies --    986.9065               991.5445              1002.9956
 Red. masses --      2.2210                 1.3635                 1.3818
 Frc consts  --      1.2745                 0.7898                 0.8190
 IR Inten    --      0.2750                 2.4583                 0.1268

                     61                     62                     63
                      A                      A                      A
 Frequencies --   1015.7813              1020.1555              1056.1360
 Red. masses --      1.8041                 2.1407                 1.2593
 Frc consts  --      1.0968                 1.3126                 0.8276
 IR Inten    --      3.6421                 0.5250                 1.1857

                     64                     65                     66
                      A                      A                      A
 Frequencies --   1084.0362              1098.8861              1099.3308
 Red. masses --      3.4296                 1.8858                 2.1469
 Frc consts  --      2.3746                 1.3417                 1.5287
 IR Inten    --     27.7511                 1.3033                 2.1725

                     67                     68                     69
                      A                      A                      A
 Frequencies --   1160.5200              1193.5359              1213.8260
 Red. masses --      1.3678                 1.0497                 1.1729
 Frc consts  --      1.0854                 0.8810                 1.0182
 IR Inten    --      2.3347                 3.3205                 5.2867

                     70                     71                     72
                      A                      A                      A
 Frequencies --   1224.5672              1264.4472              1268.0836
 Red. masses --      1.1861                 1.2360                 1.2053
 Frc consts  --      1.0479                 1.1643                 1.1419
 IR Inten    --      0.6997                 4.1988                 0.6262

                     73                     74                     75
                      A                      A                      A
 Frequencies --   1279.8367              1295.0165              1329.0129
 Red. masses --      1.2898                 1.3204                 1.2031
 Frc consts  --      1.2448                 1.3047                 1.2521
 IR Inten    --      0.0385                 0.3074                 0.4508

                     76                     77                     78
                      A                      A                      A
 Frequencies --   1332.5762              1343.8334              1346.2219
 Red. masses --      1.2002                 1.1924                 1.2865
 Frc consts  --      1.2557                 1.2687                 1.3737
 IR Inten    --     21.9256                 5.6442                 0.8583

                     79                     80                     81
                      A                      A                      A
 Frequencies --   1347.2252              1354.4936              1380.0066
 Red. masses --      1.2038                 1.2805                 1.2973
 Frc consts  --      1.2873                 1.3841                 1.4556
 IR Inten    --      2.3779                 4.5246                 1.0112

                     82                     83                     84
                      A                      A                      A
 Frequencies --   1383.7337              1421.1973              1424.0887
 Red. masses --      1.4726                 1.3410                 1.1914
 Frc consts  --      1.6613                 1.5959                 1.4236
 IR Inten    --      6.5908                 0.3645                 2.9218

                     85                     86                     87
                      A                      A                      A
 Frequencies --   1424.9750              1456.8103              1460.2819
 Red. masses --      1.5166                 1.0506                 1.0508
 Frc consts  --      1.8145                 1.3137                 1.3202
 IR Inten    --      0.0187                 1.9268                 2.0801

                     88                     89                     90
                      A                      A                      A
 Frequencies --   1462.4221              1465.3574              1470.5000
 Red. masses --      1.0512                 1.0513                 1.0474
 Frc consts  --      1.3246                 1.3301                 1.3344
 IR Inten    --      0.8148                11.6990                21.3374

                     91                     92                     93
                      A                      A                      A
 Frequencies --   1473.7453              1475.1574              1477.0759
 Red. masses --      1.0482                 1.0460                 1.0466
 Frc consts  --      1.3414                 1.3411                 1.3453
 IR Inten    --      5.1450                 0.1059                 7.5032

                     94                     95                     96
                      A                      A                      A
 Frequencies --   1479.0937              1482.1363              1501.6710
 Red. masses --      1.1117                 1.0869                 1.1020
 Frc consts  --      1.4330                 1.4067                 1.4641
 IR Inten    --     20.3248                 0.1259                 2.9387

                     97                     98                     99
                      A                      A                      A
 Frequencies --   1502.3282              1503.5548              1528.5904
 Red. masses --      1.0449                 1.0397                 1.0898
 Frc consts  --      1.3894                 1.3849                 1.5003
 IR Inten    --      2.8870                18.9476                 5.7536

                    100                    101                    102
                      A                      A                      A
 Frequencies --   1570.2168              1578.6100              3011.6697
 Red. masses --      4.1771                 4.0855                 1.0688
 Frc consts  --      6.0680                 5.9985                 5.7118
 IR Inten    --      3.4068                 0.3745                20.1803

                    103                    104                    105
                      A                      A                      A
 Frequencies --   3012.4747              3035.8277              3038.0099
 Red. masses --      1.0688                 1.0800                 1.0382
 Frc consts  --      5.7145                 5.8647                 5.6455
 IR Inten    --     13.6740                 4.7267                 9.0599

                    106                    107                    108
                      A                      A                      A
 Frequencies --   3045.0717              3045.3124              3049.0317
 Red. masses --      1.0325                 1.0325                 1.0327
 Frc consts  --      5.6409                 5.6418                 5.6564
 IR Inten    --      1.4074                 1.2500                 0.7980

                    109                    110                    111
                      A                      A                      A
 Frequencies --   3049.7118              3061.0105              3062.9563
 Red. masses --      1.0329                 1.0812                 1.0932
 Frc consts  --      5.6599                 5.9689                 6.0429
 IR Inten    --      3.7442                11.4452                 3.1185

                    112                    113                    114
                      A                      A                      A
 Frequencies --   3064.8552              3068.3344              3094.8632
 Red. masses --      1.0723                 1.0632                 1.1019
 Frc consts  --      5.9344                 5.8977                 6.2183
 IR Inten    --      4.2957                28.5939                 7.6657

                    115                    116                    117
                      A                      A                      A
 Frequencies --   3095.9939              3108.0992              3113.4233
 Red. masses --      1.1044                 1.0988                 1.1019
 Frc consts  --      6.2369                 6.2540                 6.2931
 IR Inten    --     18.0405                 6.7011                 8.8592

                    118                    119                    120
                      A                      A                      A
 Frequencies --   3124.7548              3124.8944              3128.5601
 Red. masses --      1.1037                 1.1036                 1.1034
 Frc consts  --      6.3492                 6.3496                 6.3632
 IR Inten    --      0.9630                 1.4081                 1.4140

                    121                    122                    123
                      A                      A                      A
 Frequencies --   3129.0904              3135.1401              3137.3511
 Red. masses --      1.1035                 1.0858                 1.1035
 Frc consts  --      6.3658                 6.2878                 6.3993
 IR Inten    --      2.5031                 2.4235                 0.9051

                    124                    125                    126
                      A                      A                      A
 Frequencies --   3137.9883              3138.3687              3139.2258
 Red. masses --      1.1032                 1.0857                 1.1031
 Frc consts  --      6.4004                 6.3004                 6.4050
 IR Inten    --      0.9333                 0.8590                 2.4269

                    127                    128                    129
                      A                      A                      A
 Frequencies --   3140.8599              3154.8219              3157.7650
 Red. masses --      1.1027                 1.0915                 1.0926
 Frc consts  --      6.4090                 6.4009                 6.4188
 IR Inten    --      0.5818                12.6414                11.8024

 - Thermochemistry -
 -------------------
 Temperature   298.150 Kelvin.  Pressure   1.00000 Atm.
 Atom     1 has atomic number 15 and mass  30.97376

 Molecular mass:   361.07143 amu.
 Principal axes and moments of inertia in atomic units:
                           1         2         3
     Eigenvalues --  3492.768546377.662037561.01269
           X            1.00000   0.00014   0.00300
           Y           -0.00014   1.00000   0.00136
           Z           -0.00300  -0.00136   0.99999
 This molecule is an asymmetric top.
 Rotational symmetry number  1.
 Warning -- assumption of classical behavior for rotation
           may cause significant error
 Rotational temperatures (Kelvin)      0.02480     0.01358     0.01146
 Rotational constants (GHZ):           0.51671     0.28298     0.23869
 Zero-point vibrational energy    1029881.9 (Joules/Mol)
                                  246.14768 (Kcal/Mol)
 Warning -- explicit consideration of  34 degrees of freedom as
           vibrations may cause significant error
 Vibrational temperatures:     52.15    55.59    82.56   110.23   187.26
          (Kelvin)            189.11   206.80   230.69   242.60   245.69
                              248.14   262.34   265.67   276.96   280.21
                              289.49   296.19   300.70   305.56   316.20
                              343.10   396.23   401.53   407.13   426.54
                              479.10   499.29   509.38   570.57   625.53
                              645.56   716.77   790.69   856.31   914.33
                              987.97   990.04   999.97  1019.48  1034.99
                             1040.27  1088.27  1111.82  1194.74  1210.34
                             1211.33  1228.66  1244.59  1250.09  1256.03
                             1270.80  1306.48  1308.66  1349.93  1395.56
                             1403.99  1415.76  1419.94  1426.61  1443.09
                             1461.48  1467.78  1519.54  1559.69  1581.05
                             1581.69  1669.73  1717.23  1746.42  1761.88
                             1819.26  1824.49  1841.40  1863.24  1912.15
                             1917.28  1933.48  1936.91  1938.36  1948.81
                             1985.52  1990.88  2044.79  2048.95  2050.22
                             2096.03  2101.02  2104.10  2108.32  2115.72
                             2120.39  2122.42  2125.18  2128.09  2132.46
                             2160.57  2161.52  2163.28  2199.30  2259.19
                             2271.27  4333.12  4334.28  4367.88  4371.02
                             4381.18  4381.53  4386.88  4387.86  4404.11
                             4406.91  4409.64  4414.65  4452.82  4454.44
                             4471.86  4479.52  4495.83  4496.03  4501.30
                             4502.06  4510.77  4513.95  4514.87  4515.41
                             4516.65  4519.00  4539.09  4543.32

 Zero-point correction=                           0.392261 (Hartree/Particle)
 Thermal correction to Energy=                    0.415073
 Thermal correction to Enthalpy=                  0.416017
 Thermal correction to Gibbs Free Energy=         0.341957
 Sum of electronic and zero-point Energies=          -1343.378193
 Sum of electronic and thermal Energies=             -1343.355382
 Sum of electronic and thermal Enthalpies=           -1343.354438
 Sum of electronic and thermal Free Energies=        -1343.428497

                     E (Thermal)             CV                S
                      KCal/Mol        Cal/Mol-Kelvin    Cal/Mol-Kelvin
 Total                  260.462             86.213            155.871
 Electronic               0.000              0.000              0.000
 Translational            0.889              2.981             43.545
 Rotational               0.889              2.981             33.487
 Vibrational            258.684             80.251             78.839
 Vibration     1          0.594              1.982              5.454
 Vibration     2          0.594              1.981              5.328
 Vibration     3          0.596              1.975              4.545
 Vibration     4          0.599              1.965              3.976
 Vibration     5          0.612              1.923              2.944
 Vibration     6          0.612              1.922              2.925
 Vibration     7          0.616              1.909              2.754
 Vibration     8          0.622              1.891              2.546
 Vibration     9          0.625              1.881              2.451
 Vibration    10          0.626              1.878              2.427
 Vibration    11          0.626              1.876              2.408
 Vibration    12          0.630              1.864              2.304
 Vibration    13          0.631              1.861              2.281
 Vibration    14          0.634              1.850              2.204
 Vibration    15          0.635              1.847              2.182
 Vibration    16          0.638              1.838              2.122
 Vibration    17          0.640              1.832              2.080
 Vibration    18          0.642              1.827              2.052
 Vibration    19          0.643              1.822              2.023
 Vibration    20          0.647              1.811              1.961
 Vibration    21          0.656              1.782              1.814
 Vibration    22          0.677              1.719              1.562
 Vibration    23          0.679              1.712              1.539
 Vibration    24          0.682              1.705              1.516
 Vibration    25          0.690              1.680              1.437
 Vibration    26          0.715              1.610              1.246
 Vibration    27          0.725              1.581              1.180
 Vibration    28          0.730              1.567              1.148
 Vibration    29          0.763              1.477              0.975
 Vibration    30          0.795              1.394              0.843
 Vibration    31          0.808              1.364              0.800
 Vibration    32          0.854              1.254              0.663
 Vibration    33          0.905              1.141              0.545
 Vibration    34          0.953              1.042              0.458

 Optimization completed.
    -- Stationary point found.
 Normal termination of Gaussian 16 at Sun Dec 15 22:49:28 2024.
