 Gaussian 16, Revision B.01,
 Gaussian 16:  ES64L-G16RevB.01 20-Dec-2017

 -----------------------------------------------------
 # opt freq b3lyp/genecp pop=npa optcyc=200 scfcyc=200
 -----------------------------------------------------

 ----
 MB-3
 ----
 Symbolic Z-matrix:
 Charge =  1 Multiplicity = 1

 SCF Done:  E(RB3LYP) =  -1602.94468666     A.U. after   15 cycles
 SCF Done:  E(RB3LYP) =  -1602.99497327     A.U. after   12 cycles
 SCF Done:  E(RB3LYP) =  -1603.02172123     A.U. after   13 cycles
 SCF Done:  E(RB3LYP) =  -1603.02367921     A.U. after   12 cycles
 SCF Done:  E(RB3LYP) =  -1603.02521833     A.U. after   12 cycles
 SCF Done:  E(RB3LYP) =  -1603.02802052     A.U. after   13 cycles
 SCF Done:  E(RB3LYP) =  -1603.02949017     A.U. after   11 cycles
 SCF Done:  E(RB3LYP) =  -1603.03090393     A.U. after   12 cycles
 SCF Done:  E(RB3LYP) =  -1603.03109438     A.U. after   10 cycles
 SCF Done:  E(RB3LYP) =  -1603.03119074     A.U. after   11 cycles
 SCF Done:  E(RB3LYP) =  -1603.03129117     A.U. after    9 cycles
 SCF Done:  E(RB3LYP) =  -1603.03129163     A.U. after   10 cycles
 SCF Done:  E(RB3LYP) =  -1603.03129203     A.U. after    9 cycles
 SCF Done:  E(RB3LYP) =  -1603.03129247     A.U. after   10 cycles
 SCF Done:  E(RB3LYP) =  -1603.03129266     A.U. after    8 cycles
 SCF Done:  E(RB3LYP) =  -1603.03129293     A.U. after    8 cycles
 SCF Done:  E(RB3LYP) =  -1603.03129309     A.U. after    8 cycles
 SCF Done:  E(RB3LYP) =  -1603.03129316     A.U. after    7 cycles
 SCF Done:  E(RB3LYP) =  -1603.03129318     A.U. after    7 cycles
 Optimization completed.
    -- Stationary point found.
 Normal termination of Gaussian 16 at Mon Dec 30 07:44:00 2024.

 ------------------------------------------------------------------
 #N Geom=AllCheck Guess=TCheck SCRF=Check GenChk RB3LYP/GenECP Freq
 ------------------------------------------------------------------

 Structure from the checkpoint file:  "/scratch/3319834.1.iqtc08.q/Gau-2078.chk"
 ----
 MB-3
 ----
 Charge =  1 Multiplicity = 1

                         Standard orientation:
 ---------------------------------------------------------------------
 Center     Atomic      Atomic             Coordinates (Angstroms)
 Number     Number       Type             X           Y           Z
 ---------------------------------------------------------------------
      1          6           0        2.500745   -0.016283   -0.395590
      2          1           0        2.793030   -0.000597   -1.449078
      3          1           0        3.386457   -0.035643    0.242450
      4         45           0       -0.565695    0.005582    0.084272
      5          6           0       -2.271663   -1.458653   -0.588553
      6          6           0       -2.175985   -1.486593    0.779365
      7          6           0       -2.299668    1.479327    0.592353
      8          6           0       -2.097824    1.507562   -0.764945
      9          6           0       -3.297492   -0.688711   -1.396896
     10          1           0       -1.712770   -2.209428   -1.136724
     11          1           0       -1.577124   -2.278663    1.219077
     12          6           0       -2.991342   -0.698297    1.772638
     13          6           0       -3.394388    0.723614    1.319987
     14          1           0       -1.779394    2.228560    1.180628
     15          6           0       -2.845193    0.727579   -1.816331
     16          1           0       -1.466200    2.297620   -1.158339
     17          1           0       -3.509904   -1.256818   -2.303765
     18          1           0       -4.235111   -0.641461   -0.844985
     19          1           0       -3.892223   -1.267111    2.033569
     20          1           0       -2.410583   -0.629186    2.695050
     21          1           0       -4.288953    0.686846    0.699960
     22          1           0       -3.667710    1.294169    2.208750
     23          1           0       -2.198472    0.652151   -2.692681
     24          1           0       -3.717745    1.308129   -2.140963
     25          6           0        2.261070    3.540231    0.848375
     26          6           0        2.419253    3.511851   -0.670988
     27          1           0        1.462661    4.214144    1.161524
     28          1           0        3.183981    3.800427    1.362522
     29          1           0        2.192826    4.465337   -1.141908
     30          1           0        3.415318    3.180385   -0.972401
     31          6           0        2.028570   -3.738004   -0.657707
     32          6           0        2.627784   -3.338842    0.690731
     33          1           0        1.219558   -4.460435   -0.545283
     34          1           0        2.773141   -4.123728   -1.351018
     35          1           0        2.605800   -4.143012    1.422147
     36          1           0        3.649190   -2.964937    0.588186
     37         15           0        1.245200   -1.363000   -0.076427
     38         15           0        1.272169    1.342947   -0.031359
     39          8           0        1.901779    2.188180    1.238795
     40          8           0        1.434397    2.551013   -1.137812
     41          8           0        1.475871   -2.520605   -1.229298
     42          8           0        1.773800   -2.275569    1.187463
 ---------------------------------------------------------------------

 SCF Done:  E(RB3LYP) =  -1603.03129318     A.U. after    1 cycles

 The electronic state is 1-A.
 Alpha  occ. eigenvalues --  -77.32060 -77.31999 -19.28429 -19.28224 -19.27925
 Alpha  occ. eigenvalues --  -19.27820 -10.35944 -10.35863 -10.35758 -10.35746
 Alpha  occ. eigenvalues --  -10.31581 -10.31580 -10.31520 -10.31410 -10.31222
 Alpha  occ. eigenvalues --  -10.29491 -10.29483 -10.29280 -10.29253  -6.77207
 Alpha  occ. eigenvalues --   -6.77144  -4.93680  -4.93612  -4.93456  -4.93396
 Alpha  occ. eigenvalues --   -4.93023  -4.92964  -3.34969  -2.12135  -2.11088
 Alpha  occ. eigenvalues --   -2.08277  -1.20896  -1.20785  -1.13821  -1.13769
 Alpha  occ. eigenvalues --   -0.96645  -0.91596  -0.91572  -0.90055  -0.89198
 Alpha  occ. eigenvalues --   -0.85854  -0.82509  -0.80015  -0.76634  -0.76458
 Alpha  occ. eigenvalues --   -0.73171  -0.72651  -0.71648  -0.67869  -0.64578
 Alpha  occ. eigenvalues --   -0.64324  -0.64100  -0.63525  -0.62461  -0.62059
 Alpha  occ. eigenvalues --   -0.60062  -0.59602  -0.59029  -0.58164  -0.57796
 Alpha  occ. eigenvalues --   -0.56519  -0.55617  -0.55138  -0.54695  -0.54538
 Alpha  occ. eigenvalues --   -0.54367  -0.53574  -0.51656  -0.50772  -0.49842
 Alpha  occ. eigenvalues --   -0.49265  -0.48397  -0.48257  -0.48149  -0.48003
 Alpha  occ. eigenvalues --   -0.47888  -0.46637  -0.45270  -0.44914  -0.43460
 Alpha  occ. eigenvalues --   -0.42760  -0.42690  -0.42002  -0.39208  -0.38844
 Alpha  occ. eigenvalues --   -0.38700  -0.38185  -0.36891  -0.33839
 Alpha virt. eigenvalues --   -0.20109  -0.16940  -0.11997  -0.10878  -0.09875
 Alpha virt. eigenvalues --   -0.09601  -0.08336  -0.08167  -0.07470  -0.06513
 Alpha virt. eigenvalues --   -0.05829  -0.05461  -0.05292  -0.04655  -0.03952

 Mulliken charges:
               1
     1  C   -0.542085
     2  H    0.228105
     3  H    0.214938
     4  Rh  -0.598337
     5  C   -0.015645
     6  C   -0.079138
     7  C    0.010789
     8  C   -0.120500
     9  C   -0.351380
    10  H    0.191995
    11  H    0.186626
    12  C   -0.223659
    13  C   -0.351953
    14  H    0.181810
    15  C   -0.220094
    16  H    0.201449
    17  H    0.180022
    18  H    0.170170
    19  H    0.185447
    20  H    0.150366
    21  H    0.169702
    22  H    0.180802
    23  H    0.148462
    24  H    0.183072
    25  C   -0.112621
    26  C   -0.106578
    27  H    0.156154
    28  H    0.165573
    29  H    0.174229
    30  H    0.159062
    31  C   -0.104956
    32  C   -0.114327
    33  H    0.155829
    34  H    0.163849
    35  H    0.175431
    36  H    0.158087
    37  P    0.692175
    38  P    0.698567
    39  O   -0.329711
    40  O   -0.341682
    41  O   -0.340813
    42  O   -0.329234
 Sum of Mulliken charges =   1.00000

 Dipole moment (field-independent basis, Debye):
    X=              1.8458    Y=              0.0756    Z=             -0.3544  Tot=              1.8810
 Quadrupole moment (field-independent basis, Debye-Ang):
   XX=            -98.3277   YY=            -97.3648   ZZ=           -143.5346
   XY=              0.1432   XZ=             -2.2063   YZ=              0.1528

  Exact polarizability: 271.859   0.031 249.221  -1.847  -0.985 185.910
 Approx polarizability: 395.522  -0.465 369.886  -2.974  -3.091 335.132

 Summary of Natural Population Analysis:

                                       Natural Population
                Natural  -----------------------------------------------
    Atom  No    Charge         Core      Valence    Rydberg      Total
 -----------------------------------------------------------------------
      C    1   -1.11128      1.99947     5.09524    0.01658     7.11128
      H    2    0.28193      0.00000     0.71652    0.00155     0.71807
      H    3    0.27567      0.00000     0.72256    0.00177     0.72433
     Rh    4   -0.59209     35.98411     9.58351    0.02447    45.59209
      C    5   -0.14383      1.99907     4.12390    0.02086     6.14383
      C    6   -0.15850      1.99907     4.13789    0.02154     6.15850
      C    7   -0.17139      1.99907     4.15157    0.02075     6.17139
      C    8   -0.13523      1.99907     4.11450    0.02166     6.13523
      C    9   -0.42857      1.99936     4.41718    0.01203     6.42857
      H   10    0.23628      0.00000     0.76225    0.00147     0.76372
      H   11    0.23843      0.00000     0.75997    0.00159     0.76157
      C   12   -0.43004      1.99936     4.41805    0.01263     6.43004
      C   13   -0.42533      1.99936     4.41411    0.01186     6.42533
      H   14    0.23516      0.00000     0.76338    0.00146     0.76484
      C   15   -0.42967      1.99935     4.41767    0.01265     6.42967
      H   16    0.24107      0.00000     0.75737    0.00156     0.75893
      H   17    0.23619      0.00000     0.76243    0.00138     0.76381
      H   18    0.21478      0.00000     0.78319    0.00203     0.78522
      H   19    0.24359      0.00000     0.75472    0.00169     0.75641
      H   20    0.22717      0.00000     0.77135    0.00148     0.77283
      H   21    0.21440      0.00000     0.78358    0.00201     0.78560
      H   22    0.23604      0.00000     0.76258    0.00138     0.76396
      H   23    0.22729      0.00000     0.77121    0.00149     0.77271
      H   24    0.24256      0.00000     0.75570    0.00174     0.75744
      C   25   -0.10505      1.99931     4.08965    0.01609     6.10505
      C   26   -0.11442      1.99932     4.09867    0.01643     6.11442
      H   27    0.18968      0.00000     0.80850    0.00183     0.81032
      H   28    0.21533      0.00000     0.78299    0.00168     0.78467
      H   29    0.22035      0.00000     0.77805    0.00160     0.77965
      H   30    0.18596      0.00000     0.81215    0.00189     0.81404
      C   31   -0.10505      1.99931     4.08968    0.01607     6.10505
      C   32   -0.11581      1.99932     4.09995    0.01654     6.11581
      H   33    0.19036      0.00000     0.80784    0.00180     0.80964
      H   34    0.21423      0.00000     0.78408    0.00169     0.78577
      H   35    0.22132      0.00000     0.77709    0.00160     0.77868
      H   36    0.18442      0.00000     0.81364    0.00195     0.81558
      P   37    1.71232      9.99580     3.20029    0.09159    13.28768
      P   38    1.71591      9.99578     3.19711    0.09120    13.28409
      O   39   -0.73638      1.99984     6.72606    0.01049     8.73638
      O   40   -0.73169      1.99984     6.72160    0.01025     8.73169
      O   41   -0.73889      1.99984     6.72876    0.01030     8.73889
      O   42   -0.72721      1.99984     6.71690    0.01047     8.72721
 =======================================================================
   * Total *    1.00000     89.96548   115.53344    0.50108   206.00000

                      1                      2                      3
                      A                      A                      A
 Frequencies --     19.8545                29.0386                30.3063
 Red. masses --      4.3166                 5.5339                 3.9663
 Frc consts  --      0.0010                 0.0027                 0.0021
 IR Inten    --      0.4131                 1.9089                 0.0110

                      4                      5                      6
                      A                      A                      A
 Frequencies --     52.2834                59.6165                98.5413
 Red. masses --      4.0531                 3.3527                 4.3452
 Frc consts  --      0.0065                 0.0070                 0.0249
 IR Inten    --      1.9015                 2.8781                 1.0982

                      7                      8                      9
                      A                      A                      A
 Frequencies --    118.1483               133.1325               142.6386
 Red. masses --      4.4659                 4.5974                 3.3848
 Frc consts  --      0.0367                 0.0480                 0.0406
 IR Inten    --      0.1674                 1.1997                 1.7107

                     10                     11                     12
                      A                      A                      A
 Frequencies --    165.6960               171.1845               180.3893
 Red. masses --      2.9547                 4.0933                 3.6394
 Frc consts  --      0.0478                 0.0707                 0.0698
 IR Inten    --      0.7466                 1.4905                 5.2286

                     13                     14                     15
                      A                      A                      A
 Frequencies --    187.1845               199.1092               214.4407
 Red. masses --      3.1666                 8.0806                 2.9321
 Frc consts  --      0.0654                 0.1887                 0.0794
 IR Inten    --      0.2897                 2.2674                 0.2625

                     16                     17                     18
                      A                      A                      A
 Frequencies --    216.4862               222.3149               264.7686
 Red. masses --      4.4124                 4.9094                 3.5339
 Frc consts  --      0.1218                 0.1430                 0.1460
 IR Inten    --      4.1983                 0.6357                 1.0707

                     19                     20                     21
                      A                      A                      A
 Frequencies --    268.3259               274.2425               299.4227
 Red. masses --      3.2134                 3.7406                 3.0645
 Frc consts  --      0.1363                 0.1658                 0.1619
 IR Inten    --      1.5104                 1.0507                 2.4353

                     22                     23                     24
                      A                      A                      A
 Frequencies --    325.7517               360.7248               392.1173
 Red. masses --      4.4828                 5.8005                 7.2958
 Frc consts  --      0.2803                 0.4447                 0.6609
 IR Inten    --      0.6472                33.2264                 7.2968

                     25                     26                     27
                      A                      A                      A
 Frequencies --    395.3079               435.4904               495.6633
 Red. masses --      6.8221                 2.4987                 2.5885
 Frc consts  --      0.6281                 0.2792                 0.3747
 IR Inten    --     20.5362                10.1725                 0.3310

                     28                     29                     30
                      A                      A                      A
 Frequencies --    541.3767               561.9011               607.4164
 Red. masses --      2.7851                11.7659                10.7802
 Frc consts  --      0.4809                 2.1887                 2.3434
 IR Inten    --      1.0220                31.8605                23.6014

                     31                     32                     33
                      A                      A                      A
 Frequencies --    619.5118               620.6534               643.2068
 Red. masses --      2.8132                 2.7888                 4.2610
 Frc consts  --      0.6361                 0.6330                 1.0386
 IR Inten    --      2.5831                 1.3762                48.4127

                     34                     35                     36
                      A                      A                      A
 Frequencies --    652.4497               683.8273               686.3932
 Red. masses --      1.9583                 1.8034                 2.0479
 Frc consts  --      0.4912                 0.4969                 0.5685
 IR Inten    --      4.7606                 3.0138                 4.8664

                     37                     38                     39
                      A                      A                      A
 Frequencies --    747.8486               751.4688               767.0171
 Red. masses --      5.8593                 2.0098                 4.6281
 Frc consts  --      1.9307                 0.6687                 1.6042
 IR Inten    --      1.2829                 7.7123               150.3169

                     40                     41                     42
                      A                      A                      A
 Frequencies --    774.0503               782.2374               792.1859
 Red. masses --      1.6946                 5.4681                 8.3511
 Frc consts  --      0.5982                 1.9714                 3.0878
 IR Inten    --     29.2805               209.5553               226.8355

                     43                     44                     45
                      A                      A                      A
 Frequencies --    813.8095               830.8853               849.1435
 Red. masses --      8.4272                 2.3958                 1.9107
 Frc consts  --      3.2883                 0.9745                 0.8117
 IR Inten    --     21.8253                 2.6499                 7.3811

                     46                     47                     48
                      A                      A                      A
 Frequencies --    861.0787               865.1707               866.5523
 Red. masses --      2.5674                 1.9954                 2.0244
 Frc consts  --      1.1216                 0.8800                 0.8956
 IR Inten    --      8.6628                 7.9429                 9.9341

                     49                     50                     51
                      A                      A                      A
 Frequencies --    880.4975               915.3502               916.8230
 Red. masses --      1.7169                 3.1563                 1.8865
 Frc consts  --      0.7842                 1.5581                 0.9343
 IR Inten    --      4.4661               280.3513                16.9756

                     52                     53                     54
                      A                      A                      A
 Frequencies --    921.6420               977.9109               987.8397
 Red. masses --      3.0206                 1.2428                 2.2462
 Frc consts  --      1.5117                 0.7002                 1.2914
 IR Inten    --     99.3377                 0.4406                 0.4641

                     55                     56                     57
                      A                      A                      A
 Frequencies --    999.5881              1001.1610              1004.6485
 Red. masses --      1.5348                 2.6389                 2.5298
 Frc consts  --      0.9035                 1.5584                 1.5044
 IR Inten    --     28.4331                 0.9474                26.4710

                     58                     59                     60
                      A                      A                      A
 Frequencies --   1013.5894              1015.4188              1020.8299
 Red. masses --      5.1242                 1.7661                 1.9195
 Frc consts  --      3.1017                 1.0729                 1.1786
 IR Inten    --    466.4038                27.9128                15.3554

                     61                     62                     63
                      A                      A                      A
 Frequencies --   1023.4109              1024.2585              1097.6241
 Red. masses --      1.8371                 3.3364                 2.0926
 Frc consts  --      1.1337                 2.0623                 1.4854
 IR Inten    --     34.0862               145.9719                 1.6019

                     64                     65                     66
                      A                      A                      A
 Frequencies --   1098.1581              1111.2801              1139.5103
 Red. masses --      1.9876                 1.3914                 1.6621
 Frc consts  --      1.4122                 1.0124                 1.2716
 IR Inten    --      2.3231               124.0638                 8.4580

                     67                     68                     69
                      A                      A                      A
 Frequencies --   1139.8757              1197.4676              1215.3636
 Red. masses --      1.6634                 1.0553                 1.1845
 Frc consts  --      1.2734                 0.8916                 1.0308
 IR Inten    --      6.0014                 1.8676                 5.4043

                     70                     71                     72
                      A                      A                      A
 Frequencies --   1225.3982              1233.2702              1233.5793
 Red. masses --      1.2016                 1.1159                 1.1160
 Frc consts  --      1.0631                 1.0000                 1.0006
 IR Inten    --      0.0573                 3.2415                 2.8005

                     73                     74                     75
                      A                      A                      A
 Frequencies --   1248.6294              1248.8358              1266.4342
 Red. masses --      1.1615                 1.1633                 1.2518
 Frc consts  --      1.0670                 1.0690                 1.1830
 IR Inten    --     17.9353                 5.3361                 4.6971

                     76                     77                     78
                      A                      A                      A
 Frequencies --   1278.0142              1287.6940              1348.5047
 Red. masses --      1.1621                 1.2451                 1.3018
 Frc consts  --      1.1183                 1.2164                 1.3948
 IR Inten    --      0.1433                 0.7809                 0.2420

                     79                     80                     81
                      A                      A                      A
 Frequencies --   1357.3446              1368.6815              1368.8768
 Red. masses --      1.2759                 1.2538                 1.2539
 Frc consts  --      1.3850                 1.3838                 1.3843
 IR Inten    --      4.2008                 0.9291                 0.4257

                     82                     83                     84
                      A                      A                      A
 Frequencies --   1384.8627              1387.7278              1388.8062
 Red. masses --      1.3003                 1.1066                 1.4428
 Frc consts  --      1.4693                 1.2556                 1.6396
 IR Inten    --      0.5582                 8.0506                 6.4668

                     85                     86                     87
                      A                      A                      A
 Frequencies --   1390.5033              1390.9297              1431.4894
 Red. masses --      1.2586                 1.2466                 1.3329
 Frc consts  --      1.4338                 1.4210                 1.6093
 IR Inten    --      4.1601                 7.3434                 0.0406

                     88                     89                     90
                      A                      A                      A
 Frequencies --   1434.6810              1475.9861              1479.2511
 Red. masses --      1.4929                 1.1062                 1.0844
 Frc consts  --      1.8104                 1.4198                 1.3980
 IR Inten    --      0.0151                26.2712                 1.1725

                     91                     92                     93
                      A                      A                      A
 Frequencies --   1501.0013              1513.7631              1514.1926
 Red. masses --      1.1061                 1.0842                 1.0842
 Frc consts  --      1.4682                 1.4637                 1.4646
 IR Inten    --      1.8144                 7.1041                 6.8891

                     94                     95                     96
                      A                      A                      A
 Frequencies --   1521.4540              1521.6012              1530.0624
 Red. masses --      1.0910                 1.0912                 1.0877
 Frc consts  --      1.4880                 1.4885                 1.5003
 IR Inten    --      0.0650                 0.0283                 7.5939

                     97                     98                     99
                      A                      A                      A
 Frequencies --   1586.9524              1596.3145              3013.7674
 Red. masses --      4.4488                 4.3395                 1.0696
 Frc consts  --      6.6011                 6.5152                 5.7237
 IR Inten    --      0.4795                 5.2250                10.9464

                    100                    101                    102
                      A                      A                      A
 Frequencies --   3015.7359              3048.0462              3054.7781
 Red. masses --      1.0687                 1.0566                 1.0679
 Frc consts  --      5.7263                 5.7834                 5.8715
 IR Inten    --      8.7970                 3.9130                23.4342

                    103                    104                    105
                      A                      A                      A
 Frequencies --   3058.0485              3064.8250              3067.8948
 Red. masses --      1.0677                 1.0842                 1.0724
 Frc consts  --      5.8830                 6.0002                 5.9467
 IR Inten    --     25.7366                 5.6991                 4.1175

                    106                    107                    108
                      A                      A                      A
 Frequencies --   3070.3859              3071.6165              3072.0800
 Red. masses --      1.0892                 1.0612                 1.0646
 Frc consts  --      6.0500                 5.8988                 5.9196
 IR Inten    --      4.3315                23.7352                19.2437

                    109                    110                    111
                      A                      A                      A
 Frequencies --   3073.6800              3101.4963              3114.7926
 Red. masses --      1.0608                 1.1043                 1.0977
 Frc consts  --      5.9045                 6.2586                 6.2746
 IR Inten    --     23.4786                13.3182                 6.3184

                    112                    113                    114
                      A                      A                      A
 Frequencies --   3119.8138              3135.2196              3135.4457
 Red. masses --      1.1073                 1.1034                 1.1036
 Frc consts  --      6.3499                 6.3900                 6.3925
 IR Inten    --      2.3819                 4.9515                 5.4649

                    115                    116                    117
                      A                      A                      A
 Frequencies --   3140.8418              3143.3608              3147.4880
 Red. masses --      1.0863                 1.0862                 1.1056
 Frc consts  --      6.3140                 6.3234                 6.4530
 IR Inten    --      0.1968                 1.0486                 5.8354

                    118                    119                    120
                      A                      A                      A
 Frequencies --   3147.6463              3159.4107              3162.5918
 Red. masses --      1.1058                 1.0919                 1.0924
 Frc consts  --      6.4550                 6.4216                 6.4376
 IR Inten    --      5.2165                 2.4411                 5.8476

 - Thermochemistry -
 -------------------
 Temperature   298.150 Kelvin.  Pressure   1.00000 Atm.
 Atom     1 has atomic number  6 and mass  12.00000

 Molecular mass:   407.00414 amu.
 Principal axes and moments of inertia in atomic units:
                           1         2         3
     Eigenvalues --  5998.474996649.59982**********
           X            1.00000  -0.00019  -0.00093
           Y            0.00019   1.00000  -0.00017
           Z            0.00093   0.00017   1.00000
 This molecule is an asymmetric top.
 Rotational symmetry number  1.
 Warning -- assumption of classical behavior for rotation
           may cause significant error
 Rotational temperatures (Kelvin)      0.01444     0.01303     0.00834
 Rotational constants (GHZ):           0.30087     0.27141     0.17376
 Zero-point vibrational energy     905611.5 (Joules/Mol)
                                  216.44634 (Kcal/Mol)
 Warning -- explicit consideration of  32 degrees of freedom as
           vibrations may cause significant error
 Vibrational temperatures:     28.57    41.78    43.60    75.22    85.77
          (Kelvin)            141.78   169.99   191.55   205.23   238.40
                              246.30   259.54   269.32   286.47   308.53
                              311.48   319.86   380.94   386.06   394.57
                              430.80   468.68   519.00   564.17   568.76
                              626.57   713.15   778.92   808.45   873.94
                              891.34   892.98   925.43   938.73   983.88
                              987.57  1075.99  1081.20  1103.57  1113.69
                             1125.47  1139.78  1170.89  1195.46  1221.73
                             1238.90  1244.79  1246.78  1266.84  1316.98
                             1319.10  1326.04  1407.00  1421.28  1438.18
                             1440.45  1445.47  1458.33  1460.96  1468.75
                             1472.46  1473.68  1579.24  1580.00  1598.88
                             1639.50  1640.03  1722.89  1748.64  1763.07
                             1774.40  1774.85  1796.50  1796.80  1822.12
                             1838.78  1852.70  1940.20  1952.92  1969.23
                             1969.51  1992.51  1996.63  1998.18  2000.62
                             2001.24  2059.59  2064.19  2123.61  2128.31
                             2159.61  2177.97  2178.59  2189.03  2189.24
                             2201.42  2283.27  2296.74  4336.14  4338.97
                             4385.46  4395.14  4399.85  4409.60  4414.02
                             4417.60  4419.37  4420.04  4422.34  4462.36
                             4481.49  4488.72  4510.88  4511.21  4518.97
                             4522.60  4528.53  4528.76  4545.69  4550.26

 Zero-point correction=                           0.344929 (Hartree/Particle)
 Thermal correction to Energy=                    0.366286
 Thermal correction to Enthalpy=                  0.367231
 Thermal correction to Gibbs Free Energy=         0.292927
 Sum of electronic and zero-point Energies=          -1602.686364
 Sum of electronic and thermal Energies=             -1602.665007
 Sum of electronic and thermal Enthalpies=           -1602.664063
 Sum of electronic and thermal Free Energies=        -1602.738366

                     E (Thermal)             CV                S
                      KCal/Mol        Cal/Mol-Kelvin    Cal/Mol-Kelvin
 Total                  229.848             81.226            156.385
 Electronic               0.000              0.000              0.000
 Translational            0.889              2.981             43.902
 Rotational               0.889              2.981             34.382
 Vibrational            228.071             75.264             78.101
 Vibration     1          0.593              1.986              6.649
 Vibration     2          0.593              1.984              5.894
 Vibration     3          0.594              1.984              5.809
 Vibration     4          0.596              1.977              4.729
 Vibration     5          0.597              1.974              4.470
 Vibration     6          0.604              1.950              3.483
 Vibration     7          0.608              1.934              3.130
 Vibration     8          0.613              1.920              2.900
 Vibration     9          0.616              1.911              2.768
 Vibration    10          0.624              1.885              2.484
 Vibration    11          0.626              1.878              2.422
 Vibration    12          0.629              1.866              2.324
 Vibration    13          0.632              1.857              2.256
 Vibration    14          0.637              1.841              2.141
 Vibration    15          0.644              1.819              2.006
 Vibration    16          0.645              1.816              1.988
 Vibration    17          0.648              1.807              1.940
 Vibration    18          0.671              1.738              1.630
 Vibration    19          0.673              1.731              1.607
 Vibration    20          0.677              1.721              1.569
 Vibration    21          0.692              1.675              1.420
 Vibration    22          0.710              1.624              1.281
 Vibration    23          0.735              1.553              1.119
 Vibration    24          0.760              1.487              0.992
 Vibration    25          0.762              1.480              0.980
 Vibration    26          0.796              1.393              0.841
 Vibration    27          0.851              1.260              0.669
 Vibration    28          0.896              1.159              0.562
 Vibration    29          0.918              1.114              0.520
 Vibration    30          0.966              1.016              0.437
 Vibration    31          0.979              0.991              0.417
 Vibration    32          0.981              0.988              0.415

                           ! Non-Optimized Parameters !
 Normal termination of Gaussian 16 at Mon Dec 30 08:10:38 2024.
