 Gaussian 16, Revision B.01,
 Gaussian 16:  ES64L-G16RevB.01 20-Dec-2017

 -----------------------------------------------------
 # opt freq b3lyp/genecp pop=npa optcyc=200 scfcyc=200
 -----------------------------------------------------

 ----
 MB-3
 ----
 Symbolic Z-matrix:
 Charge =  1 Multiplicity = 1

 SCF Done:  E(RB3LYP) =  -2535.04592836     A.U. after   16 cycles
 SCF Done:  E(RB3LYP) =  -2535.05381764     A.U. after   12 cycles
 SCF Done:  E(RB3LYP) =  -2535.05528928     A.U. after   11 cycles
 SCF Done:  E(RB3LYP) =  -2535.05582062     A.U. after   11 cycles
 SCF Done:  E(RB3LYP) =  -2535.05633472     A.U. after   12 cycles
 SCF Done:  E(RB3LYP) =  -2535.05642325     A.U. after   12 cycles
 SCF Done:  E(RB3LYP) =  -2535.05660213     A.U. after   12 cycles
 SCF Done:  E(RB3LYP) =  -2535.05669705     A.U. after   11 cycles
 SCF Done:  E(RB3LYP) =  -2535.05670783     A.U. after   10 cycles
 SCF Done:  E(RB3LYP) =  -2535.05671652     A.U. after    9 cycles
 SCF Done:  E(RB3LYP) =  -2535.05671822     A.U. after    9 cycles
 SCF Done:  E(RB3LYP) =  -2535.05671823     A.U. after    8 cycles
 SCF Done:  E(RB3LYP) =  -2535.05671576     A.U. after    8 cycles
 SCF Done:  E(RB3LYP) =  -2535.05671248     A.U. after    8 cycles
 Optimization completed.
    -- Stationary point found.
 Normal termination of Gaussian 16 at Mon Dec 30 01:24:36 2024.

 ------------------------------------------------------------------
 #N Geom=AllCheck Guess=TCheck SCRF=Check GenChk RB3LYP/GenECP Freq
 ------------------------------------------------------------------

 Structure from the checkpoint file:  "/scratch/3319788.1.iqtc08.q/Gau-27126.chk"
 ----
 MB-3
 ----
 Charge =  1 Multiplicity = 1

                         Standard orientation:
 ---------------------------------------------------------------------
 Center     Atomic      Atomic             Coordinates (Angstroms)
 Number     Number       Type             X           Y           Z
 ---------------------------------------------------------------------
      1         15           0       -1.322884   -0.846824    0.097618
      2         15           0        1.391640   -0.723856    0.130534
      3          6           0       -2.269054   -1.456877   -1.461918
      4          6           0        2.451283   -1.270273   -1.379365
      5          6           0        0.087484   -2.056729    0.431442
      6          1           0        0.079061   -2.179084    1.520831
      7          6           0        2.648751   -0.944432    1.568848
      8          6           0       -2.607337   -1.212806    1.480779
      9         45           0       -0.049436    1.072011   -0.013526
     10          6           0       -1.575643    2.663047   -0.737976
     11          6           0       -1.617123    2.610719    0.636531
     12          6           0        1.324463    2.878253    0.476584
     13          6           0        1.378455    2.642006   -0.877983
     14          6           0       -0.860620    3.708882   -1.570037
     15          1           0       -2.304317    2.060515   -1.270385
     16          1           0       -2.403746    2.009382    1.081620
     17          6           0       -0.892991    3.503923    1.609776
     18          6           0        0.512997    3.958836    1.163510
     19          1           0        2.103177    2.424457    1.080792
     20          6           0        0.582661    3.324445   -1.959615
     21          1           0        2.216368    2.055357   -1.241538
     22          1           0       -1.430884    3.859561   -2.487391
     23          1           0       -0.874538    4.663099   -1.045321
     24          1           0       -1.516258    4.381934    1.819390
     25          1           0       -0.814048    2.967726    2.557565
     26          1           0        0.445425    4.830630    0.514245
     27          1           0        1.061340    4.282887    2.048791
     28          1           0        0.557274    2.658199   -2.824254
     29          1           0        1.125969    4.217474   -2.292174
     30          9           0       -2.947533   -2.502518    1.540764
     31          9           0       -3.710091   -0.479286    1.292901
     32          9           0       -2.056172   -0.867526    2.655848
     33          9           0        2.010276   -0.673730    2.718687
     34          9           0        3.137022   -2.185034    1.643215
     35          9           0        3.663249   -0.084301    1.428553
     36          9           0        3.376915   -0.332593   -1.624597
     37          9           0        3.065557   -2.440437   -1.199870
     38          9           0        1.648444   -1.368451   -2.448572
     39          9           0       -1.412308   -1.490031   -2.492671
     40          9           0       -2.805609   -2.669452   -1.315502
     41          9           0       -3.246398   -0.585801   -1.745706
     42          6           0        0.156317   -3.426517   -0.241353
     43          1           0        1.055341   -3.951010    0.083211
     44          1           0       -0.705356   -4.024925    0.055694
     45          1           0        0.170435   -3.358942   -1.327478
 ---------------------------------------------------------------------

 SCF Done:  E(RB3LYP) =  -2535.05671248     A.U. after    1 cycles

 The electronic state is 1-A.
 Alpha  occ. eigenvalues --  -77.31507 -77.31495 -24.86669 -24.86648 -24.86616
 Alpha  occ. eigenvalues --  -24.86616 -24.86610 -24.86580 -24.86564 -24.86522
 Alpha  occ. eigenvalues --  -24.86499 -24.86488 -24.86482 -24.86461 -10.58316
 Alpha  occ. eigenvalues --  -10.58283 -10.58263 -10.58237 -10.38601 -10.34038
 Alpha  occ. eigenvalues --  -10.34004 -10.33872 -10.33857 -10.31937 -10.31486
 Alpha  occ. eigenvalues --  -10.31471 -10.31218 -10.31204  -6.77599  -6.77590
 Alpha  occ. eigenvalues --   -4.93857  -4.93851  -4.93849  -4.93840  -4.93430
 Alpha  occ. eigenvalues --   -4.93420  -3.38004  -2.15181  -2.14258  -2.11184
 Alpha  occ. eigenvalues --   -1.47068  -1.47056  -1.46845  -1.46831  -1.38302
 Alpha  occ. eigenvalues --   -1.38281  -1.38223  -1.38186  -1.38118  -1.38079
 Alpha  occ. eigenvalues --   -1.38025  -1.38014  -0.98947  -0.97616  -0.93929
 Alpha  occ. eigenvalues --   -0.92167  -0.90666  -0.88959  -0.85682  -0.85571
 Alpha  occ. eigenvalues --   -0.84713  -0.83073  -0.82164  -0.80800  -0.77487
 Alpha  occ. eigenvalues --   -0.74975  -0.74904  -0.74782  -0.74726  -0.74711
 Alpha  occ. eigenvalues --   -0.74618  -0.74522  -0.74371  -0.74360  -0.73226
 Alpha  occ. eigenvalues --   -0.72737  -0.70086  -0.67627  -0.66666  -0.65204
 Alpha  occ. eigenvalues --   -0.64285  -0.62509  -0.62499  -0.62214  -0.62162
 Alpha  occ. eigenvalues --   -0.61957  -0.61791  -0.61775  -0.61700  -0.61667
 Alpha  occ. eigenvalues --   -0.60414  -0.60124  -0.59906  -0.59533  -0.59136
 Alpha  occ. eigenvalues --   -0.58970  -0.58149  -0.58050  -0.57856  -0.57763
 Alpha  occ. eigenvalues --   -0.57641  -0.56868  -0.56776  -0.56648  -0.56515
 Alpha  occ. eigenvalues --   -0.56365  -0.56182  -0.56053  -0.55972  -0.53385
 Alpha  occ. eigenvalues --   -0.52869  -0.52105  -0.51155  -0.50869  -0.50237
 Alpha  occ. eigenvalues --   -0.49999  -0.48952  -0.48609  -0.48206  -0.47363
 Alpha  occ. eigenvalues --   -0.46641  -0.42601  -0.42244  -0.41573  -0.41083
 Alpha  occ. eigenvalues --   -0.39946  -0.36990
 Alpha virt. eigenvalues --   -0.22824  -0.21040  -0.16226  -0.14353  -0.13816
 Alpha virt. eigenvalues --   -0.13677  -0.12528  -0.11701  -0.10200  -0.08816
 Alpha virt. eigenvalues --   -0.08754  -0.07658  -0.07118  -0.06540  -0.06490

 Mulliken charges:
               1
     1  P    0.217119
     2  P    0.208891
     3  C    0.418297
     4  C    0.415091
     5  C   -0.478235
     6  H    0.260069
     7  C    0.401757
     8  C    0.395250
     9  Rh  -0.490184
    10  C    0.011250
    11  C   -0.100170
    12  C    0.008794
    13  C   -0.097688
    14  C   -0.352936
    15  H    0.204149
    16  H    0.209727
    17  C   -0.227201
    18  C   -0.355419
    19  H    0.201819
    20  C   -0.226996
    21  H    0.213476
    22  H    0.189020
    23  H    0.177686
    24  H    0.195566
    25  H    0.154667
    26  H    0.178451
    27  H    0.188767
    28  H    0.154565
    29  H    0.195210
    30  F   -0.112537
    31  F   -0.123391
    32  F   -0.130480
    33  F   -0.130307
    34  F   -0.112175
    35  F   -0.123155
    36  F   -0.126955
    37  F   -0.111852
    38  F   -0.130483
    39  F   -0.130693
    40  F   -0.112097
    41  F   -0.126075
    42  C   -0.318775
    43  H    0.176247
    44  H    0.176168
    45  H    0.165767
 Sum of Mulliken charges =   1.00000

 Dipole moment (field-independent basis, Debye):
    X=             -0.2118    Y=              4.5178    Z=              0.1433  Tot=              4.5250
 Quadrupole moment (field-independent basis, Debye-Ang):
   XX=           -182.9196   YY=           -143.5911   ZZ=           -182.6553
   XY=             -1.8007   XZ=             -0.3521   YZ=             -2.5348

  Exact polarizability: 238.472  -2.500 290.271  -1.993  -2.865 207.330
 Approx polarizability: 394.035  -1.951 432.222  -3.578  -4.801 363.374

 Summary of Natural Population Analysis:

                                       Natural Population
                Natural  -----------------------------------------------
    Atom  No    Charge         Core      Valence    Rydberg      Total
 -----------------------------------------------------------------------
      P    1    0.88048      9.99579     4.07070    0.05303    14.11952
      P    2    0.87915      9.99579     4.07206    0.05300    14.12085
      C    3    0.75237      1.99963     3.18870    0.05930     5.24763
      C    4    0.75213      1.99963     3.18898    0.05926     5.24787
      C    5   -0.72787      1.99943     4.70758    0.02087     6.72787
      H    6    0.28371      0.00000     0.71451    0.00178     0.71629
      C    7    0.74986      1.99963     3.19134    0.05917     5.25014
      C    8    0.74917      1.99963     3.19213    0.05906     5.25083
     Rh    9   -0.46160     35.98530     9.44930    0.02700    45.46160
      C   10   -0.14656      1.99907     4.12649    0.02100     6.14656
      C   11   -0.13564      1.99907     4.11515    0.02142     6.13564
      C   12   -0.14645      1.99907     4.12628    0.02109     6.14645
      C   13   -0.13804      1.99908     4.11732    0.02164     6.13804
      C   14   -0.42898      1.99936     4.41765    0.01197     6.42898
      H   15    0.24082      0.00000     0.75764    0.00153     0.75918
      H   16    0.23663      0.00000     0.76173    0.00165     0.76337
      C   17   -0.43059      1.99935     4.41850    0.01274     6.43059
      C   18   -0.42891      1.99936     4.41759    0.01197     6.42891
      H   19    0.23890      0.00000     0.75956    0.00153     0.76110
      C   20   -0.43076      1.99935     4.41864    0.01276     6.43076
      H   21    0.24186      0.00000     0.75659    0.00154     0.75814
      H   22    0.24161      0.00000     0.75703    0.00136     0.75839
      H   23    0.21917      0.00000     0.77887    0.00196     0.78083
      H   24    0.24980      0.00000     0.74853    0.00167     0.75020
      H   25    0.23056      0.00000     0.76793    0.00151     0.76944
      H   26    0.21932      0.00000     0.77872    0.00196     0.78068
      H   27    0.24139      0.00000     0.75724    0.00137     0.75861
      H   28    0.23060      0.00000     0.76788    0.00152     0.76940
      H   29    0.24998      0.00000     0.74835    0.00166     0.75002
      F   30   -0.28835      1.99992     7.27893    0.00951     9.28835
      F   31   -0.29209      1.99992     7.28313    0.00903     9.29209
      F   32   -0.29842      1.99992     7.28937    0.00913     9.29842
      F   33   -0.29803      1.99992     7.28892    0.00919     9.29803
      F   34   -0.28838      1.99992     7.27897    0.00949     9.28838
      F   35   -0.29178      1.99992     7.28268    0.00918     9.29178
      F   36   -0.29493      1.99992     7.28584    0.00917     9.29493
      F   37   -0.28687      1.99992     7.27732    0.00963     9.28687
      F   38   -0.29572      1.99992     7.28660    0.00921     9.29572
      F   39   -0.29583      1.99992     7.28668    0.00923     9.29583
      F   40   -0.28722      1.99992     7.27770    0.00960     9.28722
      F   41   -0.29372      1.99992     7.28471    0.00909     9.29372
      C   42   -0.62201      1.99939     4.61173    0.01088     6.62201
      H   43    0.24524      0.00000     0.75334    0.00142     0.75476
      H   44    0.24523      0.00000     0.75335    0.00142     0.75477
      H   45    0.23075      0.00000     0.76779    0.00146     0.76925
 =======================================================================
   * Total *    1.00000    107.96698   173.36007    0.67296   282.00000

                      1                      2                      3
                      A                      A                      A
 Frequencies --     21.8841                25.0188                26.9836
 Red. masses --     11.2375                12.9896                 5.0978
 Frc consts  --      0.0032                 0.0048                 0.0022
 IR Inten    --      0.6962                 0.2271                 0.1017

                      4                      5                      6
                      A                      A                      A
 Frequencies --     28.4716                32.3815                47.1335
 Red. masses --     10.6681                 9.9929                11.6900
 Frc consts  --      0.0051                 0.0062                 0.0153
 IR Inten    --      0.2883                 0.2168                 0.3829

                      7                      8                      9
                      A                      A                      A
 Frequencies --     48.9777                52.6541                60.0835
 Red. masses --     15.0251                13.5466                 8.5231
 Frc consts  --      0.0212                 0.0221                 0.0181
 IR Inten    --      0.3905                 0.1279                 0.2802

                     10                     11                     12
                      A                      A                      A
 Frequencies --     71.5546                89.3451                92.2198
 Red. masses --     12.2365                11.9739                11.0810
 Frc consts  --      0.0369                 0.0563                 0.0555
 IR Inten    --      2.9067                 0.6870                 1.6700

                     13                     14                     15
                      A                      A                      A
 Frequencies --     93.4707               102.3070               122.7414
 Red. masses --     13.6617                14.9756                 4.0569
 Frc consts  --      0.0703                 0.0924                 0.0360
 IR Inten    --      0.7766                 2.8485                 0.2009

                     16                     17                     18
                      A                      A                      A
 Frequencies --    141.6590               152.5921               165.7421
 Red. masses --      5.0927                 3.0008                 4.0240
 Frc consts  --      0.0602                 0.0412                 0.0651
 IR Inten    --      1.2293                 0.8976                 2.5934

                     19                     20                     21
                      A                      A                      A
 Frequencies --    178.1553               184.7202               195.8656
 Red. masses --     16.1297                 4.1653                 3.9256
 Frc consts  --      0.3016                 0.0837                 0.0887
 IR Inten    --      0.7649                 0.5408                 0.1682

                     22                     23                     24
                      A                      A                      A
 Frequencies --    197.7643               226.9705               234.5632
 Red. masses --      4.5405                 4.2830                15.5404
 Frc consts  --      0.1046                 0.1300                 0.5038
 IR Inten    --      1.6202                 0.0320                 4.1414

                     25                     26                     27
                      A                      A                      A
 Frequencies --    236.0370               238.4835               248.9416
 Red. masses --     14.5540                17.3380                13.7763
 Frc consts  --      0.4777                 0.5810                 0.5030
 IR Inten    --      0.0629                 7.8257                 0.0615

                     28                     29                     30
                      A                      A                      A
 Frequencies --    253.7641               258.2501               271.0782
 Red. masses --      1.1408                 6.5985                16.9963
 Frc consts  --      0.0433                 0.2593                 0.7359
 IR Inten    --      0.0030                 0.0083                 0.5079

                     31                     32                     33
                      A                      A                      A
 Frequencies --    275.1671               281.1270               299.7219
 Red. masses --     16.6742                 4.7395                 3.1278
 Frc consts  --      0.7439                 0.2207                 0.1655
 IR Inten    --      0.2876                 4.6077                 2.0795

                     34                     35                     36
                      A                      A                      A
 Frequencies --    314.7877               328.9536               372.7506
 Red. masses --      6.1102                 4.7431                 5.2837
 Frc consts  --      0.3567                 0.3024                 0.4325
 IR Inten    --     12.5166                 3.9541                 7.7826

                     37                     38                     39
                      A                      A                      A
 Frequencies --    391.1339               396.7860               437.5506
 Red. masses --      8.0083                 9.0306                 2.5631
 Frc consts  --      0.7218                 0.8377                 0.2891
 IR Inten    --     11.2730                10.7849                14.4699

                     40                     41                     42
                      A                      A                      A
 Frequencies --    455.5853               460.4230               491.2323
 Red. masses --     20.7466                18.3679                 7.1154
 Frc consts  --      2.5371                 2.2942                 1.0116
 IR Inten    --     53.7463                 1.0389                35.6709

                     43                     44                     45
                      A                      A                      A
 Frequencies --    496.7051               505.4625               528.1605
 Red. masses --      3.7387                 9.4872                16.3150
 Frc consts  --      0.5435                 1.4281                 2.6815
 IR Inten    --      8.5923                13.6502                 0.6477

                     46                     47                     48
                      A                      A                      A
 Frequencies --    528.6594               531.4149               535.3631
 Red. masses --     17.7802                16.4170                17.6552
 Frc consts  --      2.9278                 2.7316                 2.9814
 IR Inten    --      0.0255                 1.2825                 0.0099

                     49                     50                     51
                      A                      A                      A
 Frequencies --    542.2629               547.1643               554.0287
 Red. masses --      3.1544                10.7388                11.8749
 Frc consts  --      0.5465                 1.8943                 2.1476
 IR Inten    --      1.7642                 0.1599                17.6869

                     52                     53                     54
                      A                      A                      A
 Frequencies --    555.0871               576.2241               650.8907
 Red. masses --     16.7217                19.0830                 6.7046
 Frc consts  --      3.0357                 3.7332                 1.6735
 IR Inten    --     23.4728                48.2218                33.7295

                     55                     56                     57
                      A                      A                      A
 Frequencies --    663.6042               688.6020               689.0520
 Red. masses --      4.3653                 1.6815                 2.5345
 Frc consts  --      1.1326                 0.4698                 0.7090
 IR Inten    --     27.5582                 1.7617                 7.8182

                     58                     59                     60
                      A                      A                      A
 Frequencies --    746.7350               747.3326               749.4031
 Red. masses --     17.0338                16.1016                16.9730
 Frc consts  --      5.5962                 5.2984                 5.6162
 IR Inten    --      5.4334                 0.9544                 0.0877

                     61                     62                     63
                      A                      A                      A
 Frequencies --    751.2085               762.4149               783.2884
 Red. masses --     16.6972                 2.2563                 1.4285
 Frc consts  --      5.5515                 0.7727                 0.5164
 IR Inten    --     11.2449                 7.3053                13.3018

                     64                     65                     66
                      A                      A                      A
 Frequencies --    833.6818               860.9606               862.7093
 Red. masses --      2.3011                 1.7467                 2.5257
 Frc consts  --      0.9423                 0.7628                 1.1075
 IR Inten    --      6.5110                 5.3681                 7.7520

                     67                     68                     69
                      A                      A                      A
 Frequencies --    878.7889               918.6292               985.7944
 Red. masses --      1.6305                 1.8033                 1.4019
 Frc consts  --      0.7419                 0.8966                 0.8027
 IR Inten    --      2.6337                 1.9107                 1.1890

                     70                     71                     72
                      A                      A                      A
 Frequencies --    986.2819              1007.7789              1020.6614
 Red. masses --      2.2018                 1.3256                 2.2284
 Frc consts  --      1.2619                 0.7932                 1.3677
 IR Inten    --      0.1510                12.2127                 0.2728

                     73                     74                     75
                      A                      A                      A
 Frequencies --   1023.4577              1029.2139              1063.6388
 Red. masses --      1.7511                 1.3209                 1.8774
 Frc consts  --      1.0807                 0.8244                 1.2514
 IR Inten    --      2.0671                 0.2448                29.4891

                     76                     77                     78
                      A                      A                      A
 Frequencies --   1064.1457              1096.6040              1100.6540
 Red. masses --      2.0000                 2.2648                 1.8454
 Frc consts  --      1.3344                 1.6047                 1.3172
 IR Inten    --     32.2331                 3.4257                 6.2249

                     79                     80                     81
                      A                      A                      A
 Frequencies --   1104.2531              1108.3879              1119.6915
 Red. masses --      6.9276                11.2737                11.4637
 Frc consts  --      4.9770                 8.1602                 8.4678
 IR Inten    --      1.3330               411.4378               100.7357

                     82                     83                     84
                      A                      A                      A
 Frequencies --   1122.8537              1133.5674              1145.1788
 Red. masses --     11.5570                12.6129                12.7994
 Frc consts  --      8.5851                 9.5491                 9.8898
 IR Inten    --     68.1745               254.5317               136.5176

                     85                     86                     87
                      A                      A                      A
 Frequencies --   1149.9676              1156.6918              1169.7709
 Red. masses --      8.5402                10.6932                 5.5935
 Frc consts  --      6.6541                 8.4293                 4.5096
 IR Inten    --     41.0885                31.9492               332.8072

                     88                     89                     90
                      A                      A                      A
 Frequencies --   1176.3750              1179.5619              1193.0289
 Red. masses --     10.6299                 2.4412                 3.4490
 Frc consts  --      8.6670                 2.0012                 2.8923
 IR Inten    --    282.6406               371.2600               185.3748

                     91                     92                     93
                      A                      A                      A
 Frequencies --   1196.7126              1199.5248              1215.0467
 Red. masses --      8.6708                 1.1142                 1.1958
 Frc consts  --      7.3163                 0.9445                 1.0401
 IR Inten    --    439.1913                 0.5766                 6.5638

                     94                     95                     96
                      A                      A                      A
 Frequencies --   1225.4940              1267.5689              1277.3494
 Red. masses --      1.2007                 1.2467                 1.1730
 Frc consts  --      1.0624                 1.1802                 1.1276
 IR Inten    --      0.8450                 3.9386                 0.7594

                     97                     98                     99
                      A                      A                      A
 Frequencies --   1279.5047              1287.4793              1348.1416
 Red. masses --      1.2923                 1.2612                 1.3064
 Frc consts  --      1.2465                 1.2318                 1.3990
 IR Inten    --      2.2455                 0.2105                 0.1341

                    100                    101                    102
                      A                      A                      A
 Frequencies --   1356.9393              1385.6458              1389.9923
 Red. masses --      1.2800                 1.2957                 1.4586
 Frc consts  --      1.3886                 1.4658                 1.6604
 IR Inten    --      5.6088                 0.2249                 6.1388

                    103                    104                    105
                      A                      A                      A
 Frequencies --   1431.2569              1432.2586              1434.7052
 Red. masses --      1.3373                 1.1732                 1.5006
 Frc consts  --      1.6141                 1.4180                 1.8199
 IR Inten    --      0.0322                 0.8020                 0.0035

                    106                    107                    108
                      A                      A                      A
 Frequencies --   1475.1893              1478.5696              1499.8928
 Red. masses --      1.1128                 1.0854                 1.0399
 Frc consts  --      1.4268                 1.3981                 1.3783
 IR Inten    --     29.4941                 1.5634                14.8065

                    109                    110                    111
                      A                      A                      A
 Frequencies --   1501.4662              1505.8045              1531.9145
 Red. masses --      1.1067                 1.0437                 1.0887
 Frc consts  --      1.4699                 1.3943                 1.5054
 IR Inten    --      1.8017                 8.7075                 8.0197

                    112                    113                    114
                      A                      A                      A
 Frequencies --   1576.0505              1586.6462              3017.8382
 Red. masses --      4.2240                 4.1525                 1.0689
 Frc consts  --      6.1817                 6.1592                 5.7359
 IR Inten    --      0.4280                12.0205                 7.4311

                    115                    116                    117
                      A                      A                      A
 Frequencies --   3018.1477              3035.3617              3059.1474
 Red. masses --      1.0691                 1.0825                 1.0348
 Frc consts  --      5.7378                 5.8760                 5.7059
 IR Inten    --      1.9834                 7.9469                 0.8831

                    118                    119                    120
                      A                      A                      A
 Frequencies --   3069.0004              3071.0591              3073.1079
 Red. masses --      1.0790                 1.0925                 1.0742
 Frc consts  --      5.9879                 6.0708                 5.9771
 IR Inten    --      4.5879                 0.4869                 2.4586

                    121                    122                    123
                      A                      A                      A
 Frequencies --   3075.9878              3106.3980              3117.4581
 Red. masses --      1.0637                 1.1047                 1.0990
 Frc consts  --      5.9299                 6.2809                 6.2927
 IR Inten    --     14.9667                 9.8591                 3.5050

                    124                    125                    126
                      A                      A                      A
 Frequencies --   3126.5342              3145.0311              3145.3873
 Red. masses --      1.1034                 1.1038                 1.0860
 Frc consts  --      6.3548                 6.4329                 6.3306
 IR Inten    --      0.2204                 0.7933                 0.2839

                    127                    128                    129
                      A                      A                      A
 Frequencies --   3146.6392              3160.2723              3162.9842
 Red. masses --      1.0861                 1.0916                 1.0926
 Frc consts  --      6.3360                 6.4236                 6.4401
 IR Inten    --      0.2967                 0.7176                 6.1485

 - Thermochemistry -
 -------------------
 Temperature   298.150 Kelvin.  Pressure   1.00000 Atm.
 Atom     1 has atomic number 15 and mass  30.97376

 Molecular mass:   576.95837 amu.
 Principal axes and moments of inertia in atomic units:
                           1         2         3
     Eigenvalues --  ******************************
           X            0.99924  -0.03899  -0.00233
           Y            0.03897   0.99922  -0.00682
           Z            0.00260   0.00672   0.99997
 This molecule is an asymmetric top.
 Rotational symmetry number  1.
 Warning -- assumption of classical behavior for rotation
           may cause significant error
 Rotational temperatures (Kelvin)      0.00732     0.00678     0.00526
 Rotational constants (GHZ):           0.15248     0.14127     0.10962
 Zero-point vibrational energy     787405.6 (Joules/Mol)
                                  188.19445 (Kcal/Mol)
 Warning -- explicit consideration of  53 degrees of freedom as
           vibrations may cause significant error
 Vibrational temperatures:     31.49    36.00    38.82    40.96    46.59
          (Kelvin)             67.81    70.47    75.76    86.45   102.95
                              128.55   132.68   134.48   147.20   176.60
                              203.82   219.55   238.47   256.33   265.77
                              281.81   284.54   326.56   337.48   339.60
                              343.12   358.17   365.11   371.56   390.02
                              395.90   404.48   431.23   452.91   473.29
                              536.30   562.75   570.89   629.54   655.49
                              662.45   706.77   714.65   727.25   759.91
                              760.62   764.59   770.27   780.20   787.25
                              797.12   798.65   829.06   936.49   954.78
                              990.74   991.39  1074.39  1075.24  1078.22
                             1080.82  1096.95  1126.98  1199.48  1238.73
                             1241.25  1264.38  1321.70  1418.34  1419.04
                             1449.97  1468.50  1472.53  1480.81  1530.34
                             1531.07  1577.77  1583.60  1588.77  1594.72
                             1610.99  1615.54  1630.95  1647.66  1654.55
                             1664.22  1683.04  1692.54  1697.13  1716.50
                             1721.80  1725.85  1748.18  1763.21  1823.75
                             1837.82  1840.92  1852.40  1939.68  1952.33
                             1993.64  1999.89  2059.26  2060.70  2064.22
                             2122.47  2127.33  2158.01  2160.27  2166.52
                             2204.08  2267.59  2282.83  4342.00  4342.44
                             4367.21  4401.43  4415.61  4418.57  4421.52
                             4425.66  4469.41  4485.33  4498.39  4525.00
                             4525.51  4527.31  4546.93  4550.83

 Zero-point correction=                           0.299907 (Hartree/Particle)
 Thermal correction to Energy=                    0.331517
 Thermal correction to Enthalpy=                  0.332461
 Thermal correction to Gibbs Free Energy=         0.233702
 Sum of electronic and zero-point Energies=          -2534.756806
 Sum of electronic and thermal Energies=             -2534.725195
 Sum of electronic and thermal Enthalpies=           -2534.724251
 Sum of electronic and thermal Free Energies=        -2534.823011

                     E (Thermal)             CV                S
                      KCal/Mol        Cal/Mol-Kelvin    Cal/Mol-Kelvin
 Total                  208.030            113.491            207.857
 Electronic               0.000              0.000              0.000
 Translational            0.889              2.981             44.942
 Rotational               0.889              2.981             36.163
 Vibrational            206.253            107.529            126.752
 Vibration     1          0.593              1.985              6.455
 Vibration     2          0.593              1.985              6.190
 Vibration     3          0.593              1.984              6.040
 Vibration     4          0.593              1.984              5.933
 Vibration     5          0.594              1.983              5.678
 Vibration     6          0.595              1.979              4.934
 Vibration     7          0.595              1.978              4.858
 Vibration     8          0.596              1.977              4.715
 Vibration     9          0.597              1.973              4.454
 Vibration    10          0.598              1.968              4.110
 Vibration    11          0.602              1.957              3.674
 Vibration    12          0.602              1.955              3.612
 Vibration    13          0.602              1.954              3.586
 Vibration    14          0.604              1.947              3.410
 Vibration    15          0.610              1.930              3.057
 Vibration    16          0.615              1.912              2.781
 Vibration    17          0.619              1.900              2.640
 Vibration    18          0.624              1.885              2.483
 Vibration    19          0.629              1.869              2.348
 Vibration    20          0.631              1.861              2.280
 Vibration    21          0.636              1.846              2.172
 Vibration    22          0.637              1.843              2.154
 Vibration    23          0.651              1.800              1.903
 Vibration    24          0.654              1.788              1.844
 Vibration    25          0.655              1.786              1.833
 Vibration    26          0.656              1.782              1.814
 Vibration    27          0.662              1.765              1.738
 Vibration    28          0.665              1.756              1.704
 Vibration    29          0.667              1.749              1.674
 Vibration    30          0.675              1.727              1.589
 Vibration    31          0.677              1.719              1.564
 Vibration    32          0.681              1.709              1.527
 Vibration    33          0.692              1.674              1.418
 Vibration    34          0.702              1.645              1.337
 Vibration    35          0.712              1.618              1.265
 Vibration    36          0.744              1.528              1.068
 Vibration    37          0.759              1.489              0.996
 Vibration    38          0.763              1.477              0.975
 Vibration    39          0.798              1.388              0.834
 Vibration    40          0.814              1.349              0.779
 Vibration    41          0.818              1.338              0.765
 Vibration    42          0.847              1.269              0.680
 Vibration    43          0.852              1.257              0.666
 Vibration    44          0.861              1.238              0.645
 Vibration    45          0.883              1.188              0.591
 Vibration    46          0.884              1.187              0.590
 Vibration    47          0.886              1.181              0.584
 Vibration    48          0.890              1.172              0.575
 Vibration    49          0.897              1.157              0.560
 Vibration    50          0.902              1.146              0.550
 Vibration    51          0.909              1.131              0.536
 Vibration    52          0.911              1.129              0.534
 Vibration    53          0.933              1.083              0.492

                           ! Non-Optimized Parameters !
 Normal termination of Gaussian 16 at Mon Dec 30 02:27:00 2024.
