 Gaussian 16, Revision B.01,
 Gaussian 16:  ES64L-G16RevB.01 20-Dec-2017

 -----------------------------------------------------
 # opt freq b3lyp/genecp pop=npa optcyc=200 scfcyc=200
 -----------------------------------------------------

 ----
 MB-1
 ----
 Symbolic Z-matrix:
 Charge =  1 Multiplicity = 1

 SCF Done:  E(RB3LYP) =  -1304.25465801     A.U. after   17 cycles
 SCF Done:  E(RB3LYP) =  -1304.34237374     A.U. after   13 cycles
 SCF Done:  E(RB3LYP) =  -1304.39685181     A.U. after   14 cycles
 SCF Done:  E(RB3LYP) =  -1304.41082646     A.U. after   13 cycles
 SCF Done:  E(RB3LYP) =  -1304.42853927     A.U. after   14 cycles
 SCF Done:  E(RB3LYP) =  -1304.43225182     A.U. after   12 cycles
 SCF Done:  E(RB3LYP) =  -1304.43482089     A.U. after   12 cycles
 SCF Done:  E(RB3LYP) =  -1304.43655662     A.U. after   12 cycles
 SCF Done:  E(RB3LYP) =  -1304.43792246     A.U. after   12 cycles
 SCF Done:  E(RB3LYP) =  -1304.43958723     A.U. after   12 cycles
 SCF Done:  E(RB3LYP) =  -1304.44402345     A.U. after   11 cycles
 SCF Done:  E(RB3LYP) =  -1304.44404184     A.U. after   11 cycles
 SCF Done:  E(RB3LYP) =  -1304.44405324     A.U. after   11 cycles
 SCF Done:  E(RB3LYP) =  -1304.44405797     A.U. after   10 cycles
 SCF Done:  E(RB3LYP) =  -1304.44406138     A.U. after   10 cycles
 SCF Done:  E(RB3LYP) =  -1304.44406245     A.U. after   10 cycles
 SCF Done:  E(RB3LYP) =  -1304.44406375     A.U. after    9 cycles
 SCF Done:  E(RB3LYP) =  -1304.44406458     A.U. after   10 cycles
 SCF Done:  E(RB3LYP) =  -1304.44406466     A.U. after    8 cycles
 Optimization completed.
    -- Stationary point found.
 Normal termination of Gaussian 16 at Thu Dec  5 18:20:31 2024.

 ------------------------------------------------------------------
 #N Geom=AllCheck Guess=TCheck SCRF=Check GenChk RB3LYP/GenECP Freq
 ------------------------------------------------------------------

 Structure from the checkpoint file:  "/scratch/3306309.1.iqtc08.q/Gau-7664.chk"
 ----
 MB-1
 ----
 Charge =  1 Multiplicity = 1

                         Standard orientation:
 ---------------------------------------------------------------------
 Center     Atomic      Atomic             Coordinates (Angstroms)
 Number     Number       Type             X           Y           Z
 ---------------------------------------------------------------------
      1         15           0       -1.662809    1.390135   -0.115217
      2         15           0       -1.673197   -1.389772    0.022598
      3          6           0       -1.924762    2.592023   -1.490055
      4          1           0       -1.694912    2.115286   -2.442290
      5          1           0       -1.255718    3.443400   -1.359277
      6          1           0       -2.955484    2.949804   -1.500955
      7          6           0       -1.972609   -2.735926   -1.203002
      8          1           0       -1.320746   -3.581642   -0.980609
      9          1           0       -1.744159   -2.377415   -2.206138
     10          1           0       -3.010506   -3.070154   -1.164175
     11          6           0       -2.875136   -0.011797   -0.379942
     12          1           0       -3.163929   -0.062499   -1.431122
     13          1           0       -3.780353    0.021799    0.228128
     14          6           0       -2.251775   -2.112216    1.619221
     15          1           0       -3.269586   -2.494289    1.524432
     16          1           0       -2.219626   -1.355843    2.402495
     17          1           0       -1.589759   -2.929245    1.907429
     18          6           0       -2.255170    2.295512    1.380056
     19          1           0       -1.591115    3.136432    1.582229
     20          1           0       -2.240309    1.633846    2.245352
     21          1           0       -3.268263    2.671417    1.227961
     22         45           0        0.225163   -0.003312    0.015160
     23          6           0        1.894933    1.416958   -0.642579
     24          6           0        1.750309    1.503572    0.725224
     25          6           0        1.893496   -1.421579    0.677226
     26          6           0        1.754627   -1.507918   -0.691250
     27          6           0        2.981816    0.646901   -1.369045
     28          1           0        1.371745    2.155597   -1.240169
     29          1           0        1.154195    2.325559    1.109440
     30          6           0        2.573994    0.795806    1.772168
     31          6           0        2.975498   -0.650691    1.409602
     32          1           0        1.366994   -2.160605    1.271896
     33          6           0        2.583709   -0.799487   -1.733714
     34          1           0        1.163155   -2.331257   -1.078677
     35          1           0        3.224271    1.178778   -2.290327
     36          1           0        3.893561    0.651786   -0.772584
     37          1           0        3.473284    1.384349    1.992160
     38          1           0        1.994115    0.784283    2.697608
     39          1           0        3.890939   -0.654632    0.818814
     40          1           0        3.212887   -1.181903    2.332548
     41          1           0        2.008989   -0.788403   -2.662305
     42          1           0        3.484526   -1.387822   -1.948250
 ---------------------------------------------------------------------

 SCF Done:  E(RB3LYP) =  -1304.44406466     A.U. after    1 cycles

 The electronic state is 1-A.
 Alpha  occ. eigenvalues --  -77.25333 -77.25328 -10.31975 -10.30584 -10.30561
 Alpha  occ. eigenvalues --  -10.30468 -10.30445 -10.30440 -10.30421 -10.30413
 Alpha  occ. eigenvalues --  -10.30333 -10.28765 -10.28755 -10.28522 -10.28501
 Alpha  occ. eigenvalues --   -6.71366  -6.71361  -4.87666  -4.87660  -4.87575
 Alpha  occ. eigenvalues --   -4.87570  -4.87255  -4.87249  -3.33084  -2.10007
 Alpha  occ. eigenvalues --   -2.09332  -2.06490  -0.95813  -0.92220  -0.90621
 Alpha  occ. eigenvalues --   -0.89285  -0.88669  -0.83121  -0.83056  -0.82892
 Alpha  occ. eigenvalues --   -0.81685  -0.79159  -0.71862  -0.68690  -0.68416
 Alpha  occ. eigenvalues --   -0.67228  -0.63795  -0.61463  -0.58681  -0.58513
 Alpha  occ. eigenvalues --   -0.57857  -0.57435  -0.56750  -0.56062  -0.55964
 Alpha  occ. eigenvalues --   -0.54866  -0.54129  -0.53987  -0.53866  -0.53715
 Alpha  occ. eigenvalues --   -0.53615  -0.53131  -0.52332  -0.49563  -0.49149
 Alpha  occ. eigenvalues --   -0.48276  -0.47723  -0.47610  -0.47228  -0.45095
 Alpha  occ. eigenvalues --   -0.44742  -0.44542  -0.43944  -0.42804  -0.38486
 Alpha  occ. eigenvalues --   -0.38010  -0.36674  -0.36243  -0.35365  -0.32294
 Alpha virt. eigenvalues --   -0.17805  -0.15244  -0.10874  -0.10247  -0.10089
 Alpha virt. eigenvalues --   -0.09337  -0.08497  -0.07548  -0.07183  -0.06299
 Alpha virt. eigenvalues --   -0.06020  -0.05476  -0.05143  -0.04590  -0.03722

 Mulliken charges:
               1
     1  P    0.356069
     2  P    0.360916
     3  C   -0.419416
     4  H    0.161608
     5  H    0.163806
     6  H    0.166474
     7  C   -0.430489
     8  H    0.166540
     9  H    0.162545
    10  H    0.168293
    11  C   -0.561297
    12  H    0.209844
    13  H    0.213516
    14  C   -0.419576
    15  H    0.164064
    16  H    0.153585
    17  H    0.164080
    18  C   -0.424879
    19  H    0.164539
    20  H    0.154619
    21  H    0.165470
    22  Rh  -0.504574
    23  C   -0.015140
    24  C   -0.085161
    25  C   -0.008338
    26  C   -0.096602
    27  C   -0.350230
    28  H    0.176630
    29  H    0.170653
    30  C   -0.218731
    31  C   -0.346249
    32  H    0.170452
    33  C   -0.219043
    34  H    0.180396
    35  H    0.173090
    36  H    0.169908
    37  H    0.175839
    38  H    0.134613
    39  H    0.168683
    40  H    0.173385
    41  H    0.133505
    42  H    0.176602
 Sum of Mulliken charges =   1.00000

 Dipole moment (field-independent basis, Debye):
    X=             -3.4181    Y=              0.0102    Z=             -0.1285  Tot=              3.4205
 Quadrupole moment (field-independent basis, Debye-Ang):
   XX=            -94.0705   YY=           -103.9139   ZZ=           -114.7438
   XY=              0.0469   XZ=              0.2240   YZ=             -0.4394

  Exact polarizability: 262.218   0.020 225.723  -0.371   1.079 198.121
 Approx polarizability: 389.168   0.054 363.246   0.498   2.878 344.339

 Summary of Natural Population Analysis:

                                       Natural Population
                Natural  -----------------------------------------------
    Atom  No    Charge         Core      Valence    Rydberg      Total
 -----------------------------------------------------------------------
      P    1    1.12803      9.99679     3.82727    0.04790    13.87197
      P    2    1.12747      9.99679     3.82784    0.04789    13.87253
      C    3   -0.89945      1.99942     4.89070    0.00933     6.89945
      H    4    0.24452      0.00000     0.75440    0.00109     0.75548
      H    5    0.24433      0.00000     0.75458    0.00109     0.75567
      H    6    0.24115      0.00000     0.75713    0.00172     0.75885
      C    7   -0.90077      1.99942     4.89218    0.00916     6.90077
      H    8    0.24440      0.00000     0.75453    0.00107     0.75560
      H    9    0.24419      0.00000     0.75474    0.00107     0.75581
      H   10    0.24175      0.00000     0.75651    0.00174     0.75825
      C   11   -0.98611      1.99946     4.96993    0.01672     6.98611
      H   12    0.26175      0.00000     0.73691    0.00133     0.73825
      H   13    0.25591      0.00000     0.74216    0.00193     0.74409
      C   14   -0.89700      1.99942     4.88804    0.00953     6.89700
      H   15    0.23881      0.00000     0.75937    0.00182     0.76119
      H   16    0.24145      0.00000     0.75742    0.00113     0.75855
      H   17    0.24485      0.00000     0.75406    0.00109     0.75515
      C   18   -0.89808      1.99942     4.88913    0.00952     6.89808
      H   19    0.24425      0.00000     0.75467    0.00108     0.75575
      H   20    0.24141      0.00000     0.75747    0.00112     0.75859
      H   21    0.23934      0.00000     0.75883    0.00182     0.76066
     Rh   22   -0.47905     35.98549     9.46792    0.02564    45.47905
      C   23   -0.16151      1.99905     4.14237    0.02009     6.16151
      C   24   -0.15291      1.99904     4.13324    0.02062     6.15291
      C   25   -0.16749      1.99905     4.14836    0.02008     6.16749
      C   26   -0.14810      1.99904     4.12840    0.02066     6.14810
      C   27   -0.42373      1.99936     4.41235    0.01202     6.42373
      H   28    0.22591      0.00000     0.77256    0.00153     0.77409
      H   29    0.22240      0.00000     0.77586    0.00174     0.77760
      C   30   -0.42330      1.99936     4.41147    0.01248     6.42330
      C   31   -0.42323      1.99937     4.41191    0.01195     6.42323
      H   32    0.22666      0.00000     0.77181    0.00153     0.77334
      C   33   -0.42314      1.99936     4.41127    0.01251     6.42314
      H   34    0.22254      0.00000     0.77576    0.00170     0.77746
      H   35    0.23136      0.00000     0.76724    0.00140     0.76864
      H   36    0.21331      0.00000     0.78468    0.00202     0.78669
      H   37    0.23721      0.00000     0.76103    0.00176     0.76279
      H   38    0.21980      0.00000     0.77868    0.00152     0.78020
      H   39    0.21312      0.00000     0.78486    0.00202     0.78688
      H   40    0.23156      0.00000     0.76703    0.00140     0.76844
      H   41    0.21941      0.00000     0.77907    0.00152     0.78059
      H   42    0.23693      0.00000     0.76130    0.00176     0.76307
 =======================================================================
   * Total *    1.00000     81.96985    95.68506    0.34509   178.00000

                      1                      2                      3
                      A                      A                      A
 Frequencies --     26.9763                36.5618                48.1861
 Red. masses --      2.7910                 3.4969                 4.0484
 Frc consts  --      0.0012                 0.0028                 0.0055
 IR Inten    --      0.0770                 0.0138                 0.7609

                      4                      5                      6
                      A                      A                      A
 Frequencies --     77.7979               126.7066               132.3396
 Red. masses --      3.8926                 2.7926                 3.0782
 Frc consts  --      0.0139                 0.0264                 0.0318
 IR Inten    --      0.3357                 0.0017                 0.2489

                      7                      8                      9
                      A                      A                      A
 Frequencies --    141.2420               165.8893               170.7381
 Red. masses --      3.3766                 2.2981                 2.2043
 Frc consts  --      0.0397                 0.0373                 0.0379
 IR Inten    --      0.3124                 0.0807                 0.8070

                     10                     11                     12
                      A                      A                      A
 Frequencies --    177.2559               186.0547               188.9979
 Red. masses --      1.5501                 1.0659                 1.4985
 Frc consts  --      0.0287                 0.0217                 0.0315
 IR Inten    --      0.1269                 0.0193                 0.3506

                     13                     14                     15
                      A                      A                      A
 Frequencies --    191.9000               195.9824               204.3281
 Red. masses --      1.8080                 2.2242                 1.4168
 Frc consts  --      0.0392                 0.0503                 0.0349
 IR Inten    --      0.4024                 1.1922                 0.2950

                     16                     17                     18
                      A                      A                      A
 Frequencies --    209.1287               212.8525               219.1643
 Red. masses --      2.1112                 2.4225                 3.3297
 Frc consts  --      0.0544                 0.0647                 0.0942
 IR Inten    --      0.6234                 1.2875                 3.5137

                     19                     20                     21
                      A                      A                      A
 Frequencies --    259.8186               269.3425               279.0972
 Red. masses --      2.8275                 2.1120                 5.2787
 Frc consts  --      0.1125                 0.0903                 0.2423
 IR Inten    --      2.6869                 3.0854                 7.4803

                     22                     23                     24
                      A                      A                      A
 Frequencies --    296.0737               306.9225               321.5729
 Red. masses --      3.0386                 4.6850                 4.1823
 Frc consts  --      0.1569                 0.2600                 0.2548
 IR Inten    --      5.4398                22.3162                 4.1522

                     25                     26                     27
                      A                      A                      A
 Frequencies --    334.5253               346.8577               398.8875
 Red. masses --      4.8088                 4.7015                 5.0107
 Frc consts  --      0.3171                 0.3333                 0.4697
 IR Inten    --      0.1561                 2.9660                 0.0540

                     28                     29                     30
                      A                      A                      A
 Frequencies --    448.1386               497.9770               549.2706
 Red. masses --      2.5504                 2.7025                 2.7977
 Frc consts  --      0.3018                 0.3949                 0.4973
 IR Inten    --      8.7627                 0.1938                 0.3078

                     31                     32                     33
                      A                      A                      A
 Frequencies --    641.9048               652.7187               686.3709
 Red. masses --      4.2941                 2.8982                 1.7922
 Frc consts  --      1.0425                 0.7275                 0.4974
 IR Inten    --      0.7112                 9.1085                 1.0215

                     34                     35                     36
                      A                      A                      A
 Frequencies --    687.8634               688.7570               706.7646
 Red. masses --      2.5244                 2.1181                 4.1711
 Frc consts  --      0.7037                 0.5920                 1.2276
 IR Inten    --      2.8411                 4.7572                31.7409

                     37                     38                     39
                      A                      A                      A
 Frequencies --    718.5987               721.0377               740.7244
 Red. masses --      4.3255                 4.0488                 2.2979
 Frc consts  --      1.3160                 1.2402                 0.7428
 IR Inten    --      3.3235                 4.0048                13.8190

                     40                     41                     42
                      A                      A                      A
 Frequencies --    756.3419               772.7970               830.3337
 Red. masses --      1.8420                 1.4079                 2.2857
 Frc consts  --      0.6208                 0.4954                 0.9285
 IR Inten    --      3.6038                 8.9266                 4.8424

                     43                     44                     45
                      A                      A                      A
 Frequencies --    838.3293               842.1017               855.5446
 Red. masses --      1.2183                 1.8937                 1.2774
 Frc consts  --      0.5045                 0.7912                 0.5509
 IR Inten    --      0.4709                 0.1949                 9.9492

                     46                     47                     48
                      A                      A                      A
 Frequencies --    865.0021               869.3331               873.2540
 Red. masses --      2.5868                 1.2514                 1.5498
 Frc consts  --      1.1404                 0.5572                 0.6963
 IR Inten    --      5.6701                 1.7736                 5.7359

                     49                     50                     51
                      A                      A                      A
 Frequencies --    907.4109               908.4607               911.6496
 Red. masses --      1.3933                 1.8615                 1.3385
 Frc consts  --      0.6759                 0.9052                 0.6554
 IR Inten    --     15.0845                 0.6699                 2.9453

                     52                     53                     54
                      A                      A                      A
 Frequencies --    960.0321               971.2513               978.7753
 Red. masses --      1.5251                 1.3784                 1.4219
 Frc consts  --      0.8282                 0.7661                 0.8026
 IR Inten    --    137.1403                93.4801                50.1681

                     55                     56                     57
                      A                      A                      A
 Frequencies --    984.0310               986.8309              1003.1758
 Red. masses --      1.2716                 2.2199                 1.3829
 Frc consts  --      0.7255                 1.2737                 0.8199
 IR Inten    --     17.2348                 0.3152                 0.1543

                     58                     59                     60
                      A                      A                      A
 Frequencies --   1015.9009              1020.1938              1057.6052
 Red. masses --      1.8051                 2.1397                 1.0850
 Frc consts  --      1.0976                 1.3121                 0.7150
 IR Inten    --      3.6843                 0.4214                 0.1927

                     61                     62                     63
                      A                      A                      A
 Frequencies --   1098.9211              1099.2268              1141.3598
 Red. masses --      1.8846                 2.1492                 1.3151
 Frc consts  --      1.3409                 1.5300                 1.0094
 IR Inten    --      1.3323                 2.4356                18.1653

                     64                     65                     66
                      A                      A                      A
 Frequencies --   1193.7394              1213.8705              1224.5789
 Red. masses --      1.0498                 1.1734                 1.1864
 Frc consts  --      0.8814                 1.0187                 1.0482
 IR Inten    --      3.2515                 5.3929                 0.5779

                     67                     68                     69
                      A                      A                      A
 Frequencies --   1264.5981              1268.3315              1280.0560
 Red. masses --      1.2380                 1.2024                 1.2887
 Frc consts  --      1.1664                 1.1396                 1.2441
 IR Inten    --      4.2346                 0.5579                 0.0354

                     70                     71                     72
                      A                      A                      A
 Frequencies --   1329.9205              1332.7759              1345.2527
 Red. masses --      1.2032                 1.2008                 1.1927
 Frc consts  --      1.2538                 1.2567                 1.2717
 IR Inten    --      0.4025                22.4180                 2.9326

                     73                     74                     75
                      A                      A                      A
 Frequencies --   1346.2688              1346.9590              1354.5985
 Red. masses --      1.2709                 1.2158                 1.2803
 Frc consts  --      1.3572                 1.2996                 1.3842
 IR Inten    --      0.9234                 1.0661                 4.5260

                     76                     77                     78
                      A                      A                      A
 Frequencies --   1380.2175              1383.9203              1419.1298
 Red. masses --      1.2969                 1.4724                 1.0862
 Frc consts  --      1.4556                 1.6615                 1.2889
 IR Inten    --      0.9143                 6.7444                 7.9769

                     79                     80                     81
                      A                      A                      A
 Frequencies --   1421.4945              1425.2497              1457.3700
 Red. masses --      1.3402                 1.5158                 1.0510
 Frc consts  --      1.5955                 1.8142                 1.3152
 IR Inten    --      0.3189                 0.0198                 0.3634

                     82                     83                     84
                      A                      A                      A
 Frequencies --   1459.7888              1462.6475              1464.7497
 Red. masses --      1.0509                 1.0513                 1.0511
 Frc consts  --      1.3195                 1.3251                 1.3287
 IR Inten    --      3.8531                 0.0483                13.2263

                     85                     86                     87
                      A                      A                      A
 Frequencies --   1470.2303              1471.9026              1475.1848
 Red. masses --      1.0477                 1.0475                 1.0457
 Frc consts  --      1.3343                 1.3371                 1.3408
 IR Inten    --     19.3020                 4.1467                 0.0162

                     88                     89                     90
                      A                      A                      A
 Frequencies --   1477.8934              1478.9576              1482.0011
 Red. masses --      1.0479                 1.1105                 1.0868
 Frc consts  --      1.3485                 1.4312                 1.4064
 IR Inten    --     10.5940                19.9193                 0.0686

                     91                     92                     93
                      A                      A                      A
 Frequencies --   1501.6451              1528.5360              1570.4708
 Red. masses --      1.1022                 1.0898                 4.1805
 Frc consts  --      1.4644                 1.5002                 6.0748
 IR Inten    --      2.3459                 5.9543                 3.1647

                     94                     95                     96
                      A                      A                      A
 Frequencies --   1578.8746              3012.0819              3012.7763
 Red. masses --      4.0876                 1.0688                 1.0688
 Frc consts  --      6.0036                 5.7133                 5.7156
 IR Inten    --      0.4433                19.8490                12.3545

                     97                     98                     99
                      A                      A                      A
 Frequencies --   3044.8714              3044.9600              3045.0062
 Red. masses --      1.0325                 1.0325                 1.0328
 Frc consts  --      5.6401                 5.6403                 5.6421
 IR Inten    --      0.6999                 0.5508                 1.6305

                    100                    101                    102
                      A                      A                      A
 Frequencies --   3045.3440              3059.0039              3061.3424
 Red. masses --      1.0329                 1.0575                 1.0808
 Frc consts  --      5.6442                 5.8301                 5.9678
 IR Inten    --      2.4680                 2.2197                11.1933

                    103                    104                    105
                      A                      A                      A
 Frequencies --   3063.3597              3065.2178              3068.6588
 Red. masses --      1.0931                 1.0728                 1.0632
 Frc consts  --      6.0440                 5.9387                 5.8989
 IR Inten    --      2.9809                 4.1135                27.4456

                    106                    107                    108
                      A                      A                      A
 Frequencies --   3096.3719              3108.4421              3120.4068
 Red. masses --      1.1044                 1.0988                 1.1072
 Frc consts  --      6.2385                 6.2555                 6.3518
 IR Inten    --     17.7431                 6.4915                 1.7533

                    109                    110                    111
                      A                      A                      A
 Frequencies --   3125.7504              3125.8829              3127.0094
 Red. masses --      1.1040                 1.1041                 1.1035
 Frc consts  --      6.3551                 6.3565                 6.3572
 IR Inten    --      0.0393                 0.3396                 2.6399

                    112                    113                    114
                      A                      A                      A
 Frequencies --   3127.3926              3135.7121              3137.1457
 Red. masses --      1.1035                 1.0858                 1.1029
 Frc consts  --      6.3590                 6.2904                 6.3952
 IR Inten    --      2.0657                 2.1210                 2.2383

                    115                    116                    117
                      A                      A                      A
 Frequencies --   3137.4451              3138.1294              3138.3001
 Red. masses --      1.1032                 1.1025                 1.0915
 Frc consts  --      6.3983                 6.3971                 6.3340
 IR Inten    --      0.6699                 0.6233                 0.9406

                    118                    119                    120
                      A                      A                      A
 Frequencies --   3138.4095              3154.8089              3157.7597
 Red. masses --      1.0975                 1.0916                 1.0926
 Frc consts  --      6.3691                 6.4011                 6.4192
 IR Inten    --      0.0625                12.5871                11.7323

 - Thermochemistry -
 -------------------
 Temperature   298.150 Kelvin.  Pressure   1.00000 Atm.
 Atom     1 has atomic number 15 and mass  30.97376

 Molecular mass:   347.05578 amu.
 Principal axes and moments of inertia in atomic units:
                           1         2         3
     Eigenvalues --  3490.903975443.789556624.26004
           X            1.00000  -0.00006  -0.00226
           Y            0.00006   1.00000   0.00138
           Z            0.00226  -0.00138   1.00000
 This molecule is an asymmetric top.
 Rotational symmetry number  1.
 Warning -- assumption of classical behavior for rotation
           may cause significant error
 Rotational temperatures (Kelvin)      0.02481     0.01591     0.01308
 Rotational constants (GHZ):           0.51698     0.33152     0.27244
 Zero-point vibrational energy     955313.8 (Joules/Mol)
                                  228.32547 (Kcal/Mol)
 Warning -- explicit consideration of  30 degrees of freedom as
           vibrations may cause significant error
 Vibrational temperatures:     38.81    52.60    69.33   111.93   182.30
          (Kelvin)            190.41   203.22   238.68   245.65   255.03
                              267.69   271.93   276.10   281.97   293.98
                              300.89   306.25   315.33   373.82   387.52
                              401.56   425.98   441.59   462.67   481.31
                              499.05   573.91   644.77   716.48   790.28
                              923.56   939.12   987.53   989.68   990.97
                             1016.88  1033.90  1037.41  1065.74  1088.21
                             1111.88  1194.66  1206.17  1211.60  1230.94
                             1244.55  1250.78  1256.42  1305.56  1307.07
                             1311.66  1381.27  1397.41  1408.24  1415.80
                             1419.83  1443.35  1461.65  1467.83  1521.66
                             1581.10  1581.54  1642.16  1717.52  1746.49
                             1761.90  1819.47  1824.85  1841.72  1913.46
                             1917.57  1935.52  1936.98  1937.97  1948.97
                             1985.83  1991.15  2041.81  2045.21  2050.62
                             2096.83  2100.31  2104.42  2107.45  2115.33
                             2117.74  2122.46  2126.36  2127.89  2132.27
                             2160.53  2199.22  2259.56  2271.65  4333.71
                             4334.71  4380.89  4381.02  4381.08  4381.57
                             4401.22  4404.59  4407.49  4410.16  4415.12
                             4454.99  4472.35  4489.57  4497.26  4497.45
                             4499.07  4499.62  4511.59  4513.65  4514.08
                             4515.07  4515.31  4515.47  4539.07  4543.31

 Zero-point correction=                           0.363860 (Hartree/Particle)
 Thermal correction to Energy=                    0.385202
 Thermal correction to Enthalpy=                  0.386146
 Thermal correction to Gibbs Free Energy=         0.314510
 Sum of electronic and zero-point Energies=          -1304.080205
 Sum of electronic and thermal Energies=             -1304.058862
 Sum of electronic and thermal Enthalpies=           -1304.057918
 Sum of electronic and thermal Free Energies=        -1304.129555

                     E (Thermal)             CV                S
                      KCal/Mol        Cal/Mol-Kelvin    Cal/Mol-Kelvin
 Total                  241.718             80.687            150.772
 Electronic               0.000              0.000              0.000
 Translational            0.889              2.981             43.427
 Rotational               0.889              2.981             33.198
 Vibrational            239.941             74.725             74.147
 Vibration     1          0.593              1.984              6.040
 Vibration     2          0.594              1.982              5.437
 Vibration     3          0.595              1.978              4.890
 Vibration     4          0.599              1.964              3.946
 Vibration     5          0.611              1.926              2.995
 Vibration     6          0.612              1.921              2.912
 Vibration     7          0.615              1.912              2.787
 Vibration     8          0.624              1.884              2.482
 Vibration     9          0.626              1.879              2.427
 Vibration    10          0.628              1.870              2.357
 Vibration    11          0.632              1.859              2.267
 Vibration    12          0.633              1.855              2.238
 Vibration    13          0.634              1.851              2.209
 Vibration    14          0.636              1.845              2.170
 Vibration    15          0.640              1.834              2.094
 Vibration    16          0.642              1.827              2.051
 Vibration    17          0.644              1.821              2.019
 Vibration    18          0.647              1.812              1.966
 Vibration    19          0.668              1.746              1.663
 Vibration    20          0.674              1.730              1.600
 Vibration    21          0.679              1.712              1.539
 Vibration    22          0.690              1.681              1.439
 Vibration    23          0.697              1.661              1.379
 Vibration    24          0.707              1.632              1.302
 Vibration    25          0.716              1.607              1.238
 Vibration    26          0.725              1.582              1.180
 Vibration    27          0.765              1.473              0.967
 Vibration    28          0.807              1.365              0.801
 Vibration    29          0.853              1.255              0.663
 Vibration    30          0.905              1.141              0.546

                           ! Non-Optimized Parameters !
 Normal termination of Gaussian 16 at Thu Dec  5 18:48:29 2024.
