 Gaussian 16, Revision B.01,
 Gaussian 16:  ES64L-G16RevB.01 20-Dec-2017

 -----------------------------------------------------
 # opt freq b3lyp/genecp pop=npa optcyc=200 scfcyc=200
 -----------------------------------------------------

 ----
 MB-8
 ----
 Symbolic Z-matrix:
 Charge =  1 Multiplicity = 1

 SCF Done:  E(RB3LYP) =  -1605.34883916     A.U. after   16 cycles
 SCF Done:  E(RB3LYP) =  -1605.39543470     A.U. after   12 cycles
 SCF Done:  E(RB3LYP) =  -1605.43671411     A.U. after   13 cycles
 SCF Done:  E(RB3LYP) =  -1605.44702037     A.U. after   12 cycles
 SCF Done:  E(RB3LYP) =  -1605.44913557     A.U. after   12 cycles
 SCF Done:  E(RB3LYP) =  -1605.44947027     A.U. after   12 cycles
 SCF Done:  E(RB3LYP) =  -1605.44956357     A.U. after   12 cycles
 SCF Done:  E(RB3LYP) =  -1605.44974925     A.U. after   10 cycles
 SCF Done:  E(RB3LYP) =  -1605.44990855     A.U. after   11 cycles
 SCF Done:  E(RB3LYP) =  -1605.44998694     A.U. after   11 cycles
 SCF Done:  E(RB3LYP) =  -1605.45011336     A.U. after   10 cycles
 SCF Done:  E(RB3LYP) =  -1605.45011779     A.U. after   11 cycles
 SCF Done:  E(RB3LYP) =  -1605.45011901     A.U. after   11 cycles
 SCF Done:  E(RB3LYP) =  -1605.45012003     A.U. after   10 cycles
 SCF Done:  E(RB3LYP) =  -1605.45012054     A.U. after    9 cycles
 SCF Done:  E(RB3LYP) =  -1605.45012082     A.U. after    8 cycles
 SCF Done:  E(RB3LYP) =  -1605.45012094     A.U. after    8 cycles
 SCF Done:  E(RB3LYP) =  -1605.45012097     A.U. after    7 cycles
 SCF Done:  E(RB3LYP) =  -1605.45012100     A.U. after    7 cycles
 Optimization completed.
    -- Stationary point found.
 Normal termination of Gaussian 16 at Sun Dec 15 22:24:44 2024.

 ------------------------------------------------------------------
 #N Geom=AllCheck Guess=TCheck SCRF=Check GenChk RB3LYP/GenECP Freq
 ------------------------------------------------------------------

 Structure from the checkpoint file:  "/scratch/3311764.1.iqtc08.q/Gau-31333.chk"
 ----
 MB-8
 ----
 Charge =  1 Multiplicity = 1

                         Standard orientation:
 ---------------------------------------------------------------------
 Center     Atomic      Atomic             Coordinates (Angstroms)
 Number     Number       Type             X           Y           Z
 ---------------------------------------------------------------------
      1         15           0       -1.334346    1.343984   -0.069555
      2         15           0       -1.289950   -1.346790   -0.171602
      3          6           0       -2.527837   -0.011145   -0.524058
      4          1           0       -2.749787    0.059878   -1.590222
      5          1           0       -3.450952   -0.071309    0.051727
      6          6           0       -3.115382    2.524994    1.594559
      7          1           0       -3.047137    3.102622    2.512383
      8          1           0       -3.820683    1.704928    1.733803
      9          1           0       -3.442779    3.165277    0.775685
     10          6           0       -0.949457    3.652233   -1.409784
     11          1           0       -1.538368    4.284542   -2.069069
     12          1           0        0.003441    3.423788   -1.888213
     13          1           0       -0.782905    4.170241   -0.464025
     14          6           0       -2.527143   -3.184695   -1.718962
     15          1           0       -2.222779   -3.926526   -2.451956
     16          1           0       -3.243111   -2.496609   -2.171082
     17          1           0       -2.976514   -3.674580   -0.855839
     18          6           0       -1.285909   -2.906198    2.021281
     19          1           0       -1.995490   -3.212367    2.785243
     20          1           0       -0.450028   -2.384271    2.488687
     21          1           0       -0.928925   -3.786353    1.483981
     22         45           0        0.563382    0.002321    0.018655
     23          6           0        2.293664    1.505290   -0.397745
     24          6           0        2.112145    1.400111    0.959261
     25          6           0        2.231975   -1.509677    0.488868
     26          6           0        2.107825   -1.399201   -0.878422
     27          6           0        3.371322    0.818789   -1.213564
     28          1           0        1.784494    2.321819   -0.896161
     29          1           0        1.488010    2.148460    1.438083
     30          6           0        2.881614    0.523861    1.914204
     31          6           0        3.295129   -0.853270    1.349491
     32          1           0        1.698001   -2.328551    0.958375
     33          6           0        2.938410   -0.542693   -1.799200
     34          1           0        1.500941   -2.143938   -1.383442
     35          1           0        3.643903    1.474586   -2.041886
     36          1           0        4.271923    0.707249   -0.611421
     37          1           0        3.771918    1.061720    2.262883
     38          1           0        2.260576    0.376635    2.800373
     39          1           0        4.224822   -0.772331    0.787680
     40          1           0        3.511333   -1.513726    2.190548
     41          1           0        2.356816   -0.374040   -2.707869
     42          1           0        3.825249   -1.106598   -2.114523
     43          8           0       -1.319165   -2.479514   -1.339051
     44          8           0       -2.006612   -2.017474    1.140642
     45          8           0       -1.717941    2.445201   -1.221322
     46          8           0       -1.786017    2.003872    1.349552
 ---------------------------------------------------------------------

 SCF Done:  E(RB3LYP) =  -1605.45012100     A.U. after    1 cycles

 The electronic state is 1-A.
 Alpha  occ. eigenvalues --  -77.31570 -77.31537 -19.27861 -19.27725 -19.27715
 Alpha  occ. eigenvalues --  -19.27658 -10.34246 -10.34092 -10.33961 -10.33825
 Alpha  occ. eigenvalues --  -10.31406 -10.31095 -10.31014 -10.31001 -10.30746
 Alpha  occ. eigenvalues --  -10.29154 -10.29084 -10.28962 -10.28925  -6.76665
 Alpha  occ. eigenvalues --   -6.76662  -4.93095  -4.93093  -4.92955  -4.92942
 Alpha  occ. eigenvalues --   -4.92502  -4.92495  -3.34074  -2.11178  -2.10276
 Alpha  occ. eigenvalues --   -2.07353  -1.18420  -1.18230  -1.14817  -1.14689
 Alpha  occ. eigenvalues --   -0.96266  -0.91120  -0.90188  -0.89724  -0.84846
 Alpha  occ. eigenvalues --   -0.82457  -0.82083  -0.81939  -0.81320  -0.79621
 Alpha  occ. eigenvalues --   -0.72298  -0.70997  -0.70098  -0.67547  -0.64338
 Alpha  occ. eigenvalues --   -0.63855  -0.63028  -0.62859  -0.61620  -0.60108
 Alpha  occ. eigenvalues --   -0.59757  -0.58611  -0.58421  -0.58203  -0.57866
 Alpha  occ. eigenvalues --   -0.57684  -0.56675  -0.56507  -0.56312  -0.55282
 Alpha  occ. eigenvalues --   -0.54464  -0.54260  -0.54237  -0.52320  -0.50047
 Alpha  occ. eigenvalues --   -0.49667  -0.49262  -0.48905  -0.48142  -0.48091
 Alpha  occ. eigenvalues --   -0.47647  -0.46809  -0.45057  -0.44935  -0.44007
 Alpha  occ. eigenvalues --   -0.43767  -0.43042  -0.42919  -0.42724  -0.42442
 Alpha  occ. eigenvalues --   -0.39064  -0.38729  -0.37755  -0.37283  -0.36153
 Alpha  occ. eigenvalues --   -0.33002
 Alpha virt. eigenvalues --   -0.18789  -0.16343  -0.11338  -0.10613  -0.09094
 Alpha virt. eigenvalues --   -0.08804  -0.08463  -0.08097  -0.07005  -0.06477
 Alpha virt. eigenvalues --   -0.06060  -0.05422  -0.04453  -0.03939  -0.03136

 Mulliken charges:
               1
     1  P    0.637297
     2  P    0.657798
     3  C   -0.565838
     4  H    0.223591
     5  H    0.219455
     6  C   -0.186134
     7  H    0.165450
     8  H    0.137059
     9  H    0.149353
    10  C   -0.202017
    11  H    0.172223
    12  H    0.134640
    13  H    0.142984
    14  C   -0.171910
    15  H    0.165770
    16  H    0.132819
    17  H    0.148349
    18  C   -0.204715
    19  H    0.170550
    20  H    0.138595
    21  H    0.141530
    22  Rh  -0.559145
    23  C   -0.022330
    24  C   -0.082343
    25  C   -0.035036
    26  C   -0.081817
    27  C   -0.344450
    28  H    0.175592
    29  H    0.184150
    30  C   -0.222608
    31  C   -0.349294
    32  H    0.180076
    33  C   -0.219438
    34  H    0.203789
    35  H    0.174826
    36  H    0.170021
    37  H    0.182255
    38  H    0.141793
    39  H    0.170338
    40  H    0.175113
    41  H    0.143182
    42  H    0.180429
    43  O   -0.344704
    44  O   -0.342259
    45  O   -0.348883
    46  O   -0.336104
 Sum of Mulliken charges =   1.00000

 Dipole moment (field-independent basis, Debye):
    X=             -1.2016    Y=              0.1087    Z=              0.0523  Tot=              1.2077
 Quadrupole moment (field-independent basis, Debye-Ang):
   XX=           -109.2792   YY=           -110.4484   ZZ=           -133.1666
   XY=              1.2523   XZ=              0.3692   YZ=             -2.4333

  Exact polarizability: 272.292   0.009 242.169   0.433  -0.005 209.229
 Approx polarizability: 397.645  -1.512 366.243   1.875   1.397 354.664

 Summary of Natural Population Analysis:

                                       Natural Population
                Natural  -----------------------------------------------
    Atom  No    Charge         Core      Valence    Rydberg      Total
 -----------------------------------------------------------------------
      P    1    1.70747      9.99599     3.20745    0.08909    13.29253
      P    2    1.72366      9.99578     3.19003    0.09052    13.27634
      C    3   -1.09087      1.99945     5.07587    0.01554     7.09087
      H    4    0.28039      0.00000     0.71804    0.00157     0.71961
      H    5    0.27398      0.00000     0.72388    0.00214     0.72602
      C    6   -0.26041      1.99929     4.24572    0.01540     6.26041
      H    7    0.21040      0.00000     0.78822    0.00137     0.78960
      H    8    0.18224      0.00000     0.81589    0.00187     0.81776
      H    9    0.18805      0.00000     0.81009    0.00186     0.81195
      C   10   -0.25549      1.99929     4.24078    0.01541     6.25549
      H   11    0.21214      0.00000     0.78644    0.00141     0.78786
      H   12    0.17977      0.00000     0.81821    0.00202     0.82023
      H   13    0.18282      0.00000     0.81543    0.00175     0.81718
      C   14   -0.25833      1.99929     4.24392    0.01512     6.25833
      H   15    0.21075      0.00000     0.78789    0.00136     0.78925
      H   16    0.18097      0.00000     0.81719    0.00184     0.81903
      H   17    0.18946      0.00000     0.80875    0.00180     0.81054
      C   18   -0.25498      1.99929     4.24030    0.01539     6.25498
      H   19    0.21093      0.00000     0.78766    0.00141     0.78907
      H   20    0.18414      0.00000     0.81393    0.00193     0.81586
      H   21    0.18159      0.00000     0.81668    0.00174     0.81841
     Rh   22   -0.57403     35.98477     9.56379    0.02547    45.57403
      C   23   -0.15906      1.99907     4.13950    0.02049     6.15906
      C   24   -0.15053      1.99907     4.13011    0.02135     6.15053
      C   25   -0.17444      1.99906     4.15472    0.02066     6.17444
      C   26   -0.13815      1.99906     4.11786    0.02124     6.13815
      C   27   -0.42650      1.99936     4.41510    0.01203     6.42650
      H   28    0.22440      0.00000     0.77368    0.00192     0.77560
      H   29    0.23860      0.00000     0.75987    0.00152     0.76140
      C   30   -0.42728      1.99936     4.41540    0.01252     6.42728
      C   31   -0.42427      1.99936     4.41295    0.01195     6.42427
      H   32    0.22774      0.00000     0.77053    0.00173     0.77226
      C   33   -0.42654      1.99936     4.41467    0.01251     6.42654
      H   34    0.24307      0.00000     0.75536    0.00157     0.75693
      H   35    0.23274      0.00000     0.76585    0.00141     0.76726
      H   36    0.21453      0.00000     0.78345    0.00203     0.78547
      H   37    0.24110      0.00000     0.75717    0.00173     0.75890
      H   38    0.22385      0.00000     0.77462    0.00153     0.77615
      H   39    0.21425      0.00000     0.78373    0.00203     0.78575
      H   40    0.23227      0.00000     0.76632    0.00141     0.76773
      H   41    0.22458      0.00000     0.77391    0.00151     0.77542
      H   42    0.24055      0.00000     0.75770    0.00175     0.75945
      O   43   -0.75938      1.99982     6.74669    0.01286     8.75938
      O   44   -0.76022      1.99983     6.74585    0.01454     8.76022
      O   45   -0.75790      1.99983     6.74443    0.01365     8.75790
      O   46   -0.75810      1.99982     6.74470    0.01358     8.75810
 =======================================================================
   * Total *    1.00000     89.96615   119.52033    0.51352   210.00000

                      1                      2                      3
                      A                      A                      A
 Frequencies --     12.3234                32.1802                37.7692
 Red. masses --      3.6725                 3.7110                 4.8401
 Frc consts  --      0.0003                 0.0023                 0.0041
 IR Inten    --      0.0891                 0.0339                 1.1668

                      4                      5                      6
                      A                      A                      A
 Frequencies --     61.2918                67.2432                75.2566
 Red. masses --      1.9257                 2.7151                 1.8725
 Frc consts  --      0.0043                 0.0072                 0.0062
 IR Inten    --      0.8431                 0.9783                 0.1320

                      7                      8                      9
                      A                      A                      A
 Frequencies --     76.6429                82.0606                90.9820
 Red. masses --      3.1673                 1.2109                 2.9503
 Frc consts  --      0.0110                 0.0048                 0.0144
 IR Inten    --      4.4143                 0.6287                 0.5243

                     10                     11                     12
                      A                      A                      A
 Frequencies --     93.0383               110.9701               114.8882
 Red. masses --      1.5591                 1.6176                 1.7473
 Frc consts  --      0.0080                 0.0117                 0.0136
 IR Inten    --      0.2074                 0.3305                 0.7189

                     13                     14                     15
                      A                      A                      A
 Frequencies --    121.0179               131.5948               150.1275
 Red. masses --      1.3331                 3.7292                 3.0021
 Frc consts  --      0.0115                 0.0380                 0.0399
 IR Inten    --      0.0803                 0.7779                 7.1315

                     16                     17                     18
                      A                      A                      A
 Frequencies --    162.6239               164.0515               181.7308
 Red. masses --      2.8022                 2.8736                 4.7246
 Frc consts  --      0.0437                 0.0456                 0.0919
 IR Inten    --      0.7275                 0.8699                 8.6428

                     19                     20                     21
                      A                      A                      A
 Frequencies --    194.7204               199.1529               202.0914
 Red. masses --      4.7845                 3.1553                 4.5916
 Frc consts  --      0.1069                 0.0737                 0.1105
 IR Inten    --      3.1506                 1.3823                 7.6951

                     22                     23                     24
                      A                      A                      A
 Frequencies --    221.7021               225.9321               241.2726
 Red. masses --      6.0388                 6.0008                 4.2827
 Frc consts  --      0.1749                 0.1805                 0.1469
 IR Inten    --      6.6218                 1.2471                12.5814

                     25                     26                     27
                      A                      A                      A
 Frequencies --    258.1845               269.8030               280.8879
 Red. masses --      7.3894                 4.6721                 4.8786
 Frc consts  --      0.2902                 0.2004                 0.2268
 IR Inten    --      8.9255                 1.6131                 8.2529

                     28                     29                     30
                      A                      A                      A
 Frequencies --    302.2810               304.1221               334.7257
 Red. masses --      2.9844                 2.4067                 4.6206
 Frc consts  --      0.1607                 0.1312                 0.3050
 IR Inten    --      1.8691                13.0802                 0.0707

                     31                     32                     33
                      A                      A                      A
 Frequencies --    380.8106               414.8686               420.9559
 Red. masses --      5.0537                 6.3470                 6.5402
 Frc consts  --      0.4318                 0.6436                 0.6828
 IR Inten    --     11.8864                16.1688                29.7473

                     34                     35                     36
                      A                      A                      A
 Frequencies --    441.8117               468.5144               483.1858
 Red. masses --      2.5635                 6.5835                 6.5118
 Frc consts  --      0.2948                 0.8514                 0.8957
 IR Inten    --     11.7401                18.3356                19.2612

                     37                     38                     39
                      A                      A                      A
 Frequencies --    498.7297               544.6233               653.2350
 Red. masses --      2.7686                 2.8017                 4.3198
 Frc consts  --      0.4057                 0.4896                 1.0861
 IR Inten    --      0.7343                 0.3958                 3.4736

                     40                     41                     42
                      A                      A                      A
 Frequencies --    685.8866               687.0928               688.0506
 Red. masses --      1.7569                 2.1347                 2.2921
 Frc consts  --      0.4870                 0.5938                 0.6393
 IR Inten    --      1.9220                14.4285                 2.8111

                     43                     44                     45
                      A                      A                      A
 Frequencies --    732.2841               747.4431               750.4078
 Red. masses --      6.4453                 5.2523                 2.6256
 Frc consts  --      2.0364                 1.7288                 0.8711
 IR Inten    --    161.2538                27.2703                13.7505

                     46                     47                     48
                      A                      A                      A
 Frequencies --    761.2350               771.3350               790.5817
 Red. masses --      4.0510                 1.4812                 5.9203
 Frc consts  --      1.3831                 0.5192                 2.1801
 IR Inten    --     85.9716                20.9281               128.4940

                     49                     50                     51
                      A                      A                      A
 Frequencies --    813.4201               831.3996               847.9165
 Red. masses --      4.6485                 2.3769                 1.8613
 Frc consts  --      1.8121                 0.9680                 0.7885
 IR Inten    --    140.1602                 2.9103                 1.6443

                     52                     53                     54
                      A                      A                      A
 Frequencies --    863.3771               875.9674               913.2109
 Red. masses --      2.5820                 1.6844                 1.8704
 Frc consts  --      1.1340                 0.7615                 0.9190
 IR Inten    --      6.1115                 3.6979                 0.3154

                     55                     56                     57
                      A                      A                      A
 Frequencies --    988.1998               993.1639              1004.6995
 Red. masses --      2.1224                 1.3161                 1.3477
 Frc consts  --      1.2211                 0.7649                 0.8015
 IR Inten    --      2.2740                 6.1116                62.9543

                     58                     59                     60
                      A                      A                      A
 Frequencies --   1013.9787              1017.2992              1017.6923
 Red. masses --      1.7259                 2.6945                 2.7339
 Frc consts  --      1.0455                 1.6429                 1.6683
 IR Inten    --     87.1549               189.5280               170.0890

                     61                     62                     63
                      A                      A                      A
 Frequencies --   1020.4108              1027.2892              1040.4136
 Red. masses --      1.9401                 4.1486                 8.7106
 Frc consts  --      1.1902                 2.5795                 5.5553
 IR Inten    --     23.1072               271.2832               499.0449

                     64                     65                     66
                      A                      A                      A
 Frequencies --   1051.0186              1098.8126              1099.0435
 Red. masses --      6.4248                 1.9020                 2.1449
 Frc consts  --      4.1815                 1.3530                 1.5264
 IR Inten    --     65.9306                 1.7609                 0.8733

                     67                     68                     69
                      A                      A                      A
 Frequencies --   1120.2773              1168.4009              1169.3972
 Red. masses --      1.3928                 1.2560                 1.2564
 Frc consts  --      1.0299                 1.0103                 1.0123
 IR Inten    --     86.6865                 1.9053                 2.2030

                     70                     71                     72
                      A                      A                      A
 Frequencies --   1171.3403              1174.3187              1188.0278
 Red. masses --      1.2586                 1.2592                 1.3264
 Frc consts  --      1.0174                 1.0231                 1.1030
 IR Inten    --      1.1078                 0.8232                11.6391

                     73                     74                     75
                      A                      A                      A
 Frequencies --   1188.8873              1194.2567              1194.3216
 Red. masses --      1.3295                 1.3315                 1.2886
 Frc consts  --      1.1072                 1.1189                 1.0830
 IR Inten    --      9.0374                21.4607                 7.3624

                     76                     77                     78
                      A                      A                      A
 Frequencies --   1195.5396              1214.1036              1224.1963
 Red. masses --      1.0916                 1.1828                 1.1961
 Frc consts  --      0.9193                 1.0272                 1.0561
 IR Inten    --      1.4149                 6.5171                 0.0841

                     79                     80                     81
                      A                      A                      A
 Frequencies --   1265.1376              1274.9406              1285.4770
 Red. masses --      1.2554                 1.1691                 1.2556
 Frc consts  --      1.1839                 1.1197                 1.2224
 IR Inten    --      3.7077                 0.6603                 0.2591

                     82                     83                     84
                      A                      A                      A
 Frequencies --   1347.0924              1355.5068              1382.8072
 Red. masses --      1.3038                 1.2827                 1.3064
 Frc consts  --      1.3940                 1.3886                 1.4718
 IR Inten    --      0.4286                 4.1831                 0.5497

                     85                     86                     87
                      A                      A                      A
 Frequencies --   1386.5185              1400.9549              1428.1315
 Red. masses --      1.4621                 1.0943                 1.3426
 Frc consts  --      1.6561                 1.2655                 1.6134
 IR Inten    --      5.9046                10.1543                 0.1481

                     88                     89                     90
                      A                      A                      A
 Frequencies --   1431.7884              1477.2547              1477.7338
 Red. masses --      1.4935                 1.1103                 1.1250
 Frc consts  --      1.8039                 1.4275                 1.4474
 IR Inten    --      0.0579                20.5781                 0.5488

                     91                     92                     93
                      A                      A                      A
 Frequencies --   1478.1087              1479.6962              1480.6178
 Red. masses --      1.1203                 1.1234                 1.0931
 Frc consts  --      1.4421                 1.4493                 1.4119
 IR Inten    --      3.7739                 0.2999                 1.9793

                     94                     95                     96
                      A                      A                      A
 Frequencies --   1480.8994              1494.9931              1496.1102
 Red. masses --      1.1280                 1.0458                 1.0451
 Frc consts  --      1.4575                 1.3771                 1.3783
 IR Inten    --      1.0207                10.3946                15.2557

                     97                     98                     99
                      A                      A                      A
 Frequencies --   1498.0403              1500.0129              1500.8243
 Red. masses --      1.0464                 1.0452                 1.0722
 Frc consts  --      1.3836                 1.3857                 1.4229
 IR Inten    --      3.6596                 3.3466                20.2222

                    100                    101                    102
                      A                      A                      A
 Frequencies --   1500.9952              1501.5097              1502.1592
 Red. masses --      1.0505                 1.0769                 1.0500
 Frc consts  --      1.3945                 1.4305                 1.3960
 IR Inten    --      4.4443                14.2458                27.2919

                    103                    104                    105
                      A                      A                      A
 Frequencies --   1502.4415              1531.3802              1576.3737
 Red. masses --      1.0500                 1.0888                 4.1929
 Frc consts  --      1.3965                 1.5044                 6.1388
 IR Inten    --      5.5449                 8.0081                 1.3455

                    106                    107                    108
                      A                      A                      A
 Frequencies --   1590.1167              3012.4271              3014.1027
 Red. masses --      4.3248                 1.0693                 1.0689
 Frc consts  --      6.4427                 5.7173                 5.7216
 IR Inten    --      1.9990                13.2396                10.7664

                    109                    110                    111
                      A                      A                      A
 Frequencies --   3040.3033              3042.2515              3047.9958
 Red. masses --      1.0316                 1.0314                 1.0316
 Frc consts  --      5.6184                 5.6243                 5.6464
 IR Inten    --     25.7629                25.0305                29.1540

                    112                    113                    114
                      A                      A                      A
 Frequencies --   3048.7325              3064.5189              3066.6178
 Red. masses --      1.0308                 1.0821                 1.0841
 Frc consts  --      5.6448                 5.9875                 6.0069
 IR Inten    --     33.6801                 8.5355                 6.7480

                    115                    116                    117
                      A                      A                      A
 Frequencies --   3067.5607              3070.1674              3070.4042
 Red. masses --      1.0800                 1.0565                 1.0645
 Frc consts  --      5.9875                 5.8676                 5.9128
 IR Inten    --      3.5715                 1.2400                20.1823

                    118                    119                    120
                      A                      A                      A
 Frequencies --   3099.9024              3113.3117              3114.0184
 Red. masses --      1.1040                 1.0975                 1.1080
 Frc consts  --      6.2503                 6.2677                 6.3305
 IR Inten    --     14.8356                 6.7257                14.1256

                    121                    122                    123
                      A                      A                      A
 Frequencies --   3116.2809              3124.9464              3125.1822
 Red. masses --      1.1080                 1.1064                 1.1075
 Frc consts  --      6.3395                 6.3655                 6.3732
 IR Inten    --     15.4191                14.7755                13.5655

                    124                    125                    126
                      A                      A                      A
 Frequencies --   3141.1213              3144.5303              3146.7009
 Red. masses --      1.1077                 1.0865                 1.0859
 Frc consts  --      6.4393                 6.3296                 6.3350
 IR Inten    --      1.7745                 0.2842                 0.8961

                    127                    128                    129
                      A                      A                      A
 Frequencies --   3153.9363              3156.0438              3159.2402
 Red. masses --      1.1037                 1.1035                 1.1054
 Frc consts  --      6.4685                 6.4760                 6.5002
 IR Inten    --      6.7922                 6.9987                 4.4258

                    130                    131                    132
                      A                      A                      A
 Frequencies --   3162.3177              3162.5014              3169.1706
 Red. masses --      1.0939                 1.1034                 1.0909
 Frc consts  --      6.4453                 6.5017                 6.4554
 IR Inten    --      4.8140                 3.5780                 5.4649

 - Thermochemistry -
 -------------------
 Temperature   298.150 Kelvin.  Pressure   1.00000 Atm.
 Atom     1 has atomic number 15 and mass  30.97376

 Molecular mass:   411.03544 amu.
 Principal axes and moments of inertia in atomic units:
                           1         2         3
     Eigenvalues --  5955.189007189.189889699.48497
           X            0.99998   0.00542  -0.00118
           Y           -0.00542   0.99996  -0.00764
           Z            0.00114   0.00765   0.99997
 This molecule is an asymmetric top.
 Rotational symmetry number  1.
 Warning -- assumption of classical behavior for rotation
           may cause significant error
 Rotational temperatures (Kelvin)      0.01454     0.01205     0.00893
 Rotational constants (GHZ):           0.30305     0.25104     0.18607
 Zero-point vibrational energy    1009074.1 (Joules/Mol)
                                  241.17449 (Kcal/Mol)
 Warning -- explicit consideration of  38 degrees of freedom as
           vibrations may cause significant error
 Vibrational temperatures:     17.73    46.30    54.34    88.19    96.75
          (Kelvin)            108.28   110.27   118.07   130.90   133.86
                              159.66   165.30   174.12   189.34   216.00
                              233.98   236.03   261.47   280.16   286.54
                              290.76   318.98   325.07   347.14   371.47
                              388.19   404.14   434.91   437.56   481.60
                              547.90   596.90   605.66   635.67   674.09
                              695.20   717.56   783.59   939.86   986.84
                              988.57   989.95  1053.59  1075.40  1079.67
                             1095.25  1109.78  1137.47  1170.33  1196.20
                             1219.96  1242.21  1260.32  1313.91  1421.80
                             1428.94  1445.54  1458.89  1463.67  1464.23
                             1468.14  1478.04  1496.92  1512.18  1580.95
                             1581.28  1611.83  1681.07  1682.50  1685.30
                             1689.58  1709.31  1710.54  1718.27  1718.36
                             1720.11  1746.82  1761.35  1820.25  1834.36
                             1849.51  1938.17  1950.27  1989.55  1994.89
                             2015.66  2054.76  2060.02  2125.44  2126.13
                             2126.67  2128.95  2130.28  2130.68  2150.96
                             2152.57  2155.35  2158.18  2159.35  2159.60
                             2160.34  2161.27  2161.68  2203.31  2268.05
                             2287.82  4334.21  4336.62  4374.32  4377.12
                             4385.39  4386.45  4409.16  4412.18  4413.54
                             4417.29  4417.63  4460.07  4479.36  4480.38
                             4483.63  4496.10  4496.44  4519.37  4524.28
                             4527.40  4537.81  4540.84  4545.44  4549.87
                             4550.13  4559.73

 Zero-point correction=                           0.384336 (Hartree/Particle)
 Thermal correction to Energy=                    0.410649
 Thermal correction to Enthalpy=                  0.411593
 Thermal correction to Gibbs Free Energy=         0.326008
 Sum of electronic and zero-point Energies=          -1605.065785
 Sum of electronic and thermal Energies=             -1605.039472
 Sum of electronic and thermal Enthalpies=           -1605.038528
 Sum of electronic and thermal Free Energies=        -1605.124113

                     E (Thermal)             CV                S
                      KCal/Mol        Cal/Mol-Kelvin    Cal/Mol-Kelvin
 Total                  257.686             93.259            180.129
 Electronic               0.000              0.000              0.000
 Translational            0.889              2.981             43.931
 Rotational               0.889              2.981             34.384
 Vibrational            255.909             87.298            101.813
 Vibration     1          0.593              1.987              7.596
 Vibration     2          0.594              1.983              5.690
 Vibration     3          0.594              1.982              5.373
 Vibration     4          0.597              1.973              4.415
 Vibration     5          0.598              1.970              4.232
 Vibration     6          0.599              1.966              4.011
 Vibration     7          0.599              1.965              3.975
 Vibration     8          0.600              1.961              3.841
 Vibration     9          0.602              1.956              3.639
 Vibration    10          0.602              1.954              3.595
 Vibration    11          0.607              1.940              3.252
 Vibration    12          0.608              1.937              3.185
 Vibration    13          0.609              1.932              3.084
 Vibration    14          0.612              1.922              2.923
 Vibration    15          0.618              1.903              2.671
 Vibration    16          0.623              1.888              2.519
 Vibration    17          0.623              1.887              2.503
 Vibration    18          0.630              1.865              2.311
 Vibration    19          0.635              1.847              2.182
 Vibration    20          0.637              1.841              2.141
 Vibration    21          0.639              1.837              2.114
 Vibration    22          0.648              1.808              1.945
 Vibration    23          0.650              1.802              1.911
 Vibration    24          0.658              1.777              1.793
 Vibration    25          0.667              1.749              1.674
 Vibration    26          0.674              1.729              1.597
 Vibration    27          0.681              1.709              1.528
 Vibration    28          0.694              1.669              1.404
 Vibration    29          0.695              1.666              1.394
 Vibration    30          0.716              1.606              1.237
 Vibration    31          0.751              1.511              1.036
 Vibration    32          0.778              1.438              0.910
 Vibration    33          0.783              1.425              0.889
 Vibration    34          0.802              1.379              0.821
 Vibration    35          0.826              1.320              0.742
 Vibration    36          0.839              1.287              0.702
 Vibration    37          0.854              1.253              0.661
 Vibration    38          0.900              1.151              0.555

                           ! Non-Optimized Parameters !
 Normal termination of Gaussian 16 at Sun Dec 15 22:56:58 2024.
