 Gaussian 16, Revision B.01,
 Gaussian 16:  ES64L-G16RevB.01 20-Dec-2017

 --------------------------------------------
 # nmr=giao b3lyp/def2TZVP pop=nbo scfcyc=200
 --------------------------------------------

 -------------------
 Ligand 20b SPE NoRh
 -------------------
 Symbolic Z-matrix:
 Charge =  0 Multiplicity = 1

                         Standard orientation:
 ---------------------------------------------------------------------
 Center     Atomic      Atomic             Coordinates (Angstroms)
 Number     Number       Type             X           Y           Z
 ---------------------------------------------------------------------
      1         15           0        0.979602   -0.366403   -0.645589
      2         15           0       -1.212090    1.347374   -0.734835
      3          6           0        0.072347    0.791387    0.513507
      4          1           0       -0.305509    0.348525    1.435692
      5          1           0        0.725165    1.629587    0.760879
      6          6           0       -2.777822    0.504653   -0.268106
      7          6           0       -3.344659   -0.422384   -1.142638
      8          6           0       -4.525849   -1.089784   -0.808223
      9          6           0       -5.117690   -0.809018    0.420238
     10          6           0       -4.572908    0.115492    1.317774
     11          6           0       -3.394483    0.768071    0.959345
     12          6           0       -1.506798    3.143799   -0.418070
     13          1           0       -2.274285    3.504424   -1.103923
     14          1           0       -1.838221    3.318688    0.604815
     15          1           0       -0.583971    3.693939   -0.598406
     16          6           0        0.391726   -2.049058   -0.174922
     17          1           0        0.827988   -2.798030   -0.834603
     18          1           0        0.644070   -2.280899    0.860784
     19          1           0       -0.691678   -2.075767   -0.293380
     20          1           0       -6.032222   -1.324927    0.693840
     21          1           0       -2.962039    1.479702    1.653321
     22          1           0       -2.859470   -0.632650   -2.088106
     23          6           0        2.767163   -0.299297   -0.228215
     24          6           0        3.465809   -1.416780    0.224752
     25          6           0        3.442486    0.913863   -0.407632
     26          6           0        4.830715   -1.333911    0.517243
     27          1           0        2.964196   -2.366833    0.360794
     28          6           0        4.799901    1.024985   -0.117306
     29          1           0        2.911612    1.781248   -0.783784
     30          6           0        5.473987   -0.112215    0.340246
     31          1           0        6.534788   -0.039768    0.559168
     32          6           0        5.532235    2.329505   -0.290711
     33          1           0        6.402473    2.209335   -0.940188
     34          1           0        4.890277    3.095512   -0.726426
     35          1           0        5.896057    2.704739    0.668404
     36          6           0        5.578343   -2.534455    1.038733
     37          1           0        6.622360   -2.519187    0.723895
     38          1           0        5.566773   -2.552950    2.131979
     39          1           0        5.131972   -3.466922    0.690768
     40          6           0       -5.158311   -2.069479   -1.764544
     41          1           0       -5.644749   -2.887259   -1.232092
     42          1           0       -5.921586   -1.577822   -2.374927
     43          1           0       -4.421076   -2.497735   -2.443933
     44          6           0       -5.253398    0.398939    2.632073
     45          1           0       -6.206790    0.909585    2.475085
     46          1           0       -5.466774   -0.525437    3.172304
     47          1           0       -4.638801    1.030471    3.273143
 ---------------------------------------------------------------------

 SCF Done:  E(RB3LYP) =  -1422.72252655     A.U. after   14 cycles

      1  P    Isotropic =   270.7303   Anisotropy =    63.1880

      2  P    Isotropic =   261.6036   Anisotropy =   126.0280

      3  C    Isotropic =   146.7766   Anisotropy =    27.8944

      4  H    Isotropic =    29.9436   Anisotropy =     4.7680

      5  H    Isotropic =    30.4701   Anisotropy =     6.4127

      6  C    Isotropic =    33.9056   Anisotropy =   205.6915

      7  C    Isotropic =    43.8006   Anisotropy =   152.6811

      8  C    Isotropic =    37.8493   Anisotropy =   195.0879

      9  C    Isotropic =    47.1500   Anisotropy =   154.3207

     10  C    Isotropic =    36.9673   Anisotropy =   197.0487

     11  C    Isotropic =    46.7429   Anisotropy =   159.6581

     12  C    Isotropic =   167.0858   Anisotropy =    23.0641

     13  H    Isotropic =    30.9357   Anisotropy =     9.0249

     14  H    Isotropic =    29.9869   Anisotropy =     8.1574

     15  H    Isotropic =    30.4333   Anisotropy =     8.2980

     16  C    Isotropic =   173.8779   Anisotropy =    14.1102

     17  H    Isotropic =    30.8744   Anisotropy =    10.1614

     18  H    Isotropic =    30.7424   Anisotropy =     8.0144

     19  H    Isotropic =    30.9939   Anisotropy =    10.5426

     20  H    Isotropic =    24.5709   Anisotropy =     8.6535

     21  H    Isotropic =    24.2685   Anisotropy =    11.6543

     22  H    Isotropic =    24.0904   Anisotropy =     9.4450

     23  C    Isotropic =    30.2325   Anisotropy =   201.8861

     24  C    Isotropic =    55.5077   Anisotropy =   157.5487

     25  C    Isotropic =    49.6715   Anisotropy =   151.8878

     26  C    Isotropic =    38.0460   Anisotropy =   195.8527

     27  H    Isotropic =    24.9700   Anisotropy =    12.9146

     28  C    Isotropic =    37.7139   Anisotropy =   195.5829

     29  H    Isotropic =    24.6248   Anisotropy =    11.4079

     30  C    Isotropic =    51.2489   Anisotropy =   146.2766

     31  H    Isotropic =    24.8524   Anisotropy =     8.5304

     32  C    Isotropic =   160.5295   Anisotropy =    41.2010

     33  H    Isotropic =    29.3876   Anisotropy =     8.3016

     34  H    Isotropic =    29.8695   Anisotropy =     6.4044

     35  H    Isotropic =    29.4317   Anisotropy =     8.1389

     36  C    Isotropic =   160.6720   Anisotropy =    41.2826

     37  H    Isotropic =    29.6958   Anisotropy =     8.0028

     38  H    Isotropic =    29.4194   Anisotropy =     8.2163

     39  H    Isotropic =    29.7736   Anisotropy =     6.7725

     40  C    Isotropic =   160.3157   Anisotropy =    41.5838

     41  H    Isotropic =    29.5959   Anisotropy =     7.7097

     42  H    Isotropic =    29.2832   Anisotropy =     8.7455

     43  H    Isotropic =    29.6056   Anisotropy =     6.5789

     44  C    Isotropic =   160.6650   Anisotropy =    41.1429

     45  H    Isotropic =    29.3480   Anisotropy =     8.7024

     46  H    Isotropic =    29.4378   Anisotropy =     7.9688

     47  H    Isotropic =    29.8457   Anisotropy =     6.3296

 The electronic state is 1-A.
 Alpha  occ. eigenvalues --  -77.03814 -77.03724 -10.18590 -10.18561 -10.17958
 Alpha  occ. eigenvalues --  -10.17890 -10.17762 -10.17671 -10.17391 -10.17276
 Alpha  occ. eigenvalues --  -10.17227 -10.17210 -10.17151 -10.17018 -10.16609
 Alpha  occ. eigenvalues --  -10.16597 -10.16570 -10.16554 -10.16463 -10.16423
 Alpha  occ. eigenvalues --  -10.16258  -6.52383  -6.52301  -4.68537  -4.68506
 Alpha  occ. eigenvalues --   -4.68457  -4.68418  -4.68006  -4.67918  -0.86451
 Alpha  occ. eigenvalues --   -0.85777  -0.78689  -0.78092  -0.77797  -0.76633
 Alpha  occ. eigenvalues --   -0.73889  -0.71792  -0.69582  -0.69031  -0.68973
 Alpha  occ. eigenvalues --   -0.68492  -0.67783  -0.61213  -0.60139  -0.57728
 Alpha  occ. eigenvalues --   -0.57113  -0.53412  -0.52675  -0.50059  -0.49666
 Alpha  occ. eigenvalues --   -0.47810  -0.47279  -0.44269  -0.43473  -0.42977
 Alpha  occ. eigenvalues --   -0.42610  -0.42499  -0.42079  -0.41965  -0.41673
 Alpha  occ. eigenvalues --   -0.41490  -0.41372  -0.40942  -0.40567  -0.40235
 Alpha  occ. eigenvalues --   -0.40143  -0.39740  -0.38806  -0.38340  -0.37829
 Alpha  occ. eigenvalues --   -0.37667  -0.37047  -0.35106  -0.34942  -0.34488
 Alpha  occ. eigenvalues --   -0.33944  -0.32271  -0.31963  -0.30599  -0.25820
 Alpha  occ. eigenvalues --   -0.24847  -0.24663  -0.24007  -0.21716  -0.18139
 Alpha virt. eigenvalues --   -0.03034  -0.01787  -0.01241  -0.00568   0.01975
 Alpha virt. eigenvalues --    0.02998   0.03844   0.04604   0.05182   0.05201
 Alpha virt. eigenvalues --    0.05468   0.06112   0.06911   0.07607   0.08037

 Mulliken charges:
               1
     1  P    0.187847
     2  P    0.144827
     3  C   -0.359100
     4  H    0.121686
     5  H    0.131129
     6  C    0.123841
     7  C   -0.307508
     8  C    0.234153
     9  C   -0.257896
    10  C    0.200464
    11  C   -0.315308
    12  C   -0.411890
    13  H    0.127874
    14  H    0.106331
    15  H    0.122711
    16  C   -0.468970
    17  H    0.131509
    18  H    0.119314
    19  H    0.158359
    20  H    0.095817
    21  H    0.104639
    22  H    0.107793
    23  C    0.138604
    24  C   -0.289359
    25  C   -0.330819
    26  C    0.200397
    27  H    0.109389
    28  C    0.213053
    29  H    0.099698
    30  C   -0.272389
    31  H    0.089883
    32  C   -0.369329
    33  H    0.118862
    34  H    0.112775
    35  H    0.118354
    36  C   -0.370262
    37  H    0.115877
    38  H    0.121070
    39  H    0.115014
    40  C   -0.363794
    41  H    0.116136
    42  H    0.123355
    43  H    0.119392
    44  C   -0.366739
    45  H    0.121643
    46  H    0.118629
    47  H    0.112938
 Sum of Mulliken charges =  -0.00000

 Dipole moment (field-independent basis, Debye):
    X=             -0.9250    Y=             -0.3274    Z=              2.2218  Tot=              2.4289
 Quadrupole moment (field-independent basis, Debye-Ang):
   XX=           -128.5000   YY=           -136.3300   ZZ=           -147.1829
   XY=              3.7356   XZ=              0.2624   YZ=              1.8818

 Summary of Natural Population Analysis:

                                       Natural Population
                Natural  -----------------------------------------------
    Atom  No    Charge         Core      Valence    Rydberg      Total
 -----------------------------------------------------------------------
      P    1    0.82082      9.99850     4.14290    0.03778    14.17918
      P    2    0.79053      9.99851     4.17260    0.03836    14.20947
      C    3   -0.99930      1.99945     4.96794    0.03190     6.99930
      H    4    0.23522      0.00000     0.76214    0.00263     0.76478
      H    5    0.24739      0.00000     0.75103    0.00158     0.75261
      C    6   -0.31536      1.99902     4.28540    0.03095     6.31536
      C    7   -0.20264      1.99900     4.18313    0.02051     6.20264
      C    8   -0.00919      1.99911     3.99144    0.01864     6.00919
      C    9   -0.19845      1.99899     4.18233    0.01713     6.19845
      C   10   -0.00765      1.99913     3.98953    0.01900     6.00765
      C   11   -0.21044      1.99899     4.19262    0.01883     6.21044
      C   12   -0.90908      1.99945     4.89145    0.01817     6.90908
      H   13    0.23181      0.00000     0.76725    0.00093     0.76819
      H   14    0.20378      0.00000     0.79357    0.00265     0.79622
      H   15    0.22504      0.00000     0.77400    0.00096     0.77496
      C   16   -0.92215      1.99945     4.90378    0.01891     6.92215
      H   17    0.23066      0.00000     0.76841    0.00093     0.76934
      H   18    0.21003      0.00000     0.78686    0.00311     0.78997
      H   19    0.23756      0.00000     0.76134    0.00110     0.76244
      H   20    0.19671      0.00000     0.80155    0.00174     0.80329
      H   21    0.19624      0.00000     0.80036    0.00340     0.80376
      H   22    0.21337      0.00000     0.78445    0.00218     0.78663
      C   23   -0.30339      1.99902     4.27621    0.02816     6.30339
      C   24   -0.22277      1.99899     4.20395    0.01984     6.22277
      C   25   -0.21780      1.99899     4.19859    0.02022     6.21780
      C   26   -0.00199      1.99912     3.98389    0.01898     6.00199
      H   27    0.19867      0.00000     0.79884    0.00249     0.80133
      C   28   -0.00312      1.99912     3.98505    0.01895     6.00312
      H   29    0.19917      0.00000     0.79849    0.00234     0.80083
      C   30   -0.21522      1.99898     4.19842    0.01782     6.21522
      H   31    0.19502      0.00000     0.80317    0.00181     0.80498
      C   32   -0.60885      1.99941     4.59746    0.01198     6.60885
      H   33    0.21330      0.00000     0.78548    0.00122     0.78670
      H   34    0.20873      0.00000     0.79027    0.00100     0.79127
      H   35    0.21262      0.00000     0.78612    0.00126     0.78738
      C   36   -0.60926      1.99941     4.59777    0.01208     6.60926
      H   37    0.21062      0.00000     0.78828    0.00110     0.78938
      H   38    0.21344      0.00000     0.78527    0.00129     0.78656
      H   39    0.20963      0.00000     0.78932    0.00105     0.79037
      C   40   -0.60930      1.99941     4.59804    0.01185     6.60930
      H   41    0.21066      0.00000     0.78825    0.00110     0.78934
      H   42    0.21574      0.00000     0.78299    0.00126     0.78426
      H   43    0.21225      0.00000     0.78673    0.00102     0.78775
      C   44   -0.60988      1.99941     4.59852    0.01195     6.60988
      H   45    0.21474      0.00000     0.78403    0.00123     0.78526
      H   46    0.21307      0.00000     0.78576    0.00118     0.78693
      H   47    0.20902      0.00000     0.78999    0.00100     0.79098
 =======================================================================
   * Total *    0.00000     57.98146   111.53498    0.48356   170.00000

 Normal termination of Gaussian 16 at Tue Jan  2 06:54:58 2001.
