 Gaussian 16, Revision B.01,
 Gaussian 16:  ES64L-G16RevB.01 20-Dec-2017

 --------------------------------------------
 # nmr=giao b3lyp/def2TZVP pop=nbo scfcyc=200
 --------------------------------------------

 ------------------
 Ligand 24 SPE NoRh
 ------------------
 Symbolic Z-matrix:
 Charge =  0 Multiplicity = 1

                         Standard orientation:
 ---------------------------------------------------------------------
 Center     Atomic      Atomic             Coordinates (Angstroms)
 Number     Number       Type             X           Y           Z
 ---------------------------------------------------------------------
      1          7           0       -0.843855    0.005536   -0.110953
      2          7           0        1.511760    0.737842    1.395051
      3          7           0        0.252310    2.494738   -0.110013
      4          8           0       -1.786039   -2.093536    0.849121
      5         15           0       -2.186657   -0.484747    0.893412
      6         15           0       -0.088905    1.152619    0.922284
      7          6           0       -0.406679   -1.135926   -0.974994
      8          1           0       -0.978895   -1.075175   -1.898587
      9          6           0       -0.780712   -2.413619   -0.144479
     10          1           0       -1.219413   -3.164473   -0.802891
     11          6           0        0.537136   -2.925289    0.463914
     12          1           0        0.661018   -2.531831    1.477292
     13          1           0        0.559406   -4.013223    0.533924
     14          6           0        1.580529   -2.364437   -0.472839
     15          6           0        1.058283   -1.328078   -1.251715
     16          6           0        1.830574   -0.700681   -2.222255
     17          1           0        1.414495    0.082846   -2.846010
     18          6           0        3.150330   -1.107252   -2.394115
     19          1           0        3.765879   -0.637709   -3.150703
     20          6           0        3.677396   -2.133836   -1.610742
     21          1           0        4.701928   -2.450578   -1.763997
     22          6           0        2.896391   -2.769784   -0.649632
     23          1           0        3.309503   -3.580734   -0.061150
     24          6           0       -3.825409   -0.404713   -0.038556
     25          6           0       -3.739364   -1.005737   -1.446954
     26          1           0       -3.409829   -2.044898   -1.433528
     27          1           0       -3.084160   -0.428708   -2.100552
     28          1           0       -4.735533   -0.988717   -1.896423
     29          6           0       -4.824585   -1.216841    0.809280
     30          1           0       -5.811082   -1.162207    0.342852
     31          1           0       -4.924847   -0.827572    1.824462
     32          1           0       -4.540984   -2.268072    0.872809
     33          6           0       -4.253062    1.068837   -0.116941
     34          1           0       -5.240475    1.131107   -0.580752
     35          1           0       -3.565544    1.662329   -0.722436
     36          1           0       -4.318614    1.532586    0.868830
     37          6           0        1.791568    0.045137    2.581945
     38          1           0        0.995658   -0.224015    3.253925
     39          6           0        3.136458   -0.158446    2.650806
     40          1           0        3.656461   -0.654561    3.453934
     41          6           0        3.722383    0.416553    1.481349
     42          1           0        4.770591    0.433791    1.229237
     43          6           0        2.722877    0.949253    0.726954
     44          1           0        2.749020    1.458008   -0.219245
     45          6           0        0.944960    3.638806    0.298423
     46          1           0        1.564961    3.627142    1.178417
     47          6           0        0.720820    4.623374   -0.618601
     48          1           0        1.150359    5.612315   -0.594725
     49          6           0       -0.151962    4.097582   -1.617172
     50          1           0       -0.510151    4.611088   -2.494291
     51          6           0       -0.441593    2.807134   -1.279345
     52          1           0       -1.057551    2.072434   -1.763380
 ---------------------------------------------------------------------

 SCF Done:  E(RB3LYP) =  -1737.92012741     A.U. after   27 cycles

      1  N    Isotropic =   119.5278   Anisotropy =    39.6627

      2  N    Isotropic =    56.0919   Anisotropy =   148.0069

      3  N    Isotropic =    61.0327   Anisotropy =   124.2669

      4  O    Isotropic =   236.1680   Anisotropy =   121.4133

      5  P    Isotropic =    29.9980   Anisotropy =   179.7957

      6  P    Isotropic =   165.1709   Anisotropy =   166.1973

      7  C    Isotropic =   107.3571   Anisotropy =    24.2186

      8  H    Isotropic =    26.4870   Anisotropy =     5.2272

      9  C    Isotropic =    83.0383   Anisotropy =    80.7041

     10  H    Isotropic =    26.1793   Anisotropy =     3.7719

     11  C    Isotropic =   139.9306   Anisotropy =    41.9313

     12  H    Isotropic =    28.9734   Anisotropy =     3.4350

     13  H    Isotropic =    28.9015   Anisotropy =     8.3279

     14  C    Isotropic =    33.3042   Anisotropy =   168.0539

     15  C    Isotropic =    41.1376   Anisotropy =   164.0550

     16  C    Isotropic =    50.2379   Anisotropy =   181.1159

     17  H    Isotropic =    24.3546   Anisotropy =     7.5880

     18  C    Isotropic =    50.8760   Anisotropy =   184.6350

     19  H    Isotropic =    24.5987   Anisotropy =     5.3253

     20  C    Isotropic =    48.1424   Anisotropy =   188.2248

     21  H    Isotropic =    24.6175   Anisotropy =     3.5017

     22  C    Isotropic =    52.0654   Anisotropy =   177.4440

     23  H    Isotropic =    24.8837   Anisotropy =     6.0754

     24  C    Isotropic =   135.7911   Anisotropy =    24.3818

     25  C    Isotropic =   156.8467   Anisotropy =    37.5762

     26  H    Isotropic =    30.5949   Anisotropy =     4.6750

     27  H    Isotropic =    30.6604   Anisotropy =     6.0076

     28  H    Isotropic =    30.9768   Anisotropy =     9.6174

     29  C    Isotropic =   157.7131   Anisotropy =    39.5562

     30  H    Isotropic =    31.3293   Anisotropy =     9.2497

     31  H    Isotropic =    30.7243   Anisotropy =     9.1641

     32  H    Isotropic =    30.7716   Anisotropy =     7.7904

     33  C    Isotropic =   159.0722   Anisotropy =    36.2927

     34  H    Isotropic =    31.1947   Anisotropy =     8.9819

     35  H    Isotropic =    30.8636   Anisotropy =     8.9123

     36  H    Isotropic =    30.7178   Anisotropy =     7.8460

     37  C    Isotropic =    54.7218   Anisotropy =   120.4008

     38  H    Isotropic =    24.7622   Anisotropy =     5.4211

     39  C    Isotropic =    67.5416   Anisotropy =   139.2768

     40  H    Isotropic =    25.6454   Anisotropy =     3.3114

     41  C    Isotropic =    67.0670   Anisotropy =   143.0349

     42  H    Isotropic =    26.1441   Anisotropy =     4.1213

     43  C    Isotropic =    55.1597   Anisotropy =   133.6877

     44  H    Isotropic =    25.7792   Anisotropy =     5.6000

     45  C    Isotropic =    55.8582   Anisotropy =   122.6567

     46  H    Isotropic =    25.2742   Anisotropy =     8.5140

     47  C    Isotropic =    65.1962   Anisotropy =   137.7034

     48  H    Isotropic =    25.3177   Anisotropy =     2.9863

     49  C    Isotropic =    67.8553   Anisotropy =   138.0547

     50  H    Isotropic =    25.3132   Anisotropy =     3.8375

     51  C    Isotropic =    56.6001   Anisotropy =   117.3415

     52  H    Isotropic =    24.3091   Anisotropy =     7.4309

 The electronic state is 1-A.
 Alpha  occ. eigenvalues --  -77.11970 -77.09180 -19.14114 -14.35890 -14.35768
 Alpha  occ. eigenvalues --  -14.34012 -10.24412 -10.23347 -10.19572 -10.19295
 Alpha  occ. eigenvalues --  -10.19182 -10.19139 -10.19127 -10.18991 -10.18904
 Alpha  occ. eigenvalues --  -10.18607 -10.18431 -10.18386 -10.18297 -10.18273
 Alpha  occ. eigenvalues --  -10.16803 -10.16627 -10.16582 -10.16155 -10.15958
 Alpha  occ. eigenvalues --  -10.15843 -10.15787  -6.59704  -6.57108  -4.75915
 Alpha  occ. eigenvalues --   -4.75882  -4.75298  -4.73470  -4.73136  -4.72691
 Alpha  occ. eigenvalues --   -1.04028  -0.98352  -0.96291  -0.91383  -0.87835
 Alpha  occ. eigenvalues --   -0.82319  -0.81341  -0.79384  -0.76891  -0.76602
 Alpha  occ. eigenvalues --   -0.72717  -0.72656  -0.72179  -0.70989  -0.69466
 Alpha  occ. eigenvalues --   -0.69362  -0.65063  -0.62853  -0.59953  -0.59820
 Alpha  occ. eigenvalues --   -0.59153  -0.57491  -0.57183  -0.56131  -0.55221
 Alpha  occ. eigenvalues --   -0.54119  -0.54087  -0.52852  -0.51916  -0.48972
 Alpha  occ. eigenvalues --   -0.47487  -0.47162  -0.46249  -0.45579  -0.44661
 Alpha  occ. eigenvalues --   -0.44344  -0.44018  -0.43283  -0.42835  -0.42496
 Alpha  occ. eigenvalues --   -0.42160  -0.41994  -0.41098  -0.40781  -0.40470
 Alpha  occ. eigenvalues --   -0.40024  -0.39679  -0.39581  -0.39167  -0.38981
 Alpha  occ. eigenvalues --   -0.38224  -0.38014  -0.37560  -0.37073  -0.36209
 Alpha  occ. eigenvalues --   -0.35427  -0.34857  -0.34470  -0.34038  -0.33346
 Alpha  occ. eigenvalues --   -0.31506  -0.29449  -0.28609  -0.26901  -0.25861
 Alpha  occ. eigenvalues --   -0.25602  -0.23093  -0.22729  -0.22003  -0.20002
 Alpha virt. eigenvalues --   -0.03308  -0.02378  -0.00142   0.00106   0.00726
 Alpha virt. eigenvalues --    0.01996   0.02811   0.03764   0.04630   0.04802
 Alpha virt. eigenvalues --    0.05507   0.05977   0.06365   0.06604   0.07067

 Mulliken charges:
               1
     1  N   -0.274032
     2  N   -0.016786
     3  N   -0.037338
     4  O   -0.395228
     5  P    0.323434
     6  P    0.271640
     7  C    0.055602
     8  H    0.097357
     9  C    0.110820
    10  H    0.079020
    11  C   -0.144182
    12  H    0.101187
    13  H    0.111264
    14  C    0.073126
    15  C    0.020937
    16  C   -0.255864
    17  H    0.110540
    18  C   -0.085604
    19  H    0.111268
    20  C   -0.093372
    21  H    0.108658
    22  C   -0.201868
    23  H    0.102898
    24  C    0.115220
    25  C   -0.398596
    26  H    0.117499
    27  H    0.110469
    28  H    0.109024
    29  C   -0.374764
    30  H    0.108711
    31  H    0.121363
    32  H    0.126436
    33  C   -0.377281
    34  H    0.106539
    35  H    0.116814
    36  H    0.127649
    37  C   -0.183432
    38  H    0.141220
    39  C   -0.132591
    40  H    0.109356
    41  C   -0.126549
    42  H    0.104520
    43  C   -0.146429
    44  H    0.151505
    45  C   -0.134981
    46  H    0.148651
    47  C   -0.159968
    48  H    0.109715
    49  C   -0.163369
    50  H    0.107931
    51  C   -0.147541
    52  H    0.139402
 Sum of Mulliken charges =  -0.00000

 Dipole moment (field-independent basis, Debye):
    X=              0.4327    Y=             -2.1367    Z=             -2.2052  Tot=              3.1009
 Quadrupole moment (field-independent basis, Debye-Ang):
   XX=           -166.3649   YY=           -175.9844   ZZ=           -175.6411
   XY=             -2.3015   XZ=              3.0729   YZ=             -2.6064

 Summary of Natural Population Analysis:

                                       Natural Population
                Natural  -----------------------------------------------
    Atom  No    Charge         Core      Valence    Rydberg      Total
 -----------------------------------------------------------------------
      N    1   -1.05910      1.99958     6.01829    0.04123     8.05910
      N    2   -0.66679      1.99944     5.63131    0.03604     7.66679
      N    3   -0.64692      1.99942     5.61095    0.03656     7.64692
      O    4   -0.78210      1.99983     6.75596    0.02631     8.78210
      P    5    1.27599      9.99834     3.66342    0.06224    13.72401
      P    6    1.39011      9.99792     3.55066    0.06131    13.60989
      C    7   -0.09402      1.99920     4.06915    0.02567     6.09402
      H    8    0.20749      0.00000     0.78975    0.00275     0.79251
      C    9    0.10720      1.99924     3.87561    0.01795     5.89280
      H   10    0.18347      0.00000     0.81449    0.00204     0.81653
      C   11   -0.44322      1.99932     4.42958    0.01431     6.44322
      H   12    0.22956      0.00000     0.76729    0.00315     0.77044
      H   13    0.21837      0.00000     0.78030    0.00133     0.78163
      C   14    0.00634      1.99901     3.97501    0.01964     5.99366
      C   15   -0.05110      1.99896     4.03054    0.02161     6.05110
      C   16   -0.18833      1.99906     4.17071    0.01856     6.18833
      H   17    0.21173      0.00000     0.78604    0.00223     0.78827
      C   18   -0.20428      1.99920     4.18677    0.01830     6.20428
      H   19    0.21027      0.00000     0.78855    0.00118     0.78973
      C   20   -0.18766      1.99921     4.16981    0.01863     6.18766
      H   21    0.20901      0.00000     0.78986    0.00113     0.79099
      C   22   -0.19255      1.99907     4.17485    0.01863     6.19255
      H   23    0.21040      0.00000     0.78824    0.00135     0.78960
      C   24   -0.35680      1.99948     4.33017    0.02715     6.35680
      C   25   -0.60025      1.99938     4.58886    0.01202     6.60025
      H   26    0.20501      0.00000     0.79365    0.00134     0.79499
      H   27    0.19893      0.00000     0.79982    0.00126     0.80107
      H   28    0.20193      0.00000     0.79589    0.00218     0.79807
      C   29   -0.60451      1.99938     4.59294    0.01219     6.60451
      H   30    0.20616      0.00000     0.79206    0.00178     0.79384
      H   31    0.21334      0.00000     0.78528    0.00138     0.78666
      H   32    0.21615      0.00000     0.78258    0.00127     0.78385
      C   33   -0.60323      1.99937     4.59204    0.01182     6.60323
      H   34    0.20594      0.00000     0.79227    0.00179     0.79406
      H   35    0.20824      0.00000     0.79021    0.00155     0.79176
      H   36    0.21526      0.00000     0.78345    0.00129     0.78474
      C   37   -0.06732      1.99912     4.04652    0.02167     6.06732
      H   38    0.21977      0.00000     0.77897    0.00126     0.78023
      C   39   -0.28186      1.99914     4.26337    0.01935     6.28186
      H   40    0.21860      0.00000     0.78028    0.00112     0.78140
      C   41   -0.27854      1.99914     4.26044    0.01897     6.27854
      H   42    0.21770      0.00000     0.78107    0.00123     0.78230
      C   43   -0.05950      1.99910     4.03599    0.02441     6.05950
      H   44    0.22269      0.00000     0.77523    0.00208     0.77731
      C   45   -0.06925      1.99913     4.04851    0.02161     6.06925
      H   46    0.22032      0.00000     0.77855    0.00113     0.77968
      C   47   -0.28096      1.99914     4.26184    0.01998     6.28096
      H   48    0.21830      0.00000     0.78060    0.00111     0.78170
      C   49   -0.28788      1.99914     4.26904    0.01970     6.28788
      H   50    0.21719      0.00000     0.78170    0.00111     0.78281
      C   51   -0.07162      1.99912     4.04888    0.02362     6.07162
      H   52    0.21231      0.00000     0.78560    0.00209     0.78769
 =======================================================================
   * Total *   -0.00000     69.97745   139.31295    0.70960   210.00000

 1\1\GINC-G4NODEC5\SP\RB3LYP\def2TZVP\C21H25N3O1P2\ROOT\06-Nov-2024\0\\
 # nmr=giao b3lyp/def2TZVP pop=nbo scfcyc=200\\Ligand 24 SPE NoRh\\0,1\
 N,0,0.894,0.97,0.566\N,0,1.304,-1.712,-0.43\N,0,0.763,-1.266,2.109\O,0
 ,0.385,2.469,-1.36\P,0,-0.491,1.769,-0.138\P,0,0.353,-0.661,0.544\C,0,
 2.147,1.707,0.209\H,0,2.315,2.448,0.988\C,0,1.819,2.38,-1.17\H,0,2.2,3
 .402,-1.18\C,0,2.524,1.525,-2.238\H,0,1.829,0.785,-2.646\H,0,2.882,2.1
 28,-3.073\C,0,3.635,0.862,-1.459\C,0,3.399,0.928,-0.083\C,0,4.321,0.42
 6,0.828\H,0,4.15,0.505,1.896\C,0,5.483,-0.169,0.346\H,0,6.218,-0.558,1

 Normal termination of Gaussian 16 at Wed Nov  6 15:57:19 2024.
