 Gaussian 16, Revision B.01,
 Gaussian 16:  ES64L-G16RevB.01 20-Dec-2017

 --------------------------------------------
 # nmr=giao b3lyp/def2TZVP pop=nbo scfcyc=200
 --------------------------------------------

 ------------------
 Ligand 25 SPE NoRh
 ------------------
 Symbolic Z-matrix:
 Charge =  0 Multiplicity = 1

                         Standard orientation:
 ---------------------------------------------------------------------
 Center     Atomic      Atomic             Coordinates (Angstroms)
 Number     Number       Type             X           Y           Z
 ---------------------------------------------------------------------
      1          7           0       -0.551431    0.114143   -0.141903
      2          8           0       -1.299730   -1.900765    1.091642
      3         15           0       -1.883120   -0.360588    0.835922
      4         15           0       -0.032463    1.613888    0.604421
      5          6           0        0.065283   -1.064490   -0.809050
      6          1           0       -0.385902   -1.167016   -1.796747
      7          6           0       -0.312237   -2.294373    0.106920
      8          1           0       -0.761681   -3.078772   -0.501581
      9          6           0        0.994052   -2.788938    0.757319
     10          1           0        1.007875   -2.524039    1.817368
     11          1           0        1.078122   -3.875268    0.705103
     12          6           0        2.082493   -2.096725   -0.025085
     13          6           0        1.565979   -1.138538   -0.899431
     14          6           0        2.400932   -0.441328   -1.767650
     15          1           0        1.994472    0.270071   -2.478714
     16          6           0        3.770937   -0.676405   -1.721529
     17          1           0        4.434313   -0.144612   -2.392172
     18          6           0        4.293071   -1.612154   -0.827612
     19          1           0        5.359602   -1.795211   -0.806353
     20          6           0        3.452118   -2.333824    0.016822
     21          1           0        3.864178   -3.081056    0.684785
     22          6           0       -3.467080   -0.661527   -0.158410
     23          6           0       -3.210469   -1.367563   -1.495980
     24          1           0       -2.755052   -2.349072   -1.366746
     25          1           0       -2.589055   -0.768634   -2.163020
     26          1           0       -4.167854   -1.524629   -2.001393
     27          6           0       -4.364418   -1.546015    0.729609
     28          1           0       -5.317867   -1.707622    0.221986
     29          1           0       -4.585233   -1.083202    1.693093
     30          1           0       -3.912184   -2.520754    0.917093
     31          6           0       -4.141451    0.695940   -0.410312
     32          1           0       -5.113757    0.531454   -0.880450
     33          1           0       -3.553147    1.320796   -1.083719
     34          1           0       -4.304455    1.252999    0.513652
     35          6           0        0.149231    2.863216   -0.802624
     36          1           0        1.198988    2.794266   -1.103168
     37          6           0       -0.135966    4.290351   -0.315223
     38          1           0        0.436067    4.565882    0.571210
     39          1           0        0.120569    5.003286   -1.101789
     40          1           0       -1.196528    4.416064   -0.092185
     41          6           0       -0.723159    2.526543   -2.013885
     42          1           0       -0.516256    1.537101   -2.417862
     43          1           0       -1.784049    2.577114   -1.767814
     44          1           0       -0.534237    3.258101   -2.803048
     45          6           0        1.721570    1.426252    1.274756
     46          1           0        2.282781    0.950266    0.470512
     47          6           0        1.755494    0.523117    2.510719
     48          1           0        2.792960    0.306835    2.774270
     49          1           0        1.283718    1.007856    3.365803
     50          1           0        1.250113   -0.427625    2.348884
     51          6           0        2.379548    2.780795    1.573809
     52          1           0        3.380704    2.600984    1.973318
     53          1           0        2.495145    3.403917    0.688126
     54          1           0        1.833681    3.352121    2.327604
 ---------------------------------------------------------------------

 SCF Done:  E(RB3LYP) =  -1555.77101734     A.U. after   22 cycles

      1  N    Isotropic =   154.5676   Anisotropy =    74.0067

      2  O    Isotropic =   223.8649   Anisotropy =   106.3743

      3  P    Isotropic =    28.6858   Anisotropy =   213.0737

      4  P    Isotropic =   153.2040   Anisotropy =   167.2087

      5  C    Isotropic =   105.9476   Anisotropy =    30.4564

      6  H    Isotropic =    26.4149   Anisotropy =     4.1046

      7  C    Isotropic =    84.6036   Anisotropy =    75.2614

      8  H    Isotropic =    26.0167   Anisotropy =     3.9701

      9  C    Isotropic =   138.4168   Anisotropy =    43.4707

     10  H    Isotropic =    28.5197   Anisotropy =     4.4195

     11  H    Isotropic =    28.5381   Anisotropy =     8.5114

     12  C    Isotropic =    31.4315   Anisotropy =   164.5823

     13  C    Isotropic =    36.2307   Anisotropy =   168.6277

     14  C    Isotropic =    50.1857   Anisotropy =   179.9159

     15  H    Isotropic =    24.2123   Anisotropy =     7.9080

     16  C    Isotropic =    51.3304   Anisotropy =   182.6114

     17  H    Isotropic =    24.4600   Anisotropy =     5.2907

     18  C    Isotropic =    48.3827   Anisotropy =   185.8628

     19  H    Isotropic =    24.3595   Anisotropy =     3.9733

     20  C    Isotropic =    51.9090   Anisotropy =   174.7498

     21  H    Isotropic =    24.5061   Anisotropy =     6.7141

     22  C    Isotropic =   134.4172   Anisotropy =    27.2409

     23  C    Isotropic =   156.0011   Anisotropy =    39.3977

     24  H    Isotropic =    30.7547   Anisotropy =     4.8544

     25  H    Isotropic =    30.6919   Anisotropy =     5.3965

     26  H    Isotropic =    31.0534   Anisotropy =     9.5971

     27  C    Isotropic =   157.7754   Anisotropy =    38.9795

     28  H    Isotropic =    31.5267   Anisotropy =     9.1519

     29  H    Isotropic =    30.8062   Anisotropy =     8.8591

     30  H    Isotropic =    30.8270   Anisotropy =     7.5371

     31  C    Isotropic =   157.5360   Anisotropy =    37.2167

     32  H    Isotropic =    31.3343   Anisotropy =     8.8150

     33  H    Isotropic =    30.7740   Anisotropy =     8.7878

     34  H    Isotropic =    30.5757   Anisotropy =     7.6419

     35  C    Isotropic =   149.3166   Anisotropy =    14.7020

     36  H    Isotropic =    29.8414   Anisotropy =     3.8461

     37  C    Isotropic =   160.7969   Anisotropy =    33.9135

     38  H    Isotropic =    31.0825   Anisotropy =     7.8908

     39  H    Isotropic =    30.8736   Anisotropy =    10.9146

     40  H    Isotropic =    31.1320   Anisotropy =     7.6869

     41  C    Isotropic =   160.9077   Anisotropy =    24.2361

     42  H    Isotropic =    30.2592   Anisotropy =     5.3702

     43  H    Isotropic =    30.8145   Anisotropy =     7.4624

     44  H    Isotropic =    30.6495   Anisotropy =     9.9177

     45  C    Isotropic =   149.3696   Anisotropy =    17.2002

     46  H    Isotropic =    30.8620   Anisotropy =    14.2664

     47  C    Isotropic =   162.7260   Anisotropy =    30.2531

     48  H    Isotropic =    31.5975   Anisotropy =     8.3476

     49  H    Isotropic =    31.3340   Anisotropy =     8.7848

     50  H    Isotropic =    30.8815   Anisotropy =     7.2024

     51  C    Isotropic =   165.0595   Anisotropy =    28.7921

     52  H    Isotropic =    31.4397   Anisotropy =     9.8364

     53  H    Isotropic =    31.3650   Anisotropy =     7.4842

     54  H    Isotropic =    31.6007   Anisotropy =     8.9867

 The electronic state is 1-A.
 Alpha  occ. eigenvalues --  -77.07519 -77.05493 -19.12848 -14.31955 -10.23511
 Alpha  occ. eigenvalues --  -10.22347 -10.19096 -10.18879 -10.18697 -10.18640
 Alpha  occ. eigenvalues --  -10.18494 -10.18482 -10.18119 -10.17701 -10.17542
 Alpha  occ. eigenvalues --  -10.17540 -10.16369 -10.16163 -10.15996 -10.15923
 Alpha  occ. eigenvalues --  -10.15771 -10.15747 -10.15614  -6.55432  -6.53734
 Alpha  occ. eigenvalues --   -4.71791  -4.71452  -4.71031  -4.70026  -4.69750
 Alpha  occ. eigenvalues --   -4.69370  -1.02659  -0.90031  -0.87253  -0.81696
 Alpha  occ. eigenvalues --   -0.80499  -0.79620  -0.78117  -0.76795  -0.72443
 Alpha  occ. eigenvalues --   -0.70449  -0.68813  -0.68592  -0.68446  -0.68279
 Alpha  occ. eigenvalues --   -0.64120  -0.62460  -0.59400  -0.58906  -0.58871
 Alpha  occ. eigenvalues --   -0.57635  -0.53723  -0.53081  -0.51925  -0.49452
 Alpha  occ. eigenvalues --   -0.47431  -0.46839  -0.46332  -0.46227  -0.45507
 Alpha  occ. eigenvalues --   -0.45227  -0.44395  -0.43567  -0.43396  -0.43318
 Alpha  occ. eigenvalues --   -0.42724  -0.41490  -0.40719  -0.40302  -0.39982
 Alpha  occ. eigenvalues --   -0.39728  -0.38945  -0.38575  -0.38512  -0.38384
 Alpha  occ. eigenvalues --   -0.37049  -0.36903  -0.36615  -0.35955  -0.35151
 Alpha  occ. eigenvalues --   -0.34873  -0.34715  -0.34367  -0.34037  -0.33800
 Alpha  occ. eigenvalues --   -0.33486  -0.32734  -0.32178  -0.30311  -0.29495
 Alpha  occ. eigenvalues --   -0.26724  -0.26116  -0.25538  -0.22076  -0.18223
 Alpha virt. eigenvalues --   -0.03363  -0.02322   0.01555   0.02090   0.03264
 Alpha virt. eigenvalues --    0.03771   0.04153   0.04942   0.05370   0.05482
 Alpha virt. eigenvalues --    0.06214   0.06932   0.07535   0.07681   0.07760

 Mulliken charges:
               1
     1  N   -0.291843
     2  O   -0.405430
     3  P    0.327290
     4  P    0.175314
     5  C    0.014317
     6  H    0.090946
     7  C    0.119748
     8  H    0.071168
     9  C   -0.149289
    10  H    0.118579
    11  H    0.111749
    12  C   -0.010948
    13  C    0.051337
    14  C   -0.217335
    15  H    0.111751
    16  C   -0.087273
    17  H    0.110630
    18  C   -0.094024
    19  H    0.111077
    20  C   -0.209197
    21  H    0.106200
    22  C    0.112714
    23  C   -0.396067
    24  H    0.110525
    25  H    0.116345
    26  H    0.104238
    27  C   -0.371436
    28  H    0.104111
    29  H    0.118326
    30  H    0.123077
    31  C   -0.374726
    32  H    0.102165
    33  H    0.107539
    34  H    0.125976
    35  C   -0.072071
    36  H    0.069300
    37  C   -0.338645
    38  H    0.121357
    39  H    0.104624
    40  H    0.107470
    41  C   -0.342667
    42  H    0.110958
    43  H    0.103279
    44  H    0.107347
    45  C   -0.081984
    46  H    0.118762
    47  C   -0.343880
    48  H    0.105549
    49  H    0.112557
    50  H    0.106936
    51  C   -0.379725
    52  H    0.113206
    53  H    0.122658
    54  H    0.117418
 Sum of Mulliken charges =  -0.00000

 Dipole moment (field-independent basis, Debye):
    X=              2.3362    Y=             -0.6635    Z=             -2.2273  Tot=              3.2953
 Quadrupole moment (field-independent basis, Debye-Ang):
   XX=           -151.6163   YY=           -155.2950   ZZ=           -161.5651
   XY=             -0.6251   XZ=              3.9859   YZ=             -2.3405

 Summary of Natural Population Analysis:

                                       Natural Population
                Natural  -----------------------------------------------
    Atom  No    Charge         Core      Valence    Rydberg      Total
 -----------------------------------------------------------------------
      N    1   -1.05110      1.99958     6.01554    0.03599     8.05110
      O    2   -0.78326      1.99983     6.75708    0.02635     8.78326
      P    3    1.29061      9.99830     3.64841    0.06267    13.70939
      P    4    0.98767      9.99828     3.97314    0.04090    14.01233
      C    5   -0.09584      1.99922     4.07135    0.02527     6.09584
      H    6    0.20172      0.00000     0.79549    0.00279     0.79828
      C    7    0.10159      1.99926     3.87922    0.01993     5.89841
      H    8    0.17687      0.00000     0.82055    0.00257     0.82313
      C    9   -0.44315      1.99932     4.42989    0.01394     6.44315
      H   10    0.23035      0.00000     0.76771    0.00194     0.76965
      H   11    0.21804      0.00000     0.78051    0.00146     0.78196
      C   12    0.00018      1.99902     3.98112    0.01968     5.99982
      C   13   -0.04125      1.99897     4.02101    0.02127     6.04125
      C   14   -0.19741      1.99906     4.17917    0.01918     6.19741
      H   15    0.21011      0.00000     0.78789    0.00200     0.78989
      C   16   -0.20711      1.99920     4.18955    0.01836     6.20711
      H   17    0.21053      0.00000     0.78828    0.00119     0.78947
      C   18   -0.19461      1.99921     4.17677    0.01863     6.19461
      H   19    0.20969      0.00000     0.78916    0.00114     0.79031
      C   20   -0.19812      1.99908     4.18094    0.01811     6.19812
      H   21    0.21017      0.00000     0.78854    0.00129     0.78983
      C   22   -0.35882      1.99948     4.33195    0.02739     6.35882
      C   23   -0.60038      1.99938     4.58900    0.01200     6.60038
      H   24    0.20090      0.00000     0.79783    0.00126     0.79910
      H   25    0.20110      0.00000     0.79756    0.00134     0.79890
      H   26    0.19837      0.00000     0.79926    0.00237     0.80163
      C   27   -0.60326      1.99938     4.59165    0.01223     6.60326
      H   28    0.20228      0.00000     0.79582    0.00191     0.79772
      H   29    0.21189      0.00000     0.78669    0.00141     0.78811
      H   30    0.21555      0.00000     0.78320    0.00125     0.78445
      C   31   -0.60026      1.99937     4.58890    0.01198     6.60026
      H   32    0.20180      0.00000     0.79625    0.00195     0.79820
      H   33    0.20308      0.00000     0.79534    0.00158     0.79692
      H   34    0.21397      0.00000     0.78468    0.00135     0.78603
      C   35   -0.50132      1.99945     4.47807    0.02380     6.50132
      H   36    0.19241      0.00000     0.80453    0.00306     0.80759
      C   37   -0.59305      1.99943     4.58183    0.01180     6.59305
      H   38    0.20782      0.00000     0.79082    0.00136     0.79218
      H   39    0.20052      0.00000     0.79791    0.00157     0.79948
      H   40    0.20462      0.00000     0.79375    0.00163     0.79538
      C   41   -0.58511      1.99942     4.57366    0.01203     6.58511
      H   42    0.20392      0.00000     0.79480    0.00127     0.79608
      H   43    0.19859      0.00000     0.79951    0.00190     0.80141
      H   44    0.20164      0.00000     0.79678    0.00158     0.79836
      C   45   -0.50573      1.99944     4.48165    0.02464     6.50573
      H   46    0.21400      0.00000     0.78249    0.00350     0.78600
      C   47   -0.59195      1.99942     4.58082    0.01171     6.59195
      H   48    0.20279      0.00000     0.79562    0.00159     0.79721
      H   49    0.20530      0.00000     0.79323    0.00147     0.79470
      H   50    0.20541      0.00000     0.79314    0.00145     0.79459
      C   51   -0.59434      1.99942     4.58358    0.01134     6.59434
      H   52    0.20756      0.00000     0.79084    0.00159     0.79244
      H   53    0.20407      0.00000     0.79466    0.00126     0.79593
      H   54    0.20094      0.00000     0.79713    0.00193     0.79906
 =======================================================================
   * Total *   -0.00000     61.98253   127.46431    0.55316   190.00000

 1\1\GINC-G2NODEC3\SP\RB3LYP\def2TZVP\C19H31N1O1P2\ROOT\06-Nov-2024\0\\
 # nmr=giao b3lyp/def2TZVP pop=nbo scfcyc=200\\Ligand 25 SPE NoRh\\0,1\
 N,0,1.15,0.668,0.595\O,0,0.823,2.063,-1.427\P,0,-0.121,1.552,-0.152\P,
 0,0.43,-0.91,0.854\C,0,2.477,1.236,0.233\H,0,2.763,1.946,1.01\C,0,2.24
 1,1.978,-1.141\H,0,2.616,2.999,-1.074\C,0,3.006,1.185,-2.218\H,0,2.302
 ,0.644,-2.855\H,0,3.574,1.848,-2.872\C,0,3.901,0.26,-1.431\C,0,3.609,0
 .29,-0.066\C,0,4.373,-0.436,0.843\H,0,4.175,-0.377,1.908\C,0,5.408,-1.
 235,0.369\H,0,6.014,-1.804,1.063\C,0,5.683,-1.29,-0.998\H,0,6.497,-1.9

 Normal termination of Gaussian 16 at Wed Nov  6 15:49:36 2024.
