 Gaussian 16, Revision B.01,
 Gaussian 16:  ES64L-G16RevB.01 20-Dec-2017

 --------------------------------------------
 # nmr=giao b3lyp/def2TZVP pop=nbo scfcyc=200
 --------------------------------------------

 ------------------
 Ligand 28 SPE NoRh
 ------------------
 Symbolic Z-matrix:
 Charge =  0 Multiplicity = 1

                         Standard orientation:
 ---------------------------------------------------------------------
 Center     Atomic      Atomic             Coordinates (Angstroms)
 Number     Number       Type             X           Y           Z
 ---------------------------------------------------------------------
      1         15           0        0.245454    0.027136   -0.482052
      2          6           0        2.064072   -0.458585   -0.099031
      3          1           0        2.183668   -0.297640    0.976375
      4          6           0        2.471825   -1.925828   -0.416195
      5          1           0        2.304435   -2.081420   -1.487128
      6          6           0        3.983792   -2.108833   -0.164102
      7          1           0        4.192673   -1.984633    0.902815
      8          1           0        4.264181   -3.132865   -0.415941
      9          6           0        4.852680   -1.130365   -0.947474
     10          1           0        5.908698   -1.311206   -0.728822
     11          1           0        4.726891   -1.296374   -2.024878
     12          6           0        4.483912    0.311296   -0.609247
     13          1           0        4.678940    0.463317    0.460130
     14          6           0        2.983337    0.538903   -0.845532
     15          1           0        2.793184    0.477215   -1.923743
     16          1           0        2.753461    1.561929   -0.551533
     17          6           0        1.640778   -3.013826    0.309244
     18          1           0        0.594155   -2.775626    0.114289
     19          6           0        1.838452   -3.055312    1.830932
     20          1           0        2.841251   -3.397750    2.094618
     21          1           0        1.135793   -3.754631    2.288291
     22          1           0        1.692971   -2.082639    2.306271
     23          6           0        1.870477   -4.408473   -0.292643
     24          1           0        1.169811   -5.130364    0.133659
     25          1           0        2.874827   -4.783934   -0.088220
     26          1           0        1.728054   -4.404995   -1.375678
     27          6           0        5.319454    1.327589   -1.391114
     28          1           0        5.162899    1.219539   -2.467990
     29          1           0        6.385034    1.187745   -1.196912
     30          1           0        5.063747    2.353753   -1.117088
     31          6           0        0.214981    1.896779   -0.045051
     32          1           0        0.954027    2.336594   -0.716306
     33          6           0       -1.129349    2.636119   -0.293950
     34          1           0       -1.893978    2.143344    0.317557
     35          6           0       -1.027341    4.089717    0.221270
     36          1           0       -0.317828    4.642857   -0.400394
     37          1           0       -1.995352    4.578340    0.092871
     38          6           0       -0.582615    4.199800    1.675985
     39          1           0       -0.537086    5.251855    1.970551
     40          1           0       -1.320665    3.725511    2.335428
     41          6           0        0.777760    3.536339    1.879005
     42          1           0        1.504602    4.060178    1.244846
     43          6           0        0.707531    2.075088    1.409802
     44          1           0        0.039522    1.538445    2.093234
     45          1           0        1.694352    1.627686    1.531568
     46          6           0       -1.633141    2.594408   -1.761868
     47          1           0       -1.600270    1.540066   -2.074470
     48          6           0       -0.764517    3.390310   -2.745408
     49          1           0       -0.848194    4.465420   -2.578220
     50          1           0       -1.087292    3.203457   -3.771908
     51          1           0        0.294596    3.130227   -2.683893
     52          6           0       -3.095755    3.045248   -1.879797
     53          1           0       -3.474109    2.857743   -2.887493
     54          1           0       -3.210032    4.114240   -1.691321
     55          1           0       -3.743454    2.514529   -1.178244
     56          6           0        1.261391    3.622829    3.326962
     57          1           0        0.568429    3.115474    4.004508
     58          1           0        1.337931    4.662055    3.651003
     59          1           0        2.245312    3.163093    3.449940
     60          6           0       -0.922798   -0.723449    0.792053
     61          1           0       -1.392573    0.055056    1.388512
     62          1           0       -0.442286   -1.416645    1.476894
     63         15           0       -2.157677   -1.543417   -0.368774
     64          6           0       -3.920491   -1.030527    0.162696
     65          1           0       -4.313908   -1.938495    0.623631
     66          6           0       -2.156573   -3.388908    0.068093
     67          1           0       -1.185197   -3.741799   -0.283185
     68          6           0       -2.269140   -3.662891    1.572256
     69          1           0       -3.224303   -3.324088    1.979055
     70          1           0       -2.210417   -4.739630    1.748893
     71          1           0       -1.470901   -3.197524    2.150502
     72          6           0       -3.241556   -4.151781   -0.704058
     73          1           0       -3.121219   -5.223219   -0.530669
     74          1           0       -4.246097   -3.885774   -0.369102
     75          1           0       -3.192382   -3.987765   -1.779942
     76          6           0       -4.798037   -0.706852   -1.049545
     77          1           0       -4.438888    0.175446   -1.581444
     78          1           0       -4.845025   -1.536706   -1.755701
     79          1           0       -5.819373   -0.504840   -0.719547
     80          6           0       -3.992101    0.073824    1.218554
     81          1           0       -3.604936    1.024738    0.851355
     82          1           0       -5.037239    0.236370    1.490124
     83          1           0       -3.459258   -0.187153    2.134232
 ---------------------------------------------------------------------

 SCF Done:  E(RB3LYP) =  -1744.55146606     A.U. after   26 cycles

      1  P    Isotropic =   232.1884   Anisotropy =    89.2431

      2  C    Isotropic =   139.7911   Anisotropy =    21.6484

      3  H    Isotropic =    29.8631   Anisotropy =     4.0832

      4  C    Isotropic =   131.4553   Anisotropy =    14.1735

      5  H    Isotropic =    30.5577   Anisotropy =     2.1732

      6  C    Isotropic =   153.3322   Anisotropy =     6.1966

      7  H    Isotropic =    30.8751   Anisotropy =     5.2042

      8  H    Isotropic =    30.1907   Anisotropy =     8.0041

      9  C    Isotropic =   144.9395   Anisotropy =    20.5533

     10  H    Isotropic =    30.2522   Anisotropy =     9.6179

     11  H    Isotropic =    31.0432   Anisotropy =     7.0824

     12  C    Isotropic =   143.2951   Anisotropy =    10.5221

     13  H    Isotropic =    30.6141   Anisotropy =     4.9918

     14  C    Isotropic =   143.3994   Anisotropy =    30.6519

     15  H    Isotropic =    31.3291   Anisotropy =     3.7099

     16  H    Isotropic =    30.4984   Anisotropy =    10.3691

     17  C    Isotropic =   148.9090   Anisotropy =    12.3168

     18  H    Isotropic =    30.2320   Anisotropy =    12.2772

     19  C    Isotropic =   167.3869   Anisotropy =    22.6042

     20  H    Isotropic =    31.2853   Anisotropy =     8.4355

     21  H    Isotropic =    31.2949   Anisotropy =     8.3471

     22  H    Isotropic =    30.8898   Anisotropy =     5.1688

     23  C    Isotropic =   160.4000   Anisotropy =    39.8629

     24  H    Isotropic =    31.0609   Anisotropy =     8.8113

     25  H    Isotropic =    30.8800   Anisotropy =     8.3820

     26  H    Isotropic =    31.1219   Anisotropy =     8.7876

     27  C    Isotropic =   158.9748   Anisotropy =    42.6965

     28  H    Isotropic =    31.3101   Anisotropy =     7.9033

     29  H    Isotropic =    30.8932   Anisotropy =    11.1113

     30  H    Isotropic =    30.9425   Anisotropy =     8.6197

     31  C    Isotropic =   138.0571   Anisotropy =    23.0432

     32  H    Isotropic =    30.1935   Anisotropy =     5.8107

     33  C    Isotropic =   135.2907   Anisotropy =    18.6935

     34  H    Isotropic =    30.5558   Anisotropy =     6.7417

     35  C    Isotropic =   154.1966   Anisotropy =     5.0041

     36  H    Isotropic =    30.8644   Anisotropy =     6.2226

     37  H    Isotropic =    30.1249   Anisotropy =     7.8546

     38  C    Isotropic =   144.9027   Anisotropy =    20.6792

     39  H    Isotropic =    30.2380   Anisotropy =     9.7098

     40  H    Isotropic =    31.0938   Anisotropy =     5.8822

     41  C    Isotropic =   143.9461   Anisotropy =    12.1657

     42  H    Isotropic =    30.7614   Anisotropy =     5.6583

     43  C    Isotropic =   144.2689   Anisotropy =    31.2355

     44  H    Isotropic =    30.9519   Anisotropy =     5.9322

     45  H    Isotropic =    30.0823   Anisotropy =     9.0489

     46  C    Isotropic =   151.0433   Anisotropy =    12.1857

     47  H    Isotropic =    29.0915   Anisotropy =     7.0570

     48  C    Isotropic =   166.7581   Anisotropy =    27.2271

     49  H    Isotropic =    31.4051   Anisotropy =     8.2053

     50  H    Isotropic =    31.1212   Anisotropy =    10.3583

     51  H    Isotropic =    30.9158   Anisotropy =     7.4412

     52  C    Isotropic =   159.5860   Anisotropy =    37.1163

     53  H    Isotropic =    30.8536   Anisotropy =     9.7389

     54  H    Isotropic =    30.9461   Anisotropy =     7.7706

     55  H    Isotropic =    31.0059   Anisotropy =     8.7480

     56  C    Isotropic =   159.2841   Anisotropy =    42.1336

     57  H    Isotropic =    31.3266   Anisotropy =     7.3247

     58  H    Isotropic =    30.8935   Anisotropy =    11.2892

     59  H    Isotropic =    30.9041   Anisotropy =     8.8837

     60  C    Isotropic =   165.9972   Anisotropy =    24.3744

     61  H    Isotropic =    30.4925   Anisotropy =     4.9429

     62  H    Isotropic =    30.4367   Anisotropy =     7.6124

     63  P    Isotropic =   226.4948   Anisotropy =   126.8072

     64  C    Isotropic =   157.2639   Anisotropy =    10.6918

     65  H    Isotropic =    30.2969   Anisotropy =     6.5235

     66  C    Isotropic =   149.9880   Anisotropy =    11.2971

     67  H    Isotropic =    29.9310   Anisotropy =     9.8201

     68  C    Isotropic =   166.8400   Anisotropy =    25.7783

     69  H    Isotropic =    31.0702   Anisotropy =     6.5846

     70  H    Isotropic =    30.9981   Anisotropy =    10.5548

     71  H    Isotropic =    30.7321   Anisotropy =     6.1693

     72  C    Isotropic =   163.7020   Anisotropy =    33.0446

     73  H    Isotropic =    30.9158   Anisotropy =    10.9517

     74  H    Isotropic =    31.2254   Anisotropy =     7.0713

     75  H    Isotropic =    30.7642   Anisotropy =     9.3082

     76  C    Isotropic =   157.2253   Anisotropy =    36.2543

     77  H    Isotropic =    30.7976   Anisotropy =     7.3898

     78  H    Isotropic =    30.9086   Anisotropy =     8.4022

     79  H    Isotropic =    30.9337   Anisotropy =    11.0601

     80  C    Isotropic =   160.6212   Anisotropy =    22.1658

     81  H    Isotropic =    30.7928   Anisotropy =     8.8766

     82  H    Isotropic =    30.7344   Anisotropy =    10.5280

     83  H    Isotropic =    30.8022   Anisotropy =     5.4241

 The electronic state is 1-A.
 Alpha  occ. eigenvalues --  -77.03325 -77.03216 -10.17964 -10.17532 -10.17491
 Alpha  occ. eigenvalues --  -10.17377 -10.17368 -10.17301 -10.17217 -10.17214
 Alpha  occ. eigenvalues --  -10.16970 -10.16828 -10.16578 -10.16398 -10.16329
 Alpha  occ. eigenvalues --  -10.16307 -10.16256 -10.16222 -10.16021 -10.16005
 Alpha  occ. eigenvalues --  -10.15990 -10.15984 -10.15939 -10.15789 -10.15677
 Alpha  occ. eigenvalues --  -10.15675 -10.15651 -10.15223 -10.15094  -6.51809
 Alpha  occ. eigenvalues --   -6.51754  -4.67978  -4.67912  -4.67902  -4.67852
 Alpha  occ. eigenvalues --   -4.67447  -4.67387  -0.84474  -0.83998  -0.80397
 Alpha  occ. eigenvalues --   -0.80124  -0.79801  -0.78041  -0.76191  -0.74541
 Alpha  occ. eigenvalues --   -0.74256  -0.73429  -0.71799  -0.68853  -0.68687
 Alpha  occ. eigenvalues --   -0.68473  -0.67915  -0.67485  -0.67377  -0.62830
 Alpha  occ. eigenvalues --   -0.61459  -0.61285  -0.60969  -0.59787  -0.58473
 Alpha  occ. eigenvalues --   -0.56312  -0.56040  -0.55022  -0.53944  -0.51860
 Alpha  occ. eigenvalues --   -0.51126  -0.47708  -0.47072  -0.46903  -0.46488
 Alpha  occ. eigenvalues --   -0.46131  -0.45604  -0.44660  -0.44583  -0.44199
 Alpha  occ. eigenvalues --   -0.44066  -0.43765  -0.43351  -0.42894  -0.41947
 Alpha  occ. eigenvalues --   -0.41732  -0.41485  -0.41169  -0.40950  -0.40558
 Alpha  occ. eigenvalues --   -0.40502  -0.40233  -0.39964  -0.39189  -0.38791
 Alpha  occ. eigenvalues --   -0.38667  -0.38440  -0.38089  -0.37625  -0.37451
 Alpha  occ. eigenvalues --   -0.37016  -0.36139  -0.36002  -0.35475  -0.35362
 Alpha  occ. eigenvalues --   -0.35263  -0.35042  -0.34675  -0.34551  -0.34437
 Alpha  occ. eigenvalues --   -0.34296  -0.34084  -0.33767  -0.33561  -0.32643
 Alpha  occ. eigenvalues --   -0.32291  -0.32206  -0.31672  -0.31344  -0.31218
 Alpha  occ. eigenvalues --   -0.30367  -0.29696  -0.29376  -0.28951  -0.28318
 Alpha  occ. eigenvalues --   -0.27216  -0.21173  -0.18147
 Alpha virt. eigenvalues --    0.00790   0.01843   0.02295   0.02643   0.03269
 Alpha virt. eigenvalues --    0.04161   0.04281   0.04705   0.05091   0.05632
 Alpha virt. eigenvalues --    0.05696   0.06233   0.06594   0.06851   0.07007

 Mulliken charges:
               1
     1  P    0.112666
     2  C   -0.059277
     3  H    0.075398
     4  C    0.041043
     5  H    0.048862
     6  C   -0.216658
     7  H    0.087349
     8  H    0.093735
     9  C   -0.173309
    10  H    0.087013
    11  H    0.075014
    12  C    0.029111
    13  H    0.042016
    14  C   -0.289797
    15  H    0.093315
    16  H    0.102947
    17  C    0.024700
    18  H    0.046928
    19  C   -0.420235
    20  H    0.119657
    21  H    0.119159
    22  H    0.117864
    23  C   -0.382572
    24  H    0.110768
    25  H    0.109977
    26  H    0.116669
    27  C   -0.335939
    28  H    0.101388
    29  H    0.107916
    30  H    0.105818
    31  C   -0.078059
    32  H    0.074165
    33  C    0.024225
    34  H    0.010466
    35  C   -0.232486
    36  H    0.092138
    37  H    0.097398
    38  C   -0.168147
    39  H    0.087905
    40  H    0.071057
    41  C    0.025670
    42  H    0.042977
    43  C   -0.276883
    44  H    0.084911
    45  H    0.103330
    46  C    0.065933
    47  H    0.088135
    48  C   -0.398047
    49  H    0.108511
    50  H    0.110934
    51  H    0.112332
    52  C   -0.389364
    53  H    0.112834
    54  H    0.108823
    55  H    0.111975
    56  C   -0.337667
    57  H    0.098355
    58  H    0.107915
    59  H    0.105551
    60  C   -0.371267
    61  H    0.117078
    62  H    0.125828
    63  P    0.131767
    64  C   -0.053191
    65  H    0.061384
    66  C   -0.093479
    67  H    0.099557
    68  C   -0.332648
    69  H    0.107856
    70  H    0.103274
    71  H    0.109222
    72  C   -0.361873
    73  H    0.112153
    74  H    0.110925
    75  H    0.124007
    76  C   -0.337393
    77  H    0.118626
    78  H    0.114652
    79  H    0.099998
    80  C   -0.382471
    81  H    0.104516
    82  H    0.111549
    83  H    0.123516
 Sum of Mulliken charges =  -0.00000

 Dipole moment (field-independent basis, Debye):
    X=              0.3068    Y=             -0.2995    Z=              1.8025  Tot=              1.8528
 Quadrupole moment (field-independent basis, Debye-Ang):
   XX=           -203.9895   YY=           -203.6932   ZZ=           -212.6013
   XY=              0.8847   XZ=             -2.2896   YZ=             -1.2242

 Summary of Natural Population Analysis:

                                       Natural Population
                Natural  -----------------------------------------------
    Atom  No    Charge         Core      Valence    Rydberg      Total
 -----------------------------------------------------------------------
      P    1    0.77760      9.99856     4.19266    0.03118    14.22240
      C    2   -0.45642      1.99933     4.43414    0.02296     6.45642
      H    3    0.19331      0.00000     0.80300    0.00369     0.80669
      C    4   -0.20408      1.99931     4.18463    0.02014     6.20408
      H    5    0.19651      0.00000     0.80076    0.00273     0.80349
      C    6   -0.38421      1.99938     4.37028    0.01456     6.38421
      H    7    0.18658      0.00000     0.81150    0.00193     0.81342
      H    8    0.20356      0.00000     0.79483    0.00161     0.79644
      C    9   -0.37812      1.99937     4.36521    0.01354     6.37812
      H   10    0.19977      0.00000     0.79867    0.00156     0.80023
      H   11    0.18593      0.00000     0.81228    0.00179     0.81407
      C   12   -0.20006      1.99940     4.18538    0.01528     6.20006
      H   13    0.18055      0.00000     0.81761    0.00184     0.81945
      C   14   -0.39301      1.99934     4.37768    0.01598     6.39301
      H   15    0.19502      0.00000     0.80253    0.00245     0.80498
      H   16    0.19966      0.00000     0.79825    0.00209     0.80034
      C   17   -0.20325      1.99940     4.18912    0.01472     6.20325
      H   18    0.19535      0.00000     0.80171    0.00295     0.80465
      C   19   -0.60496      1.99942     4.59319    0.01235     6.60496
      H   20    0.20199      0.00000     0.79673    0.00129     0.79801
      H   21    0.20474      0.00000     0.79397    0.00130     0.79526
      H   22    0.20095      0.00000     0.79795    0.00110     0.79905
      C   23   -0.59040      1.99943     4.57917    0.01179     6.59040
      H   24    0.20197      0.00000     0.79681    0.00122     0.79803
      H   25    0.19618      0.00000     0.80229    0.00153     0.80382
      H   26    0.20440      0.00000     0.79449    0.00110     0.79560
      C   27   -0.58123      1.99943     4.57204    0.00975     6.58123
      H   28    0.19622      0.00000     0.80244    0.00135     0.80378
      H   29    0.20224      0.00000     0.79659    0.00117     0.79776
      H   30    0.20047      0.00000     0.79841    0.00112     0.79953
      C   31   -0.45242      1.99933     4.42903    0.02405     6.45242
      H   32    0.21223      0.00000     0.78543    0.00234     0.78777
      C   33   -0.20310      1.99932     4.18465    0.01914     6.20310
      H   34    0.18677      0.00000     0.81021    0.00301     0.81323
      C   35   -0.38533      1.99937     4.37120    0.01476     6.38533
      H   36    0.18854      0.00000     0.80953    0.00193     0.81146
      H   37    0.20429      0.00000     0.79408    0.00162     0.79571
      C   38   -0.37841      1.99938     4.36547    0.01356     6.37841
      H   39    0.20020      0.00000     0.79825    0.00155     0.79980
      H   40    0.18348      0.00000     0.81475    0.00177     0.81652
      C   41   -0.20395      1.99941     4.18888    0.01565     6.20395
      H   42    0.18025      0.00000     0.81784    0.00191     0.81975
      C   43   -0.39699      1.99935     4.38263    0.01501     6.39699
      H   44    0.18491      0.00000     0.81180    0.00329     0.81509
      H   45    0.19772      0.00000     0.79946    0.00282     0.80228
      C   46   -0.21328      1.99941     4.19716    0.01671     6.21328
      H   47    0.21537      0.00000     0.78260    0.00202     0.78463
      C   48   -0.59406      1.99942     4.58411    0.01052     6.59406
      H   49    0.19287      0.00000     0.80577    0.00136     0.80713
      H   50    0.20653      0.00000     0.79246    0.00101     0.79347
      H   51    0.20108      0.00000     0.79779    0.00113     0.79892
      C   52   -0.58800      1.99943     4.57776    0.01082     6.58800
      H   53    0.20540      0.00000     0.79353    0.00107     0.79460
      H   54    0.19222      0.00000     0.80617    0.00161     0.80778
      H   55    0.19793      0.00000     0.80063    0.00144     0.80207
      C   56   -0.58172      1.99944     4.57223    0.01005     6.58172
      H   57    0.19434      0.00000     0.80430    0.00135     0.80566
      H   58    0.20206      0.00000     0.79676    0.00118     0.79794
      H   59    0.20032      0.00000     0.79857    0.00111     0.79968
      C   60   -1.03470      1.99945     5.00689    0.02836     7.03470
      H   61    0.24307      0.00000     0.75419    0.00274     0.75693
      H   62    0.23914      0.00000     0.75799    0.00287     0.76086
      P   63    0.76963      9.99863     4.20009    0.03165    14.23037
      C   64   -0.47056      1.99943     4.44880    0.02233     6.47056
      H   65    0.19660      0.00000     0.79999    0.00342     0.80340
      C   66   -0.46663      1.99944     4.44474    0.02244     6.46663
      H   67    0.21203      0.00000     0.78600    0.00197     0.78797
      C   68   -0.60133      1.99942     4.59011    0.01180     6.60133
      H   69    0.19657      0.00000     0.80202    0.00141     0.80343
      H   70    0.19948      0.00000     0.79853    0.00199     0.80052
      H   71    0.20066      0.00000     0.79803    0.00130     0.79934
      C   72   -0.59611      1.99942     4.58494    0.01175     6.59611
      H   73    0.20450      0.00000     0.79390    0.00160     0.79550
      H   74    0.19624      0.00000     0.80236    0.00141     0.80376
      H   75    0.21289      0.00000     0.78560    0.00151     0.78711
      C   76   -0.59217      1.99943     4.58088    0.01187     6.59217
      H   77    0.20419      0.00000     0.79436    0.00144     0.79581
      H   78    0.20792      0.00000     0.79080    0.00129     0.79208
      H   79    0.19647      0.00000     0.80185    0.00168     0.80353
      C   80   -0.59446      1.99942     4.58303    0.01202     6.59446
      H   81    0.19392      0.00000     0.80434    0.00174     0.80608
      H   82    0.20367      0.00000     0.79457    0.00176     0.79633
      H   83    0.20247      0.00000     0.79628    0.00124     0.79753
 =======================================================================
   * Total *   -0.00000     73.98088   171.43764    0.58148   246.00000

 Normal termination of Gaussian 16 at Tue Nov 12 10:51:36 2024.
