 Gaussian 16, Revision B.01,
 Gaussian 16:  ES64L-G16RevB.01 20-Dec-2017

 --------------------------------------------
 # nmr=giao b3lyp/def2TZVP pop=nbo scfcyc=200
 --------------------------------------------

 -------------------
 Ligand 33c SPE NoRh
 -------------------
 Symbolic Z-matrix:
 Charge =  0 Multiplicity = 1

                         Standard orientation:
 ---------------------------------------------------------------------
 Center     Atomic      Atomic             Coordinates (Angstroms)
 Number     Number       Type             X           Y           Z
 ---------------------------------------------------------------------
      1          6           0        1.480452   -1.322514   -0.630090
      2          6           0        1.238630   -2.703487   -0.507716
      3          1           0        0.402938   -3.135776   -1.040501
      4          6           0        2.070839   -3.465178    0.263887
      5          1           0        1.905554   -4.531773    0.355804
      6          6           0        3.143549   -2.871589    0.973367
      7          6           0        3.962326   -3.639213    1.837913
      8          1           0        3.774143   -4.703876    1.921587
      9          6           0        4.962423   -3.051872    2.566636
     10          1           0        5.579553   -3.646146    3.229349
     11          6           0        5.178194   -1.662224    2.466013
     12          1           0        5.951335   -1.195705    3.062911
     13          6           0        4.415304   -0.892243    1.623648
     14          1           0        4.593703    0.171613    1.566967
     15          6           0        3.386925   -1.468217    0.835184
     16          6           0        2.562717   -0.692602   -0.051467
     17          6           0        1.834035    1.679358   -0.098658
     18          6           0        2.035527    3.065579   -0.226418
     19          1           0        1.223552    3.736339    0.020940
     20          6           0        3.254822    3.528982   -0.637460
     21          1           0        3.434244    4.594149   -0.723368
     22          6           0        4.292636    2.627401   -0.980091
     23          6           0        5.532901    3.096289   -1.480616
     24          1           0        5.688255    4.166417   -1.565468
     25          6           0        6.514611    2.220886   -1.864103
     26          1           0        7.456142    2.588740   -2.249955
     27          6           0        6.289836    0.832090   -1.770052
     28          1           0        7.057721    0.142571   -2.098046
     29          6           0        5.107658    0.344189   -1.271084
     30          1           0        4.954962   -0.723631   -1.212243
     31          6           0        4.078178    1.219084   -0.841392
     32          6           0        2.824937    0.746070   -0.321800
     33          6           0       -4.091202   -0.830983   -1.307508
     34          6           0       -3.481432   -2.019339   -1.721084
     35          1           0       -2.419368   -2.163885   -1.570477
     36          6           0       -4.231449   -3.019127   -2.328895
     37          1           0       -3.751674   -3.939166   -2.634116
     38          6           0       -5.593333   -2.834736   -2.550316
     39          1           0       -6.176045   -3.614494   -3.025135
     40          6           0       -6.202080   -1.645069   -2.165967
     41          1           0       -7.260041   -1.493480   -2.341365
     42          6           0       -5.457479   -0.644534   -1.549725
     43          1           0       -5.948098    0.275047   -1.259377
     44          6           0       -4.071009    1.497565    0.516085
     45          6           0       -5.068113    0.913395    1.302840
     46          1           0       -5.308286   -0.136129    1.197705
     47          6           0       -5.762661    1.679886    2.231544
     48          1           0       -6.533651    1.220351    2.837441
     49          6           0       -5.468738    3.032272    2.383566
     50          1           0       -6.012666    3.625688    3.108287
     51          6           0       -4.477655    3.619454    1.604536
     52          1           0       -4.248110    4.671628    1.720162
     53          6           0       -3.782883    2.858177    0.672551
     54          1           0       -3.009167    3.316585    0.067793
     55          6           0       -1.467837   -0.774543    1.460636
     56          1           0       -0.448775   -1.161733    1.427053
     57          6           0       -1.557272    0.209990    2.629480
     58          1           0       -0.872621    1.044113    2.489553
     59          1           0       -1.282560   -0.304442    3.553152
     60          1           0       -2.567602    0.599554    2.752433
     61          6           0       -2.410304   -1.962690    1.631546
     62          1           0       -3.456205   -1.654482    1.646923
     63          1           0       -2.199221   -2.447439    2.585833
     64          1           0       -2.280788   -2.701443    0.842091
     65          7           0       -1.646413   -0.094285    0.134803
     66          8           0        0.579763   -0.604744   -1.430425
     67          8           0        0.561061    1.257463    0.311579
     68         15           0       -0.416289    0.566547   -0.832668
     69         15           0       -3.057528    0.554520   -0.689246
 ---------------------------------------------------------------------

 SCF Done:  E(RB3LYP) =  -2239.78041007     A.U. after   15 cycles

      1  C    Isotropic =    22.6465   Anisotropy =   132.5423

      2  C    Isotropic =    57.2582   Anisotropy =   149.8966

      3  H    Isotropic =    23.8980   Anisotropy =     6.8552

      4  C    Isotropic =    48.2445   Anisotropy =   158.8386

      5  H    Isotropic =    23.6751   Anisotropy =     7.3515

      6  C    Isotropic =    45.3750   Anisotropy =   212.2073

      7  C    Isotropic =    49.6352   Anisotropy =   160.6016

      8  H    Isotropic =    23.6913   Anisotropy =     7.4942

      9  C    Isotropic =    54.3444   Anisotropy =   177.4401

     10  H    Isotropic =    24.2498   Anisotropy =     4.6079

     11  C    Isotropic =    52.3094   Anisotropy =   180.7918

     12  H    Isotropic =    24.4408   Anisotropy =     7.6110

     13  C    Isotropic =    50.1510   Anisotropy =   180.2793

     14  H    Isotropic =    24.3859   Anisotropy =    14.1409

     15  C    Isotropic =    42.1185   Anisotropy =   206.1257

     16  C    Isotropic =    51.9482   Anisotropy =   140.9428

     17  C    Isotropic =    23.5260   Anisotropy =   115.2878

     18  C    Isotropic =    56.9455   Anisotropy =   148.3022

     19  H    Isotropic =    24.0413   Anisotropy =     8.2362

     20  C    Isotropic =    47.5552   Anisotropy =   158.6877

     21  H    Isotropic =    23.6153   Anisotropy =     7.3602

     22  C    Isotropic =    44.7065   Anisotropy =   212.2827

     23  C    Isotropic =    49.4168   Anisotropy =   160.9296

     24  H    Isotropic =    23.6557   Anisotropy =     7.3932

     25  C    Isotropic =    54.3702   Anisotropy =   177.5787

     26  H    Isotropic =    24.2486   Anisotropy =     4.7256

     27  C    Isotropic =    52.3805   Anisotropy =   180.3021

     28  H    Isotropic =    24.4275   Anisotropy =     7.8214

     29  C    Isotropic =    50.0831   Anisotropy =   178.3934

     30  H    Isotropic =    24.4237   Anisotropy =    14.8720

     31  C    Isotropic =    42.3305   Anisotropy =   205.4977

     32  C    Isotropic =    51.2677   Anisotropy =   137.3232

     33  C    Isotropic =    33.2621   Anisotropy =   186.4250

     34  C    Isotropic =    48.4887   Anisotropy =   190.8369

     35  H    Isotropic =    23.6258   Anisotropy =     9.7229

     36  C    Isotropic =    50.0277   Anisotropy =   183.1279

     37  H    Isotropic =    24.1427   Anisotropy =     7.0086

     38  C    Isotropic =    52.5983   Anisotropy =   180.1315

     39  H    Isotropic =    24.4452   Anisotropy =     4.3666

     40  C    Isotropic =    50.4619   Anisotropy =   182.4280

     41  H    Isotropic =    24.3852   Anisotropy =     5.6116

     42  C    Isotropic =    50.6581   Anisotropy =   182.1473

     43  H    Isotropic =    24.3689   Anisotropy =    11.6544

     44  C    Isotropic =    37.2703   Anisotropy =   201.0744

     45  C    Isotropic =    42.8481   Anisotropy =   193.1416

     46  H    Isotropic =    23.5328   Anisotropy =    10.4787

     47  C    Isotropic =    49.9431   Anisotropy =   183.7305

     48  H    Isotropic =    24.2999   Anisotropy =     6.1010

     49  C    Isotropic =    48.0234   Anisotropy =   188.4676

     50  H    Isotropic =    24.2133   Anisotropy =     4.2744

     51  C    Isotropic =    48.9013   Anisotropy =   184.8444

     52  H    Isotropic =    24.0864   Anisotropy =     5.6062

     53  C    Isotropic =    40.5316   Anisotropy =   185.3580

     54  H    Isotropic =    23.5089   Anisotropy =     9.0391

     55  C    Isotropic =   124.1425   Anisotropy =    41.8129

     56  H    Isotropic =    28.5197   Anisotropy =    11.8578

     57  C    Isotropic =   158.7381   Anisotropy =    34.5930

     58  H    Isotropic =    30.9569   Anisotropy =     4.9698

     59  H    Isotropic =    31.9935   Anisotropy =     8.9234

     60  H    Isotropic =    32.0038   Anisotropy =    10.4494

     61  C    Isotropic =   159.4967   Anisotropy =    26.4680

     62  H    Isotropic =    30.8578   Anisotropy =     5.8366

     63  H    Isotropic =    31.4505   Anisotropy =     9.2526

     64  H    Isotropic =    30.5227   Anisotropy =     5.8792

     65  N    Isotropic =   104.7782   Anisotropy =    62.0732

     66  O    Isotropic =   127.0779   Anisotropy =    81.2826

     67  O    Isotropic =   135.2727   Anisotropy =    68.5794

     68  P    Isotropic =   105.8844   Anisotropy =   212.3844

     69  P    Isotropic =   210.7355   Anisotropy =    68.9061

 The electronic state is 1-A.
 Alpha  occ. eigenvalues --  -77.11865 -77.07199 -19.15134 -19.15081 -14.32975
 Alpha  occ. eigenvalues --  -10.24170 -10.24158 -10.21550 -10.19584 -10.19543
 Alpha  occ. eigenvalues --  -10.19420 -10.19363 -10.19075 -10.18966 -10.18879
 Alpha  occ. eigenvalues --  -10.18638 -10.18625 -10.18622 -10.18611 -10.18546
 Alpha  occ. eigenvalues --  -10.18431 -10.18417 -10.18399 -10.18306 -10.18114
 Alpha  occ. eigenvalues --  -10.18107 -10.17924 -10.17912 -10.17840 -10.17800
 Alpha  occ. eigenvalues --  -10.17740 -10.17713 -10.17711 -10.17705 -10.17652
 Alpha  occ. eigenvalues --  -10.17636 -10.17543 -10.17474 -10.16317 -10.15529
 Alpha  occ. eigenvalues --   -6.59257  -6.55459  -4.75526  -4.75417  -4.74847
 Alpha  occ. eigenvalues --   -4.71715  -4.71527  -4.71103  -1.07038  -1.03172
 Alpha  occ. eigenvalues --   -0.90624  -0.88920  -0.87733  -0.86724  -0.85877
 Alpha  occ. eigenvalues --   -0.83411  -0.82489  -0.80347  -0.78077  -0.76713
 Alpha  occ. eigenvalues --   -0.76525  -0.75844  -0.75124  -0.74875  -0.74781
 Alpha  occ. eigenvalues --   -0.74409  -0.74003  -0.71420  -0.69030  -0.66512
 Alpha  occ. eigenvalues --   -0.64798  -0.63593  -0.63112  -0.61783  -0.61749
 Alpha  occ. eigenvalues --   -0.61636  -0.61116  -0.60408  -0.60316  -0.58614
 Alpha  occ. eigenvalues --   -0.58294  -0.55363  -0.54397  -0.53424  -0.52708
 Alpha  occ. eigenvalues --   -0.52543  -0.51565  -0.50743  -0.50543  -0.50057
 Alpha  occ. eigenvalues --   -0.47618  -0.47027  -0.46620  -0.46512  -0.46431
 Alpha  occ. eigenvalues --   -0.45882  -0.45665  -0.45600  -0.44943  -0.44511
 Alpha  occ. eigenvalues --   -0.44091  -0.43405  -0.43379  -0.43079  -0.42886
 Alpha  occ. eigenvalues --   -0.42769  -0.42466  -0.42432  -0.41859  -0.41281
 Alpha  occ. eigenvalues --   -0.40770  -0.39991  -0.39667  -0.39501  -0.39290
 Alpha  occ. eigenvalues --   -0.38828  -0.38486  -0.38039  -0.37625  -0.36509
 Alpha  occ. eigenvalues --   -0.36105  -0.35925  -0.35709  -0.35654  -0.35165
 Alpha  occ. eigenvalues --   -0.35091  -0.34830  -0.34076  -0.33531  -0.33380
 Alpha  occ. eigenvalues --   -0.32998  -0.32116  -0.31940  -0.29975  -0.28806
 Alpha  occ. eigenvalues --   -0.28165  -0.27740  -0.26847  -0.26302  -0.25936
 Alpha  occ. eigenvalues --   -0.25480  -0.24808  -0.24279  -0.22863  -0.21726
 Alpha  occ. eigenvalues --   -0.19348
 Alpha virt. eigenvalues --   -0.05990  -0.04843  -0.04087  -0.02692  -0.02550
 Alpha virt. eigenvalues --   -0.02229  -0.01980  -0.01437   0.00594   0.01919
 Alpha virt. eigenvalues --    0.02169   0.02820   0.04238   0.04751   0.04853

 Mulliken charges:
               1
     1  C    0.133064
     2  C   -0.209340
     3  H    0.119183
     4  C   -0.172709
     5  H    0.102141
     6  C    0.158705
     7  C   -0.162112
     8  H    0.100476
     9  C   -0.108087
    10  H    0.107358
    11  C   -0.103631
    12  H    0.109905
    13  C   -0.177261
    14  H    0.135904
    15  C   -0.106559
    16  C    0.173088
    17  C    0.305185
    18  C   -0.241689
    19  H    0.112279
    20  C   -0.173014
    21  H    0.101748
    22  C    0.158077
    23  C   -0.158448
    24  H    0.100493
    25  C   -0.109432
    26  H    0.107043
    27  C   -0.101640
    28  H    0.109115
    29  C   -0.181408
    30  H    0.133823
    31  C   -0.106820
    32  C    0.128137
    33  C    0.042902
    34  C   -0.178192
    35  H    0.156482
    36  C   -0.131183
    37  H    0.103500
    38  C   -0.102925
    39  H    0.107187
    40  C   -0.116756
    41  H    0.108369
    42  C   -0.202861
    43  H    0.138145
    44  C    0.023254
    45  C   -0.185534
    46  H    0.149520
    47  C   -0.109657
    48  H    0.111322
    49  C   -0.095041
    50  H    0.113525
    51  C   -0.110061
    52  H    0.111815
    53  C   -0.153710
    54  H    0.122058
    55  C    0.022053
    56  H    0.096818
    57  C   -0.361821
    58  H    0.130653
    59  H    0.102820
    60  H    0.130647
    61  C   -0.319462
    62  H    0.106325
    63  H    0.111610
    64  H    0.108532
    65  N   -0.256077
    66  O   -0.343385
    67  O   -0.378862
    68  P    0.459488
    69  P    0.204923
 Sum of Mulliken charges =  -0.00000

 Dipole moment (field-independent basis, Debye):
    X=             -0.3125    Y=             -0.6668    Z=              2.7346  Tot=              2.8320
 Quadrupole moment (field-independent basis, Debye-Ang):
   XX=           -222.8052   YY=           -223.2628   ZZ=           -252.1151
   XY=              1.0758   XZ=             -5.3903   YZ=              2.9144

 Summary of Natural Population Analysis:

                                       Natural Population
                Natural  -----------------------------------------------
    Atom  No    Charge         Core      Valence    Rydberg      Total
 -----------------------------------------------------------------------
      C    1    0.28587      1.99861     3.69201    0.02352     5.71413
      C    2   -0.24028      1.99904     4.22184    0.01940     6.24028
      H    3    0.22038      0.00000     0.77818    0.00143     0.77962
      C    4   -0.15916      1.99913     4.14261    0.01741     6.15916
      H    5    0.20862      0.00000     0.79004    0.00133     0.79138
      C    6   -0.07220      1.99907     4.05417    0.01895     6.07220
      C    7   -0.17357      1.99913     4.15604    0.01840     6.17357
      H    8    0.20597      0.00000     0.79262    0.00140     0.79403
      C    9   -0.21147      1.99918     4.19312    0.01917     6.21147
      H   10    0.20944      0.00000     0.78941    0.00115     0.79056
      C   11   -0.19629      1.99919     4.17879    0.01831     6.19629
      H   12    0.20949      0.00000     0.78932    0.00119     0.79051
      C   13   -0.18829      1.99911     4.17102    0.01815     6.18829
      H   14    0.21912      0.00000     0.77941    0.00147     0.78088
      C   15   -0.02979      1.99901     4.01157    0.01920     6.02979
      C   16   -0.07541      1.99883     4.05427    0.02231     6.07541
      C   17    0.29051      1.99863     3.68642    0.02444     5.70949
      C   18   -0.23379      1.99905     4.21533    0.01941     6.23379
      H   19    0.22419      0.00000     0.77458    0.00123     0.77581
      C   20   -0.15797      1.99914     4.14080    0.01803     6.15797
      H   21    0.20890      0.00000     0.78978    0.00132     0.79110
      C   22   -0.06946      1.99907     4.05149    0.01889     6.06946
      C   23   -0.17266      1.99913     4.15517    0.01836     6.17266
      H   24    0.20604      0.00000     0.79256    0.00140     0.79396
      C   25   -0.21135      1.99918     4.19302    0.01914     6.21135
      H   26    0.20918      0.00000     0.78967    0.00115     0.79082
      C   27   -0.19631      1.99919     4.17881    0.01831     6.19631
      H   28    0.20918      0.00000     0.78963    0.00119     0.79082
      C   29   -0.18814      1.99911     4.17091    0.01813     6.18814
      H   30    0.21801      0.00000     0.78050    0.00149     0.78199
      C   31   -0.03048      1.99901     4.01226    0.01920     6.03048
      C   32   -0.07102      1.99884     4.05050    0.02169     6.07102
      C   33   -0.35302      1.99899     4.32009    0.03394     6.35302
      C   34   -0.20696      1.99909     4.18761    0.02026     6.20696
      H   35    0.21171      0.00000     0.78632    0.00197     0.78829
      C   36   -0.19633      1.99918     4.17857    0.01857     6.19633
      H   37    0.20744      0.00000     0.79129    0.00127     0.79256
      C   38   -0.21423      1.99919     4.19550    0.01954     6.21423
      H   39    0.20783      0.00000     0.79100    0.00117     0.79217
      C   40   -0.19680      1.99919     4.17893    0.01869     6.19680
      H   41    0.20838      0.00000     0.79036    0.00126     0.79162
      C   42   -0.21286      1.99909     4.19422    0.01955     6.21286
      H   43    0.21310      0.00000     0.78515    0.00175     0.78690
      C   44   -0.36213      1.99898     4.32812    0.03503     6.36213
      C   45   -0.19766      1.99908     4.17842    0.02016     6.19766
      H   46    0.21404      0.00000     0.78342    0.00253     0.78596
      C   47   -0.20608      1.99918     4.18794    0.01896     6.20608
      H   48    0.20962      0.00000     0.78903    0.00135     0.79038
      C   49   -0.19479      1.99919     4.17652    0.01908     6.19479
      H   50    0.20996      0.00000     0.78887    0.00117     0.79004
      C   51   -0.20418      1.99918     4.18572    0.01928     6.20418
      H   52    0.21115      0.00000     0.78760    0.00125     0.78885
      C   53   -0.18258      1.99910     4.16358    0.01989     6.18258
      H   54    0.21877      0.00000     0.77976    0.00146     0.78123
      C   55   -0.04371      1.99938     4.02067    0.02366     6.04371
      H   56    0.19905      0.00000     0.79798    0.00297     0.80095
      C   57   -0.60315      1.99941     4.59123    0.01250     6.60315
      H   58    0.22217      0.00000     0.77679    0.00104     0.77783
      H   59    0.20341      0.00000     0.79557    0.00102     0.79659
      H   60    0.20590      0.00000     0.79268    0.00142     0.79410
      C   61   -0.59590      1.99942     4.58391    0.01257     6.59590
      H   62    0.20271      0.00000     0.79601    0.00128     0.79729
      H   63    0.20879      0.00000     0.79022    0.00099     0.79121
      H   64    0.20998      0.00000     0.78879    0.00124     0.79002
      N   65   -1.04759      1.99956     6.01113    0.03690     8.04759
      O   66   -0.77117      1.99979     6.74597    0.02541     8.77117
      O   67   -0.78310      1.99978     6.75676    0.02656     8.78310
      P   68    1.53119      9.99821     3.38244    0.08816    13.46881
      P   69    1.02975      9.99781     3.93155    0.04089    13.97025
 =======================================================================
   * Total *    0.00000     95.96346   195.07560    0.96094   292.00000

 1\1\GINC-G1NODEC6\SP\RB3LYP\def2TZVP\C35H29N1O2P2\ROOT\03-Jan-2001\0\\
 # nmr=giao b3lyp/def2TZVP pop=nbo scfcyc=200\\Ligand 33c SPE NoRh\\0,1
 \C,0,2.206,-1.172,-1.143\C,0,2.169,-2.318,-1.959\H,0,1.32,-2.466,-2.61
 2\C,0,3.209,-3.204,-1.92\H,0,3.201,-4.083,-2.553\C,0,4.298,-3.002,-1.0
 37\C,0,5.341,-3.955,-0.932\H,0,5.309,-4.832,-1.569\C,0,6.363,-3.785,-0
 .036\H,0,7.153,-4.522,0.041\C,0,6.377,-2.652,0.803\H,0,7.171,-2.533,1.
 529\C,0,5.392,-1.7,0.714\H,0,5.419,-0.843,1.371\C,0,4.331,-1.829,-0.21
 8\C,0,3.278,-0.857,-0.334\C,0,2.25,0.77,1.233\C,0,2.246,1.915,2.05\H,0

 Normal termination of Gaussian 16 at Wed Jan  3 07:06:34 2001.
