 Gaussian 16, Revision B.01,
 Gaussian 16:  ES64L-G16RevB.01 20-Dec-2017

 --------------------------------------------
 # nmr=giao b3lyp/def2TZVP pop=nbo scfcyc=200
 --------------------------------------------

 ------------------
 Ligand 36 SPE NoRh
 ------------------
 Symbolic Z-matrix:
 Charge =  0 Multiplicity = 1

                         Standard orientation:
 ---------------------------------------------------------------------
 Center     Atomic      Atomic             Coordinates (Angstroms)
 Number     Number       Type             X           Y           Z
 ---------------------------------------------------------------------
      1         15           0       -0.127877   -0.366115   -0.525976
      2         15           0        2.432174   -0.290184   -0.024305
      3          8           0       -1.155120   -1.488082    0.112591
      4          8           0       -1.138728    0.911502   -0.754756
      5          8           0        3.382966    1.017321    0.284942
      6          8           0        3.176920   -1.369747    0.953466
      7          7           0        0.929635   -0.098171    0.785049
      8          6           0       -2.331179   -1.765165   -0.604436
      9          6           0       -2.391039   -2.999503   -1.275036
     10          1           0       -1.557693   -3.684148   -1.184709
     11          6           0       -3.506080   -3.309673   -2.003765
     12          1           0       -3.578356   -4.264190   -2.511330
     13          6           0       -4.571816   -2.384108   -2.124052
     14          6           0       -5.696039   -2.666075   -2.939136
     15          1           0       -5.743226   -3.622943   -3.446559
     16          6           0       -6.698631   -1.745324   -3.098200
     17          1           0       -7.551654   -1.969572   -3.727199
     18          6           0       -6.612528   -0.496463   -2.450522
     19          1           0       -7.394974    0.237438   -2.598694
     20          6           0       -5.547402   -0.198783   -1.637999
     21          1           0       -5.498482    0.765764   -1.154701
     22          6           0       -4.501965   -1.134491   -1.430545
     23          6           0       -3.367539   -0.856329   -0.593887
     24          6           0       -3.273017    0.368529    0.245635
     25          6           0       -4.264984    0.695930    1.234085
     26          6           0       -5.323297   -0.183849    1.576942
     27          1           0       -5.394909   -1.143830    1.086919
     28          6           0       -6.247962    0.158281    2.531061
     29          1           0       -7.041195   -0.535504    2.780149
     30          6           0       -6.175556    1.400147    3.194181
     31          1           0       -6.918068    1.658491    3.938079
     32          6           0       -5.153113    2.266285    2.906580
     33          1           0       -5.073905    3.214594    3.424605
     34          6           0       -4.169827    1.935725    1.941703
     35          6           0       -3.077559    2.801208    1.686600
     36          1           0       -3.020826    3.746612    2.211868
     37          6           0       -2.093046    2.440575    0.809565
     38          1           0       -1.238879    3.078021    0.622031
     39          6           0       -2.193316    1.217341    0.124342
     40          6           0        3.499061    2.121063   -0.571713
     41          6           0        2.428296    2.970073   -0.809827
     42          1           0        1.463478    2.772763   -0.364968
     43          6           0        2.606279    4.089327   -1.619130
     44          1           0        1.771369    4.755393   -1.803772
     45          6           0        3.855804    4.361215   -2.173988
     46          6           0        4.927874    3.503242   -1.920644
     47          1           0        5.895713    3.731785   -2.347055
     48          6           0        4.748913    2.385711   -1.121143
     49          1           0        5.576688    1.721286   -0.909383
     50          6           0        4.458869   -1.890115    0.694663
     51          6           0        4.558561   -3.177396    0.189202
     52          1           0        3.660364   -3.738857   -0.035232
     53          6           0        5.814798   -3.743951   -0.002918
     54          1           0        5.895215   -4.754167   -0.390236
     55          6           0        6.962730   -3.023283    0.324127
     56          6           0        6.847620   -1.733725    0.844789
     57          1           0        7.746567   -1.193995    1.111853
     58          6           0        5.595553   -1.168079    1.038578
     59          1           0        5.497912   -0.177978    1.459789
     60          6           0        0.585621    0.052196    2.239225
     61          1           0       -0.446604    0.404758    2.240385
     62          6           0        1.454117    1.117228    2.904422
     63          1           0        1.388642    2.073282    2.385800
     64          1           0        2.501156    0.816166    2.941029
     65          1           0        1.112942    1.263002    3.930650
     66          6           0        0.639349   -1.289417    2.971022
     67          1           0        0.003986   -2.026775    2.482336
     68          1           0        0.281359   -1.155682    3.994365
     69          1           0        1.658691   -1.674481    3.010735
     70          8           0        4.099182    5.439453   -2.970093
     71          1           0        3.316491    5.998365   -3.035537
     72          8           0        8.221904   -3.516519    0.164591
     73          1           0        8.194018   -4.425428   -0.156978
 ---------------------------------------------------------------------

 SCF Done:  E(RB3LYP) =  -2540.84519912     A.U. after   15 cycles

      1  P    Isotropic =   111.6543   Anisotropy =   194.1790

      2  P    Isotropic =   109.8408   Anisotropy =   232.0183

      3  O    Isotropic =   144.7291   Anisotropy =    63.9809

      4  O    Isotropic =   137.2565   Anisotropy =    59.3706

      5  O    Isotropic =   142.1157   Anisotropy =    97.9963

      6  O    Isotropic =   154.3403   Anisotropy =    63.9146

      7  N    Isotropic =    66.7990   Anisotropy =   105.1465

      8  C    Isotropic =    23.4262   Anisotropy =   114.7591

      9  C    Isotropic =    57.0237   Anisotropy =   149.3841

     10  H    Isotropic =    24.0437   Anisotropy =     8.1010

     11  C    Isotropic =    47.2188   Anisotropy =   159.1133

     12  H    Isotropic =    23.6250   Anisotropy =     7.2614

     13  C    Isotropic =    44.5064   Anisotropy =   211.9127

     14  C    Isotropic =    49.2038   Anisotropy =   160.6881

     15  H    Isotropic =    23.6506   Anisotropy =     7.3764

     16  C    Isotropic =    53.9595   Anisotropy =   177.1383

     17  H    Isotropic =    24.2150   Anisotropy =     4.6945

     18  C    Isotropic =    52.2202   Anisotropy =   180.0387

     19  H    Isotropic =    24.4133   Anisotropy =     7.8313

     20  C    Isotropic =    50.6461   Anisotropy =   179.7608

     21  H    Isotropic =    24.4022   Anisotropy =    14.8127

     22  C    Isotropic =    42.0158   Anisotropy =   204.6739

     23  C    Isotropic =    51.6925   Anisotropy =   136.7976

     24  C    Isotropic =    52.1604   Anisotropy =   141.1577

     25  C    Isotropic =    42.1750   Anisotropy =   206.4383

     26  C    Isotropic =    49.8668   Anisotropy =   179.7473

     27  H    Isotropic =    24.3708   Anisotropy =    14.2665

     28  C    Isotropic =    52.1652   Anisotropy =   181.3764

     29  H    Isotropic =    24.4041   Anisotropy =     7.6238

     30  C    Isotropic =    54.0202   Anisotropy =   178.7228

     31  H    Isotropic =    24.2236   Anisotropy =     4.6766

     32  C    Isotropic =    49.5044   Anisotropy =   161.5130

     33  H    Isotropic =    23.6550   Anisotropy =     7.5613

     34  C    Isotropic =    44.9915   Anisotropy =   212.8876

     35  C    Isotropic =    48.0741   Anisotropy =   159.2132

     36  H    Isotropic =    23.6422   Anisotropy =     7.5074

     37  C    Isotropic =    57.7063   Anisotropy =   148.8289

     38  H    Isotropic =    23.9093   Anisotropy =     6.6185

     39  C    Isotropic =    22.7128   Anisotropy =   130.0834

     40  C    Isotropic =    27.7589   Anisotropy =   110.6733

     41  C    Isotropic =    57.7154   Anisotropy =   154.7032

     42  H    Isotropic =    24.2968   Anisotropy =     6.9666

     43  C    Isotropic =    66.6858   Anisotropy =   127.9995

     44  H    Isotropic =    25.2142   Anisotropy =     7.3087

     45  C    Isotropic =    21.6873   Anisotropy =   142.0830

     46  C    Isotropic =    62.6192   Anisotropy =   149.0896

     47  H    Isotropic =    24.8723   Anisotropy =     5.6203

     48  C    Isotropic =    54.6302   Anisotropy =   155.3821

     49  H    Isotropic =    24.7421   Anisotropy =     8.0103

     50  C    Isotropic =    27.7703   Anisotropy =   108.0248

     51  C    Isotropic =    55.2453   Anisotropy =   152.2995

     52  H    Isotropic =    24.6134   Anisotropy =     8.0257

     53  C    Isotropic =    66.2010   Anisotropy =   128.6424

     54  H    Isotropic =    25.2468   Anisotropy =     5.7468

     55  C    Isotropic =    21.2001   Anisotropy =   143.2559

     56  C    Isotropic =    63.5296   Anisotropy =   147.8263

     57  H    Isotropic =    24.7516   Anisotropy =     6.1727

     58  C    Isotropic =    52.7274   Anisotropy =   161.8517

     59  H    Isotropic =    24.1921   Anisotropy =     9.2306

     60  C    Isotropic =   123.8133   Anisotropy =    40.7590

     61  H    Isotropic =    28.4723   Anisotropy =    11.5250

     62  C    Isotropic =   159.5825   Anisotropy =    30.0362

     63  H    Isotropic =    30.2118   Anisotropy =     5.1527

     64  H    Isotropic =    29.9726   Anisotropy =     6.4967

     65  H    Isotropic =    31.0648   Anisotropy =     8.9814

     66  C    Isotropic =   156.6787   Anisotropy =    38.5584

     67  H    Isotropic =    30.2816   Anisotropy =     5.2182

     68  H    Isotropic =    31.4063   Anisotropy =     8.9574

     69  H    Isotropic =    30.1866   Anisotropy =     6.5531

     70  O    Isotropic =   214.6741   Anisotropy =    67.9762

     71  H    Isotropic =    28.2605   Anisotropy =    12.3930

     72  O    Isotropic =   213.5736   Anisotropy =    67.6874

     73  H    Isotropic =    28.1867   Anisotropy =    13.0104

 The electronic state is 1-A.
 Alpha  occ. eigenvalues --  -77.12458 -77.12427 -19.16161 -19.15966 -19.15714
 Alpha  occ. eigenvalues --  -19.15560 -19.14972 -19.14686 -14.32977 -10.24538
 Alpha  occ. eigenvalues --  -10.24513 -10.23943 -10.23734 -10.23376 -10.23313
 Alpha  occ. eigenvalues --  -10.21726 -10.19946 -10.19871 -10.19753 -10.19651
 Alpha  occ. eigenvalues --  -10.19373 -10.19140 -10.18948 -10.18669 -10.18658
 Alpha  occ. eigenvalues --  -10.18374 -10.18371 -10.18249 -10.18180 -10.18176
 Alpha  occ. eigenvalues --  -10.18152 -10.18110 -10.18095 -10.18050 -10.17992
 Alpha  occ. eigenvalues --  -10.17972 -10.17953 -10.17895 -10.17812 -10.17796
 Alpha  occ. eigenvalues --  -10.17645 -10.17522 -10.16197 -10.15475  -6.59846
 Alpha  occ. eigenvalues --   -6.59838  -4.76114  -4.76055  -4.76024  -4.76011
 Alpha  occ. eigenvalues --   -4.75464  -4.75433  -1.07549  -1.06898  -1.06701
 Alpha  occ. eigenvalues --   -1.06392  -1.03634  -1.03104  -0.91109  -0.89248
 Alpha  occ. eigenvalues --   -0.88029  -0.85853  -0.85560  -0.83728  -0.82800
 Alpha  occ. eigenvalues --   -0.80646  -0.78069  -0.76998  -0.76016  -0.75873
 Alpha  occ. eigenvalues --   -0.75385  -0.74798  -0.74582  -0.74245  -0.73753
 Alpha  occ. eigenvalues --   -0.71743  -0.68961  -0.66962  -0.65520  -0.63905
 Alpha  occ. eigenvalues --   -0.63552  -0.63471  -0.63346  -0.62095  -0.61925
 Alpha  occ. eigenvalues --   -0.61555  -0.60875  -0.59174  -0.58597  -0.56919
 Alpha  occ. eigenvalues --   -0.55651  -0.55480  -0.54839  -0.53718  -0.53588
 Alpha  occ. eigenvalues --   -0.53000  -0.51837  -0.51119  -0.50371  -0.49958
 Alpha  occ. eigenvalues --   -0.49321  -0.48157  -0.47895  -0.47051  -0.46814
 Alpha  occ. eigenvalues --   -0.46109  -0.45941  -0.45332  -0.44924  -0.44751
 Alpha  occ. eigenvalues --   -0.44350  -0.44155  -0.43703  -0.43514  -0.43404
 Alpha  occ. eigenvalues --   -0.43353  -0.43330  -0.43052  -0.42739  -0.42515
 Alpha  occ. eigenvalues --   -0.42245  -0.41843  -0.41458  -0.41245  -0.40637
 Alpha  occ. eigenvalues --   -0.40283  -0.39971  -0.39789  -0.39687  -0.39311
 Alpha  occ. eigenvalues --   -0.38998  -0.38697  -0.38447  -0.36409  -0.36062
 Alpha  occ. eigenvalues --   -0.36013  -0.35888  -0.35637  -0.35446  -0.35284
 Alpha  occ. eigenvalues --   -0.34786  -0.34193  -0.33952  -0.33800  -0.33182
 Alpha  occ. eigenvalues --   -0.32812  -0.32686  -0.32354  -0.31973  -0.30261
 Alpha  occ. eigenvalues --   -0.29086  -0.27958  -0.26764  -0.26521  -0.26302
 Alpha  occ. eigenvalues --   -0.25316  -0.25107  -0.23467  -0.22979  -0.22319
 Alpha  occ. eigenvalues --   -0.21997  -0.20018
 Alpha virt. eigenvalues --   -0.06291  -0.05120  -0.02840  -0.02376  -0.02198
 Alpha virt. eigenvalues --   -0.02137   0.00001   0.00271   0.00353   0.01450
 Alpha virt. eigenvalues --    0.01700   0.02226   0.02262   0.02806   0.03305

 Mulliken charges:
               1
     1  P    0.452816
     2  P    0.449649
     3  O   -0.371702
     4  O   -0.345285
     5  O   -0.375436
     6  O   -0.364163
     7  N   -0.214990
     8  C    0.294114
     9  C   -0.239308
    10  H    0.113658
    11  C   -0.170134
    12  H    0.103125
    13  C    0.157953
    14  C   -0.159152
    15  H    0.101577
    16  C   -0.108183
    17  H    0.107833
    18  C   -0.102032
    19  H    0.109645
    20  C   -0.180190
    21  H    0.133581
    22  C   -0.106005
    23  C    0.132343
    24  C    0.161973
    25  C   -0.103440
    26  C   -0.177284
    27  H    0.136810
    28  C   -0.103049
    29  H    0.110808
    30  C   -0.107668
    31  H    0.108545
    32  C   -0.162161
    33  H    0.101611
    34  C    0.158576
    35  C   -0.176453
    36  H    0.103453
    37  C   -0.214426
    38  H    0.117786
    39  C    0.154485
    40  C    0.258561
    41  C   -0.177323
    42  H    0.149986
    43  C   -0.230295
    44  H    0.098712
    45  C    0.283272
    46  C   -0.176885
    47  H    0.113562
    48  C   -0.177142
    49  H    0.127193
    50  C    0.287215
    51  C   -0.220918
    52  H    0.117122
    53  C   -0.165001
    54  H    0.101149
    55  C    0.257471
    56  C   -0.157686
    57  H    0.115327
    58  C   -0.200553
    59  H    0.129919
    60  C    0.008183
    61  H    0.097310
    62  C   -0.329212
    63  H    0.107293
    64  H    0.124014
    65  H    0.109042
    66  C   -0.348694
    67  H    0.127397
    68  H    0.098718
    69  H    0.124621
    70  O   -0.400829
    71  H    0.308971
    72  O   -0.399259
    73  H    0.309477
 Sum of Mulliken charges =  -0.00000

 Dipole moment (field-independent basis, Debye):
    X=             -2.4944    Y=             -0.3255    Z=              1.0589  Tot=              2.7294
 Quadrupole moment (field-independent basis, Debye-Ang):
   XX=           -256.5727   YY=           -232.7482   ZZ=           -268.9258
   XY=            -14.0356   XZ=             -0.7647   YZ=              9.9480

 Summary of Natural Population Analysis:

                                       Natural Population
                Natural  -----------------------------------------------
    Atom  No    Charge         Core      Valence    Rydberg      Total
 -----------------------------------------------------------------------
      P    1    1.51556      9.99826     3.39832    0.08786    13.48444
      P    2    1.50228      9.99823     3.40607    0.09342    13.49772
      O    3   -0.77897      1.99978     6.75209    0.02710     8.77897
      O    4   -0.77083      1.99979     6.74554    0.02550     8.77083
      O    5   -0.78711      1.99975     6.76163    0.02573     8.78711
      O    6   -0.78254      1.99976     6.75652    0.02626     8.78254
      N    7   -1.08356      1.99957     6.04852    0.03547     8.08356
      C    8    0.28925      1.99862     3.68763    0.02450     5.71075
      C    9   -0.23354      1.99904     4.21491    0.01958     6.23354
      H   10    0.22605      0.00000     0.77270    0.00126     0.77395
      C   11   -0.15645      1.99913     4.13966    0.01766     6.15645
      H   12    0.20954      0.00000     0.78914    0.00131     0.79046
      C   13   -0.06872      1.99908     4.04931    0.02033     6.06872
      C   14   -0.17191      1.99912     4.15486    0.01793     6.17191
      H   15    0.20662      0.00000     0.79201    0.00137     0.79338
      C   16   -0.21052      1.99918     4.19211    0.01922     6.21052
      H   17    0.20965      0.00000     0.78919    0.00116     0.79035
      C   18   -0.19624      1.99919     4.17869    0.01836     6.19624
      H   19    0.20953      0.00000     0.78928    0.00119     0.79047
      C   20   -0.18828      1.99911     4.17084    0.01834     6.18828
      H   21    0.21781      0.00000     0.78070    0.00149     0.78219
      C   22   -0.03069      1.99902     4.01251    0.01917     6.03069
      C   23   -0.07141      1.99883     4.05074    0.02183     6.07141
      C   24   -0.07355      1.99883     4.05244    0.02228     6.07355
      C   25   -0.02950      1.99901     4.01129    0.01920     6.02950
      C   26   -0.18795      1.99911     4.17068    0.01816     6.18795
      H   27    0.21939      0.00000     0.77912    0.00149     0.78061
      C   28   -0.19544      1.99919     4.17795    0.01830     6.19544
      H   29    0.21005      0.00000     0.78877    0.00119     0.78995
      C   30   -0.20998      1.99918     4.19170    0.01910     6.20998
      H   31    0.20991      0.00000     0.78894    0.00115     0.79009
      C   32   -0.17323      1.99913     4.15575    0.01835     6.17323
      H   33    0.20641      0.00000     0.79219    0.00140     0.79359
      C   34   -0.07155      1.99907     4.05354    0.01893     6.07155
      C   35   -0.15780      1.99913     4.14130    0.01738     6.15780
      H   36    0.20924      0.00000     0.78943    0.00133     0.79076
      C   37   -0.24127      1.99903     4.22278    0.01945     6.24127
      H   38    0.21945      0.00000     0.77907    0.00148     0.78055
      C   39    0.28372      1.99860     3.69424    0.02344     5.71628
      C   40    0.24819      1.99866     3.72944    0.02371     5.75181
      C   41   -0.23585      1.99902     4.21644    0.02039     6.23585
      H   42    0.21797      0.00000     0.77968    0.00235     0.78203
      C   43   -0.27144      1.99907     4.25287    0.01950     6.27144
      H   44    0.20407      0.00000     0.79434    0.00159     0.79593
      C   45    0.27603      1.99874     3.70479    0.02044     5.72397
      C   46   -0.24107      1.99907     4.22209    0.01991     6.24107
      H   47    0.22131      0.00000     0.77734    0.00135     0.77869
      C   48   -0.21840      1.99905     4.20008    0.01927     6.21840
      H   49    0.22254      0.00000     0.77602    0.00143     0.77746
      C   50    0.23991      1.99865     3.73756    0.02389     5.76009
      C   51   -0.21800      1.99904     4.19919    0.01977     6.21800
      H   52    0.22262      0.00000     0.77597    0.00141     0.77738
      C   53   -0.27486      1.99907     4.25639    0.01940     6.27486
      H   54    0.20469      0.00000     0.79379    0.00151     0.79531
      C   55    0.27825      1.99874     3.70255    0.02046     5.72175
      C   56   -0.24589      1.99908     4.22672    0.02009     6.24589
      H   57    0.22079      0.00000     0.77778    0.00143     0.77921
      C   58   -0.22326      1.99902     4.20451    0.01973     6.22326
      H   59    0.22743      0.00000     0.77038    0.00219     0.77257
      C   60   -0.04010      1.99938     4.01725    0.02347     6.04010
      H   61    0.19608      0.00000     0.80080    0.00312     0.80392
      C   62   -0.59832      1.99942     4.58638    0.01251     6.59832
      H   63    0.20757      0.00000     0.79133    0.00110     0.79243
      H   64    0.21224      0.00000     0.78616    0.00160     0.78776
      H   65    0.20706      0.00000     0.79195    0.00099     0.79294
      C   66   -0.60237      1.99941     4.59070    0.01226     6.60237
      H   67    0.21929      0.00000     0.77973    0.00098     0.78071
      H   68    0.20171      0.00000     0.79731    0.00098     0.79829
      H   69    0.21556      0.00000     0.78326    0.00118     0.78444
      O   70   -0.64639      1.99978     6.62414    0.02247     8.64639
      H   71    0.47238      0.00000     0.52548    0.00215     0.52762
      O   72   -0.64582      1.99978     6.62352    0.02252     8.64582
      H   73    0.47266      0.00000     0.52521    0.00214     0.52734
 =======================================================================
   * Total *   -0.00000    103.96075   218.94330    1.09594   324.00000

 1\1\GINC-G4NODEC5\SP\RB3LYP\def2TZVP\C35H29N1O6P2\ROOT\06-Nov-2024\0\\
 # nmr=giao b3lyp/def2TZVP pop=nbo scfcyc=200\\Ligand 36 SPE NoRh\\0,1\
 P,0,-0.566,-0.04,-0.277\P,0,1.923,-0.71,-0.686\O,0,-1.616,0.369,-1.482
 \O,0,-1.59,-0.648,0.858\O,0,2.791,-1.923,0.01\O,0,2.597,-0.752,-2.176\
 N,0,0.338,-1.276,-1.028\C,0,-2.7,1.194,-1.138\C,0,-2.647,2.529,-1.576\
 H,0,-1.805,2.849,-2.176\C,0,-3.668,3.379,-1.251\H,0,-3.654,4.406,-1.59
 6\C,0,-4.746,2.939,-0.444\C,0,-5.768,3.833,-0.039\H,0,-5.729,4.859,-0.
 387\C,0,-6.779,3.418,0.788\H,0,-7.553,4.111,1.095\C,0,-6.804,2.087,1.2

 Normal termination of Gaussian 16 at Wed Nov  6 17:11:13 2024.
