 Gaussian 16, Revision B.01,
 Gaussian 16:  ES64L-G16RevB.01 20-Dec-2017

 --------------------------------------------
 # nmr=giao b3lyp/def2TZVP pop=nbo scfcyc=200
 --------------------------------------------

 ------------------
 Ligand 38 SPE NoRh
 ------------------
 Symbolic Z-matrix:
 Charge =  0 Multiplicity = 1

                         Standard orientation:
 ---------------------------------------------------------------------
 Center     Atomic      Atomic             Coordinates (Angstroms)
 Number     Number       Type             X           Y           Z
 ---------------------------------------------------------------------
      1         15           0       -1.348031   -1.122280   -0.000642
      2         15           0        1.342882   -1.121320    0.089017
      3          8           0       -2.295723   -0.909264   -1.325904
      4          8           0       -2.308266   -0.598169    1.238944
      5          8           0        2.323593   -0.906581    1.388793
      6          8           0        2.270126   -0.600637   -1.175634
      7          6           0       -3.093632    0.245636   -1.435892
      8          6           0       -2.742645    1.155012   -2.447202
      9          1           0       -1.906999    0.924154   -3.095974
     10          6           0       -3.477513    2.299469   -2.599020
     11          1           0       -3.229748    3.005241   -3.382270
     12          6           0       -4.551384    2.589716   -1.724098
     13          6           0       -5.271298    3.806666   -1.829664
     14          1           0       -5.002529    4.500386   -2.617766
     15          6           0       -6.274176    4.109988   -0.947810
     16          1           0       -6.813106    5.045125   -1.034220
     17          6           0       -6.595186    3.206855    0.086465
     18          1           0       -7.370894    3.462367    0.797040
     19          6           0       -5.931287    2.012062    0.206743
     20          1           0       -6.188072    1.338510    1.010645
     21          6           0       -4.902381    1.652458   -0.701493
     22          6           0       -4.179460    0.414436   -0.602702
     23          6           0       -4.549414   -0.645270    0.378174
     24          6           0       -5.852434   -1.250013    0.406270
     25          6           0       -6.834457   -0.995463   -0.584445
     26          1           0       -6.604662   -0.323017   -1.398362
     27          6           0       -8.066502   -1.596931   -0.530312
     28          1           0       -8.797742   -1.392073   -1.302242
     29          6           0       -8.391526   -2.482918    0.517779
     30          1           0       -9.371553   -2.941590    0.551653
     31          6           0       -7.459475   -2.768752    1.481773
     32          1           0       -7.692257   -3.461345    2.281900
     33          6           0       -6.170448   -2.181092    1.445843
     34          6           0       -5.188396   -2.513933    2.409384
     35          1           0       -5.446177   -3.199537    3.208411
     36          6           0       -3.924321   -1.996777    2.326171
     37          1           0       -3.154027   -2.250212    3.043649
     38          6           0       -3.620314   -1.091612    1.294858
     39          6           0        3.129490    0.245392    1.474435
     40          6           0        2.809468    1.159189    2.492528
     41          1           0        1.989808    0.934252    3.163129
     42          6           0        3.552323    2.300626    2.622220
     43          1           0        3.328532    3.009976    3.409554
     44          6           0        4.605213    2.584114    1.719219
     45          6           0        5.332111    3.797071    1.803138
     46          1           0        5.088316    4.494474    2.595578
     47          6           0        6.314007    4.094493    0.893919
     48          1           0        6.858924    5.026284    0.963625
     49          6           0        6.603051    3.187463   -0.146278
     50          1           0        7.361771    3.436764   -0.877200
     51          6           0        5.931167    1.995347   -0.245363
     52          1           0        6.163979    1.318763   -1.055036
     53          6           0        4.925247    1.642191    0.689422
     54          6           0        4.194340    0.407319    0.613731
     55          6           0        4.534334   -0.656163   -0.373761
     56          6           0        5.832405   -1.266838   -0.435032
     57          6           0        6.842448   -1.013648    0.528349
     58          1           0        6.636628   -0.338979    1.346068
     59          6           0        8.069544   -1.621588    0.441977
     60          1           0        8.821796   -1.417627    1.194610
     61          6           0        8.362601   -2.510767   -0.612405
     62          1           0        9.339666   -2.973402   -0.670557
     63          6           0        7.404533   -2.794680   -1.549409
     64          1           0        7.613341   -3.490221   -2.354905
     65          6           0        6.119455   -2.201930   -1.480935
     66          6           0        5.110387   -2.533841   -2.417483
     67          1           0        5.343193   -3.221361   -3.221039
     68          6           0        3.851263   -2.010591   -2.301247
     69          1           0        3.060954   -2.262948   -2.996404
     70          6           0        3.579223   -1.100603   -1.265064
     71          6           0       -0.003108    0.157419    0.058183
     72          1           0       -0.049011    0.768982    0.960732
     73          1           0        0.039753    0.801167   -0.821621
 ---------------------------------------------------------------------

 SCF Done:  E(RB3LYP) =  -2562.44580484     A.U. after   15 cycles

      1  P    Isotropic =    26.7825   Anisotropy =   277.1739

      2  P    Isotropic =    27.9365   Anisotropy =   276.4311

      3  O    Isotropic =   162.2513   Anisotropy =    67.2212

      4  O    Isotropic =   152.8695   Anisotropy =    98.8133

      5  O    Isotropic =   161.7294   Anisotropy =    67.3731

      6  O    Isotropic =   152.7634   Anisotropy =    97.5587

      7  C    Isotropic =    22.7243   Anisotropy =   130.1839

      8  C    Isotropic =    57.3859   Anisotropy =   149.6190

      9  H    Isotropic =    24.2063   Anisotropy =     6.6186

     10  C    Isotropic =    47.7417   Anisotropy =   160.7639

     11  H    Isotropic =    23.7541   Anisotropy =     7.3002

     12  C    Isotropic =    44.7730   Anisotropy =   213.4352

     13  C    Isotropic =    49.4175   Anisotropy =   161.5472

     14  H    Isotropic =    23.7415   Anisotropy =     7.4412

     15  C    Isotropic =    54.3209   Anisotropy =   178.6727

     16  H    Isotropic =    24.2630   Anisotropy =     4.6329

     17  C    Isotropic =    52.5361   Anisotropy =   181.4759

     18  H    Isotropic =    24.4404   Anisotropy =     7.5767

     19  C    Isotropic =    49.8882   Anisotropy =   179.6615

     20  H    Isotropic =    24.4470   Anisotropy =    14.3476

     21  C    Isotropic =    42.1482   Anisotropy =   206.3717

     22  C    Isotropic =    50.9521   Anisotropy =   139.9735

     23  C    Isotropic =    50.8254   Anisotropy =   135.6624

     24  C    Isotropic =    41.9395   Anisotropy =   205.4301

     25  C    Isotropic =    50.7316   Anisotropy =   179.8345

     26  H    Isotropic =    24.4423   Anisotropy =    14.6998

     27  C    Isotropic =    52.1256   Anisotropy =   180.3064

     28  H    Isotropic =    24.4075   Anisotropy =     7.7503

     29  C    Isotropic =    53.7350   Anisotropy =   177.4444

     30  H    Isotropic =    24.2042   Anisotropy =     4.6698

     31  C    Isotropic =    49.1118   Anisotropy =   161.5438

     32  H    Isotropic =    23.6442   Anisotropy =     7.3127

     33  C    Isotropic =    44.5278   Anisotropy =   212.7053

     34  C    Isotropic =    47.2038   Anisotropy =   160.0783

     35  H    Isotropic =    23.6017   Anisotropy =     7.1129

     36  C    Isotropic =    57.3112   Anisotropy =   150.5800

     37  H    Isotropic =    24.0371   Anisotropy =     7.5347

     38  C    Isotropic =    22.5309   Anisotropy =   119.4426

     39  C    Isotropic =    22.6768   Anisotropy =   130.1930

     40  C    Isotropic =    57.5543   Anisotropy =   149.8924

     41  H    Isotropic =    24.2141   Anisotropy =     6.6531

     42  C    Isotropic =    47.6320   Anisotropy =   160.6597

     43  H    Isotropic =    23.7469   Anisotropy =     7.2502

     44  C    Isotropic =    44.7225   Anisotropy =   213.5736

     45  C    Isotropic =    49.3391   Anisotropy =   161.8304

     46  H    Isotropic =    23.7308   Anisotropy =     7.4244

     47  C    Isotropic =    54.0670   Anisotropy =   178.9116

     48  H    Isotropic =    24.2625   Anisotropy =     4.6441

     49  C    Isotropic =    52.3998   Anisotropy =   181.2306

     50  H    Isotropic =    24.4230   Anisotropy =     7.6075

     51  C    Isotropic =    50.2111   Anisotropy =   179.9538

     52  H    Isotropic =    24.4278   Anisotropy =    14.3661

     53  C    Isotropic =    42.1213   Anisotropy =   206.2819

     54  C    Isotropic =    51.0267   Anisotropy =   139.9131

     55  C    Isotropic =    50.7017   Anisotropy =   135.8368

     56  C    Isotropic =    41.8853   Anisotropy =   205.5433

     57  C    Isotropic =    50.6743   Anisotropy =   179.8891

     58  H    Isotropic =    24.4300   Anisotropy =    14.7088

     59  C    Isotropic =    52.1082   Anisotropy =   180.2797

     60  H    Isotropic =    24.3982   Anisotropy =     7.7510

     61  C    Isotropic =    53.9245   Anisotropy =   177.1096

     62  H    Isotropic =    24.2076   Anisotropy =     4.6571

     63  C    Isotropic =    49.2627   Anisotropy =   161.2242

     64  H    Isotropic =    23.6367   Anisotropy =     7.3044

     65  C    Isotropic =    44.4190   Anisotropy =   212.5664

     66  C    Isotropic =    47.1478   Anisotropy =   160.2403

     67  H    Isotropic =    23.6067   Anisotropy =     7.1466

     68  C    Isotropic =    57.2916   Anisotropy =   150.8159

     69  H    Isotropic =    24.0369   Anisotropy =     7.5561

     70  C    Isotropic =    22.3672   Anisotropy =   119.3724

     71  C    Isotropic =   139.1183   Anisotropy =    20.6262

     72  H    Isotropic =    29.6563   Anisotropy =     8.8186

     73  H    Isotropic =    29.6173   Anisotropy =     8.9552

 The electronic state is 1-A.
 Alpha  occ. eigenvalues --  -77.11601 -77.11581 -19.16152 -19.16149 -19.15750
 Alpha  occ. eigenvalues --  -19.15719 -10.24525 -10.24500 -10.24455 -10.24438
 Alpha  occ. eigenvalues --  -10.19926 -10.19915 -10.19789 -10.19777 -10.19752
 Alpha  occ. eigenvalues --  -10.19731 -10.19608 -10.19592 -10.19289 -10.19277
 Alpha  occ. eigenvalues --  -10.19102 -10.19079 -10.18834 -10.18824 -10.18616
 Alpha  occ. eigenvalues --  -10.18605 -10.18591 -10.18581 -10.18347 -10.18334
 Alpha  occ. eigenvalues --  -10.18279 -10.18269 -10.18118 -10.18105 -10.18098
 Alpha  occ. eigenvalues --  -10.18097 -10.18091 -10.18019 -10.18007 -10.17944
 Alpha  occ. eigenvalues --  -10.17932 -10.17905 -10.17898 -10.17840 -10.17839
 Alpha  occ. eigenvalues --  -10.17759 -10.17748  -6.59287  -6.59272  -4.75630
 Alpha  occ. eigenvalues --   -4.75615  -4.75408  -4.75392  -4.74797  -4.74781
 Alpha  occ. eigenvalues --   -1.07589  -1.07495  -1.03903  -1.03890  -0.89307
 Alpha  occ. eigenvalues --   -0.89278  -0.87967  -0.87958  -0.83771  -0.83672
 Alpha  occ. eigenvalues --   -0.82751  -0.82737  -0.80576  -0.80559  -0.77013
 Alpha  occ. eigenvalues --   -0.76940  -0.76863  -0.75334  -0.74802  -0.74689
 Alpha  occ. eigenvalues --   -0.74420  -0.74244  -0.73552  -0.71692  -0.71653
 Alpha  occ. eigenvalues --   -0.66905  -0.65700  -0.63895  -0.63442  -0.63387
 Alpha  occ. eigenvalues --   -0.63189  -0.62118  -0.61996  -0.61824  -0.61783
 Alpha  occ. eigenvalues --   -0.59109  -0.58562  -0.58526  -0.58200  -0.54986
 Alpha  occ. eigenvalues --   -0.54569  -0.53650  -0.53638  -0.52926  -0.52910
 Alpha  occ. eigenvalues --   -0.51753  -0.51703  -0.50296  -0.50281  -0.49422
 Alpha  occ. eigenvalues --   -0.48634  -0.47520  -0.47190  -0.47131  -0.46846
 Alpha  occ. eigenvalues --   -0.46291  -0.45889  -0.45823  -0.45567  -0.44850
 Alpha  occ. eigenvalues --   -0.44750  -0.44523  -0.44333  -0.43474  -0.43416
 Alpha  occ. eigenvalues --   -0.43228  -0.43133  -0.43008  -0.42741  -0.42660
 Alpha  occ. eigenvalues --   -0.42628  -0.42370  -0.41691  -0.40218  -0.40198
 Alpha  occ. eigenvalues --   -0.40106  -0.39948  -0.39747  -0.39251  -0.39157
 Alpha  occ. eigenvalues --   -0.38964  -0.37032  -0.36346  -0.36291  -0.36028
 Alpha  occ. eigenvalues --   -0.35890  -0.35387  -0.35362  -0.35316  -0.35136
 Alpha  occ. eigenvalues --   -0.33882  -0.33802  -0.33620  -0.33046  -0.32670
 Alpha  occ. eigenvalues --   -0.32638  -0.32517  -0.32116  -0.30172  -0.30139
 Alpha  occ. eigenvalues --   -0.29035  -0.28991  -0.25633  -0.25510  -0.25355
 Alpha  occ. eigenvalues --   -0.25175  -0.24425  -0.23257  -0.23057  -0.22320
 Alpha  occ. eigenvalues --   -0.21912  -0.20366
 Alpha virt. eigenvalues --   -0.06381  -0.06203  -0.05078  -0.05065  -0.03510
 Alpha virt. eigenvalues --   -0.02758  -0.02676  -0.02216  -0.01470   0.00426
 Alpha virt. eigenvalues --    0.00564   0.01686   0.01792   0.02978   0.04207

 Mulliken charges:
               1
     1  P    0.440661
     2  P    0.439752
     3  O   -0.345125
     4  O   -0.369156
     5  O   -0.344868
     6  O   -0.368517
     7  C    0.226606
     8  C   -0.235340
     9  H    0.117884
    10  C   -0.161190
    11  H    0.104445
    12  C    0.147895
    13  C   -0.161406
    14  H    0.101694
    15  C   -0.107878
    16  H    0.108304
    17  C   -0.102742
    18  H    0.110560
    19  C   -0.176719
    20  H    0.136616
    21  C   -0.093162
    22  C    0.116867
    23  C    0.123376
    24  C   -0.092042
    25  C   -0.176161
    26  H    0.133939
    27  C   -0.102453
    28  H    0.109834
    29  C   -0.107748
    30  H    0.107973
    31  C   -0.161165
    32  H    0.101631
    33  C    0.150110
    34  C   -0.161815
    35  H    0.103938
    36  C   -0.248268
    37  H    0.111169
    38  C    0.284733
    39  C    0.225797
    40  C   -0.234057
    41  H    0.116969
    42  C   -0.161648
    43  H    0.104406
    44  C    0.147788
    45  C   -0.161125
    46  H    0.101739
    47  C   -0.108283
    48  H    0.108490
    49  C   -0.102747
    50  H    0.110587
    51  C   -0.176493
    52  H    0.136422
    53  C   -0.093529
    54  C    0.116964
    55  C    0.124667
    56  C   -0.091877
    57  C   -0.177299
    58  H    0.134078
    59  C   -0.101582
    60  H    0.109802
    61  C   -0.108239
    62  H    0.107977
    63  C   -0.160375
    64  H    0.101547
    65  C    0.150157
    66  C   -0.162326
    67  H    0.104156
    68  C   -0.247928
    69  H    0.111417
    70  C    0.283952
    71  C   -0.349635
    72  H    0.138886
    73  H    0.139110
 Sum of Mulliken charges =  -0.00000

 Dipole moment (field-independent basis, Debye):
    X=              0.0267    Y=              2.7219    Z=             -0.0294  Tot=              2.7222
 Quadrupole moment (field-independent basis, Debye-Ang):
   XX=           -246.6428   YY=           -273.1024   ZZ=           -268.3915
   XY=              0.2105   XZ=             -6.3967   YZ=              0.1737

 Summary of Natural Population Analysis:

                                       Natural Population
                Natural  -----------------------------------------------
    Atom  No    Charge         Core      Valence    Rydberg      Total
 -----------------------------------------------------------------------
      P    1    1.36091      9.99851     3.56249    0.07809    13.63909
      P    2    1.36095      9.99851     3.56229    0.07825    13.63905
      O    3   -0.75438      1.99980     6.72905    0.02553     8.75438
      O    4   -0.76737      1.99979     6.74130    0.02628     8.76737
      O    5   -0.75449      1.99980     6.72918    0.02550     8.75449
      O    6   -0.76759      1.99979     6.74145    0.02635     8.76759
      C    7    0.28004      1.99861     3.69818    0.02317     5.71996
      C    8   -0.23966      1.99905     4.22101    0.01960     6.23966
      H    9    0.22434      0.00000     0.77443    0.00123     0.77566
      C   10   -0.15748      1.99914     4.14022    0.01812     6.15748
      H   11    0.20953      0.00000     0.78914    0.00132     0.79047
      C   12   -0.07003      1.99907     4.05200    0.01895     6.07003
      C   13   -0.17253      1.99913     4.15504    0.01837     6.17253
      H   14    0.20649      0.00000     0.79212    0.00140     0.79351
      C   15   -0.21005      1.99918     4.19174    0.01912     6.21005
      H   16    0.20983      0.00000     0.78903    0.00115     0.79017
      C   17   -0.19544      1.99919     4.17796    0.01829     6.19544
      H   18    0.20983      0.00000     0.78898    0.00119     0.79017
      C   19   -0.18762      1.99911     4.17038    0.01813     6.18762
      H   20    0.21920      0.00000     0.77931    0.00149     0.78080
      C   21   -0.03006      1.99901     4.01174    0.01931     6.03006
      C   22   -0.06991      1.99883     4.04861    0.02246     6.06991
      C   23   -0.06985      1.99884     4.04906    0.02195     6.06985
      C   24   -0.03113      1.99902     4.01292    0.01920     6.03113
      C   25   -0.18853      1.99911     4.17107    0.01835     6.18853
      H   26    0.21802      0.00000     0.78049    0.00149     0.78198
      C   27   -0.19590      1.99919     4.17836    0.01835     6.19590
      H   28    0.20955      0.00000     0.78926    0.00119     0.79045
      C   29   -0.21037      1.99918     4.19201    0.01918     6.21037
      H   30    0.20961      0.00000     0.78923    0.00116     0.79039
      C   31   -0.17178      1.99913     4.15474    0.01791     6.17178
      H   32    0.20655      0.00000     0.79209    0.00137     0.79345
      C   33   -0.06884      1.99908     4.04941    0.02035     6.06884
      C   34   -0.15634      1.99913     4.13955    0.01766     6.15634
      H   35    0.20979      0.00000     0.78889    0.00131     0.79021
      C   36   -0.23361      1.99904     4.21501    0.01955     6.23361
      H   37    0.22633      0.00000     0.77240    0.00126     0.77367
      C   38    0.28896      1.99862     3.68849    0.02394     5.71104
      C   39    0.28028      1.99861     3.69797    0.02314     5.71972
      C   40   -0.23943      1.99905     4.22079    0.01959     6.23943
      H   41    0.22408      0.00000     0.77469    0.00123     0.77592
      C   42   -0.15742      1.99914     4.14016    0.01812     6.15742
      H   43    0.20953      0.00000     0.78914    0.00133     0.79047
      C   44   -0.06989      1.99907     4.05187    0.01895     6.06989
      C   45   -0.17267      1.99913     4.15519    0.01835     6.17267
      H   46    0.20648      0.00000     0.79212    0.00140     0.79352
      C   47   -0.20971      1.99918     4.19145    0.01908     6.20971
      H   48    0.20975      0.00000     0.78910    0.00115     0.79025
      C   49   -0.19545      1.99919     4.17797    0.01829     6.19545
      H   50    0.20985      0.00000     0.78896    0.00119     0.79015
      C   51   -0.18786      1.99911     4.17060    0.01816     6.18786
      H   52    0.21923      0.00000     0.77927    0.00149     0.78077
      C   53   -0.03002      1.99901     4.01169    0.01931     6.03002
      C   54   -0.07022      1.99883     4.04893    0.02245     6.07022
      C   55   -0.06978      1.99884     4.04898    0.02196     6.06978
      C   56   -0.03118      1.99902     4.01297    0.01919     6.03118
      C   57   -0.18846      1.99911     4.17102    0.01833     6.18846
      H   58    0.21798      0.00000     0.78053    0.00149     0.78202
      C   59   -0.19580      1.99919     4.17825    0.01836     6.19580
      H   60    0.20957      0.00000     0.78924    0.00119     0.79043
      C   61   -0.21050      1.99918     4.19210    0.01922     6.21050
      H   62    0.20970      0.00000     0.78914    0.00116     0.79030
      C   63   -0.17189      1.99912     4.15482    0.01795     6.17189
      H   64    0.20663      0.00000     0.79200    0.00137     0.79337
      C   65   -0.06840      1.99908     4.04898    0.02034     6.06840
      C   66   -0.15633      1.99914     4.13956    0.01763     6.15633
      H   67    0.20982      0.00000     0.78887    0.00131     0.79018
      C   68   -0.23364      1.99905     4.21506    0.01954     6.23364
      H   69    0.22638      0.00000     0.77235    0.00127     0.77362
      C   70    0.28894      1.99862     3.68848    0.02396     5.71106
      C   71   -1.16609      1.99948     5.13652    0.03009     7.16609
      H   72    0.27494      0.00000     0.72315    0.00191     0.72506
      H   73    0.27455      0.00000     0.72349    0.00196     0.72545
 =======================================================================
   * Total *   -0.00000    109.95698   222.93406    1.10896   334.00000

 Normal termination of Gaussian 16 at Thu Nov  7 15:44:13 2024.
