 Gaussian 16, Revision B.01,
 Gaussian 16:  ES64L-G16RevB.01 20-Dec-2017

 --------------------------------------------
 # nmr=giao b3lyp/def2TZVP pop=nbo scfcyc=200
 --------------------------------------------

 ------------------
 Ligand 40 SPE NoRh
 ------------------
 Symbolic Z-matrix:
 Charge =  0 Multiplicity = 1

                         Standard orientation:
 ---------------------------------------------------------------------
 Center     Atomic      Atomic             Coordinates (Angstroms)
 Number     Number       Type             X           Y           Z
 ---------------------------------------------------------------------
      1         15           0       -1.311037    1.346083    0.039274
      2         15           0        1.310883    1.346130   -0.040422
      3          8           0       -2.267691    1.101114    1.343268
      4          8           0       -2.252291    0.784020   -1.190738
      5          8           0        2.268548    1.101100   -1.343399
      6          8           0        2.252159    0.783194    1.189631
      7          7           0       -0.000055    0.230107   -0.000033
      8          6           0       -3.146550    0.008101    1.461212
      9          6           0       -2.874457   -0.889854    2.506967
     10          1           0       -2.026798   -0.700814    3.151088
     11          6           0       -3.687256   -1.973863    2.682843
     12          1           0       -3.499411   -2.669830    3.491676
     13          6           0       -4.765162   -2.221917    1.797960
     14          6           0       -5.563007   -3.385927    1.927824
     15          1           0       -5.356155   -4.067893    2.743637
     16          6           0       -6.565922   -3.654980    1.033865
     17          1           0       -7.166797   -4.549987    1.138517
     18          6           0       -6.805041   -2.771024   -0.037922
     19          1           0       -7.579777   -3.000066   -0.758117
     20          6           0       -6.062209   -1.625015   -0.180729
     21          1           0       -6.259078   -0.966050   -1.013552
     22          6           0       -5.033269   -1.298961    0.739201
     23          6           0       -4.231415   -0.111951    0.618332
     24          6           0       -4.521478    0.938006   -0.395409
     25          6           0       -5.792573    1.604979   -0.475127
     26          6           0       -6.809570    1.429996    0.497926
     27          1           0       -6.631693    0.773030    1.337768
     28          6           0       -8.008688    2.087969    0.395135
     29          1           0       -8.766905    1.942983    1.154920
     30          6           0       -8.265819    2.953924   -0.687634
     31          1           0       -9.220904    3.457903   -0.760670
     32          6           0       -7.297796    3.165907   -1.634638
     33          1           0       -7.477659    3.843873   -2.461478
     34          6           0       -6.040694    2.518934   -1.547906
     35          6           0       -5.017669    2.779919   -2.491969
     36          1           0       -5.221530    3.452884   -3.316785
     37          6           0       -3.780518    2.210947   -2.356220
     38          1           0       -2.979240    2.411936   -3.055052
     39          6           0       -3.548408    1.319991   -1.293425
     40          6           0        3.147448    0.007113   -1.461262
     41          6           0        2.875389   -0.889932   -2.506949
     42          1           0        2.027723   -0.700972   -3.151085
     43          6           0        3.688230   -1.973923   -2.682745
     44          1           0        3.499411   -2.670956   -3.491525
     45          6           0        4.765145   -2.222869   -1.797843
     46          6           0        5.564034   -3.385859   -1.927621
     47          1           0        5.357208   -4.067893   -2.743383
     48          6           0        6.566960   -3.654806   -1.032642
     49          1           0        7.166870   -4.549799   -1.137226
     50          6           0        6.805045   -2.769762    0.038081
     51          1           0        7.579791   -2.999720    0.759293
     52          6           0        6.062169   -1.624771    0.180802
     53          1           0        6.259013   -0.964736    1.013576
     54          6           0        5.033217   -1.298825   -0.738152
     55          6           0        4.231318   -0.111835   -0.618372
     56          6           0        4.521340    0.938208    0.395291
     57          6           0        5.792410    1.605235    0.474959
     58          6           0        6.809413    1.430218   -0.498081
     59          1           0        6.631562    0.773183   -1.337874
     60          6           0        8.008508    2.088245   -0.394338
     61          1           0        8.766730    1.943231   -1.154113
     62          6           0        8.264605    2.954290    0.688367
     63          1           0        9.220670    3.458311    0.760365
     64          6           0        7.297575    3.166307    1.635354
     65          1           0        7.476411    3.844341    2.461145
     66          6           0        6.039496    2.519280    1.547672
     67          6           0        5.016463    2.780295    2.492715
     68          1           0        5.220297    3.453330    3.316480
     69          6           0        3.780332    2.211267    2.356007
     70          1           0        2.978047    2.412277    3.054825
     71          6           0        3.548256    1.320223    1.293278
     72          6           0       -0.000028   -1.211893    0.000021
     73          6           0       -0.564117   -1.904944   -1.071374
     74          6           0        0.564087   -1.903842    1.070467
     75          6           0       -0.568080   -3.293943   -1.061318
     76          1           0       -0.999974   -1.356983   -1.894946
     77          6           0        0.568104   -3.293843    1.061515
     78          1           0        0.999923   -1.356803    1.893999
     79          6           0        0.000025   -3.990893    0.000125
     80          1           0       -1.012921   -3.831983   -1.888841
     81          1           0        1.012965   -3.831803    1.889078
     82          1           0        0.000046   -5.073893    0.000165
 ---------------------------------------------------------------------

 SCF Done:  E(RB3LYP) =  -2809.66683752     A.U. after   15 cycles

      1  P    Isotropic =   120.1611   Anisotropy =   191.9680

      2  P    Isotropic =   120.2791   Anisotropy =   191.8831

      3  O    Isotropic =   142.3688   Anisotropy =    56.3882

      4  O    Isotropic =   139.4821   Anisotropy =    66.0224

      5  O    Isotropic =   142.2417   Anisotropy =    56.2661

      6  O    Isotropic =   139.2797   Anisotropy =    65.7700

      7  N    Isotropic =    64.7913   Anisotropy =    95.9055

      8  C    Isotropic =    23.1799   Anisotropy =   129.3066

      9  C    Isotropic =    57.0753   Anisotropy =   155.0461

     10  H    Isotropic =    24.4921   Anisotropy =     6.4034

     11  C    Isotropic =    48.3154   Anisotropy =   162.0800

     12  H    Isotropic =    24.2264   Anisotropy =     7.3838

     13  C    Isotropic =    45.4182   Anisotropy =   214.4695

     14  C    Isotropic =    49.7489   Anisotropy =   161.9464

     15  H    Isotropic =    23.9875   Anisotropy =     7.6816

     16  C    Isotropic =    54.4850   Anisotropy =   178.1701

     17  H    Isotropic =    24.3809   Anisotropy =     4.4529

     18  C    Isotropic =    52.6633   Anisotropy =   180.5858

     19  H    Isotropic =    24.5279   Anisotropy =     7.5009

     20  C    Isotropic =    50.4104   Anisotropy =   180.3377

     21  H    Isotropic =    24.5314   Anisotropy =    14.1353

     22  C    Isotropic =    42.9106   Anisotropy =   206.8945

     23  C    Isotropic =    53.0665   Anisotropy =   141.2394

     24  C    Isotropic =    51.2574   Anisotropy =   138.1635

     25  C    Isotropic =    41.9673   Anisotropy =   205.0552

     26  C    Isotropic =    50.3745   Anisotropy =   180.1715

     27  H    Isotropic =    24.4688   Anisotropy =    15.2972

     28  C    Isotropic =    52.2850   Anisotropy =   180.1804

     29  H    Isotropic =    24.4476   Anisotropy =     7.9086

     30  C    Isotropic =    53.7736   Anisotropy =   177.5901

     31  H    Isotropic =    24.2233   Anisotropy =     4.5569

     32  C    Isotropic =    49.3464   Anisotropy =   160.8804

     33  H    Isotropic =    23.6426   Anisotropy =     7.4068

     34  C    Isotropic =    44.4310   Anisotropy =   212.0516

     35  C    Isotropic =    47.1645   Anisotropy =   159.4209

     36  H    Isotropic =    23.5752   Anisotropy =     7.2945

     37  C    Isotropic =    56.9097   Anisotropy =   149.8136

     38  H    Isotropic =    23.9137   Anisotropy =     8.1865

     39  C    Isotropic =    24.2655   Anisotropy =   112.1312

     40  C    Isotropic =    23.2965   Anisotropy =   129.0212

     41  C    Isotropic =    57.1909   Anisotropy =   154.9770

     42  H    Isotropic =    24.4917   Anisotropy =     6.4045

     43  C    Isotropic =    48.3343   Anisotropy =   162.0004

     44  H    Isotropic =    24.2170   Anisotropy =     7.3755

     45  C    Isotropic =    45.3303   Anisotropy =   214.5377

     46  C    Isotropic =    49.6520   Anisotropy =   162.0787

     47  H    Isotropic =    23.9834   Anisotropy =     7.6885

     48  C    Isotropic =    54.4572   Anisotropy =   178.2619

     49  H    Isotropic =    24.3829   Anisotropy =     4.4685

     50  C    Isotropic =    52.7853   Anisotropy =   180.3485

     51  H    Isotropic =    24.5217   Anisotropy =     7.4816

     52  C    Isotropic =    50.5822   Anisotropy =   180.0730

     53  H    Isotropic =    24.5274   Anisotropy =    14.1208

     54  C    Isotropic =    42.8289   Anisotropy =   206.9925

     55  C    Isotropic =    53.1356   Anisotropy =   141.1989

     56  C    Isotropic =    51.2016   Anisotropy =   138.1970

     57  C    Isotropic =    41.9718   Anisotropy =   205.0246

     58  C    Isotropic =    50.3477   Anisotropy =   180.1716

     59  H    Isotropic =    24.4704   Anisotropy =    15.3032

     60  C    Isotropic =    52.2894   Anisotropy =   180.1350

     61  H    Isotropic =    24.4496   Anisotropy =     7.9193

     62  C    Isotropic =    53.8440   Anisotropy =   177.4082

     63  H    Isotropic =    24.2182   Anisotropy =     4.5408

     64  C    Isotropic =    49.4122   Anisotropy =   160.9405

     65  H    Isotropic =    23.6544   Anisotropy =     7.4161

     66  C    Isotropic =    44.2731   Anisotropy =   212.1353

     67  C    Isotropic =    47.2714   Anisotropy =   159.4237

     68  H    Isotropic =    23.5828   Anisotropy =     7.2929

     69  C    Isotropic =    56.9687   Anisotropy =   149.6994

     70  H    Isotropic =    23.9085   Anisotropy =     8.1713

     71  C    Isotropic =    24.2306   Anisotropy =   112.0561

     72  C    Isotropic =    36.7299   Anisotropy =   146.1933

     73  C    Isotropic =    50.2872   Anisotropy =   174.7574

     74  C    Isotropic =    50.3334   Anisotropy =   174.8785

     75  C    Isotropic =    50.5075   Anisotropy =   188.4477

     76  H    Isotropic =    24.4196   Anisotropy =     7.2754

     77  C    Isotropic =    50.3848   Anisotropy =   188.5703

     78  H    Isotropic =    24.4258   Anisotropy =     7.2862

     79  C    Isotropic =    53.1046   Anisotropy =   187.9594

     80  H    Isotropic =    25.0527   Anisotropy =     4.4055

     81  H    Isotropic =    25.0490   Anisotropy =     4.4022

     82  H    Isotropic =    25.1834   Anisotropy =     1.9819

 The electronic state is 1-A.
 Alpha  occ. eigenvalues --  -77.13022 -77.13018 -19.15946 -19.15936 -19.15768
 Alpha  occ. eigenvalues --  -19.15754 -14.34095 -10.24507 -10.24505 -10.24289
 Alpha  occ. eigenvalues --  -10.24279 -10.21965 -10.19728 -10.19727 -10.19654
 Alpha  occ. eigenvalues --  -10.19650 -10.19574 -10.19573 -10.19514 -10.19509
 Alpha  occ. eigenvalues --  -10.19081 -10.19070 -10.18980 -10.18973 -10.18600
 Alpha  occ. eigenvalues --  -10.18593 -10.18449 -10.18442 -10.18343 -10.18342
 Alpha  occ. eigenvalues --  -10.18143 -10.18143 -10.18068 -10.18062 -10.18024
 Alpha  occ. eigenvalues --  -10.18016 -10.17894 -10.17893 -10.17870 -10.17868
 Alpha  occ. eigenvalues --  -10.17817 -10.17815 -10.17781 -10.17777 -10.17774
 Alpha  occ. eigenvalues --  -10.17771 -10.17712 -10.17709 -10.17682 -10.17676
 Alpha  occ. eigenvalues --  -10.17606 -10.17598 -10.17574  -6.60416  -6.60411
 Alpha  occ. eigenvalues --   -4.76671  -4.76666  -4.76589  -4.76583  -4.76007
 Alpha  occ. eigenvalues --   -4.76002  -1.07894  -1.07640  -1.03853  -1.03819
 Alpha  occ. eigenvalues --   -0.92654  -0.89168  -0.89072  -0.87822  -0.87819
 Alpha  occ. eigenvalues --   -0.85194  -0.83593  -0.83381  -0.82616  -0.82602
 Alpha  occ. eigenvalues --   -0.80420  -0.80411  -0.76789  -0.76782  -0.75650
 Alpha  occ. eigenvalues --   -0.75405  -0.75180  -0.74571  -0.74559  -0.74359
 Alpha  occ. eigenvalues --   -0.74134  -0.73873  -0.71568  -0.71547  -0.67419
 Alpha  occ. eigenvalues --   -0.66409  -0.63937  -0.63920  -0.63320  -0.63245
 Alpha  occ. eigenvalues --   -0.62118  -0.61955  -0.61895  -0.61707  -0.61492
 Alpha  occ. eigenvalues --   -0.61282  -0.59507  -0.58408  -0.58402  -0.57636
 Alpha  occ. eigenvalues --   -0.54980  -0.54587  -0.54292  -0.53502  -0.53478
 Alpha  occ. eigenvalues --   -0.52805  -0.52784  -0.51679  -0.51568  -0.50166
 Alpha  occ. eigenvalues --   -0.50115  -0.49583  -0.49324  -0.47860  -0.47774
 Alpha  occ. eigenvalues --   -0.47094  -0.47016  -0.46581  -0.46575  -0.45982
 Alpha  occ. eigenvalues --   -0.45730  -0.45703  -0.45114  -0.44507  -0.44488
 Alpha  occ. eigenvalues --   -0.44109  -0.43736  -0.43485  -0.43281  -0.43065
 Alpha  occ. eigenvalues --   -0.43039  -0.42874  -0.42694  -0.42566  -0.42493
 Alpha  occ. eigenvalues --   -0.42371  -0.42352  -0.42027  -0.40080  -0.40044
 Alpha  occ. eigenvalues --   -0.39814  -0.39806  -0.39214  -0.39157  -0.38895
 Alpha  occ. eigenvalues --   -0.38679  -0.37373  -0.37023  -0.36291  -0.36217
 Alpha  occ. eigenvalues --   -0.35927  -0.35878  -0.35712  -0.35321  -0.35304
 Alpha  occ. eigenvalues --   -0.35246  -0.35181  -0.33969  -0.33902  -0.33521
 Alpha  occ. eigenvalues --   -0.33340  -0.32707  -0.32558  -0.32389  -0.32347
 Alpha  occ. eigenvalues --   -0.30242  -0.30073  -0.29983  -0.28931  -0.28911
 Alpha  occ. eigenvalues --   -0.27295  -0.26361  -0.26092  -0.25155  -0.25133
 Alpha  occ. eigenvalues --   -0.24826  -0.24380  -0.23195  -0.22991  -0.21938
 Alpha  occ. eigenvalues --   -0.21795  -0.20746
 Alpha virt. eigenvalues --   -0.06074  -0.06050  -0.04915  -0.04888  -0.02763
 Alpha virt. eigenvalues --   -0.02665  -0.02405  -0.02132  -0.01508  -0.01461
 Alpha virt. eigenvalues --    0.00541   0.00549   0.01780   0.01895   0.02043

 Mulliken charges:
               1
     1  P    0.467595
     2  P    0.467693
     3  O   -0.341039
     4  O   -0.374767
     5  O   -0.341215
     6  O   -0.374977
     7  N   -0.164463
     8  C    0.195604
     9  C   -0.187867
    10  H    0.108721
    11  C   -0.165815
    12  H    0.100694
    13  C    0.155462
    14  C   -0.161387
    15  H    0.099905
    16  C   -0.108084
    17  H    0.106813
    18  C   -0.105301
    19  H    0.109281
    20  C   -0.177687
    21  H    0.134816
    22  C   -0.100361
    23  C    0.136635
    24  C    0.126397
    25  C   -0.097642
    26  C   -0.178996
    27  H    0.135085
    28  C   -0.102263
    29  H    0.109885
    30  C   -0.108211
    31  H    0.107918
    32  C   -0.158271
    33  H    0.101496
    34  C    0.156421
    35  C   -0.170130
    36  H    0.103445
    37  C   -0.242195
    38  H    0.114441
    39  C    0.294151
    40  C    0.196387
    41  C   -0.188271
    42  H    0.108773
    43  C   -0.165451
    44  H    0.100649
    45  C    0.154608
    46  C   -0.161153
    47  H    0.099941
    48  C   -0.108312
    49  H    0.106951
    50  C   -0.104978
    51  H    0.109117
    52  C   -0.177473
    53  H    0.134737
    54  C   -0.100028
    55  C    0.136841
    56  C    0.126598
    57  C   -0.098793
    58  C   -0.178695
    59  H    0.135138
    60  C   -0.102531
    61  H    0.109920
    62  C   -0.107502
    63  H    0.107748
    64  C   -0.158982
    65  H    0.101591
    66  C    0.157651
    67  C   -0.171029
    68  H    0.103536
    69  C   -0.241362
    70  H    0.114372
    71  C    0.293351
    72  C    0.050049
    73  C   -0.184519
    74  C   -0.184288
    75  C   -0.072752
    76  H    0.123166
    77  C   -0.072809
    78  H    0.123081
    79  C   -0.109753
    80  H    0.107999
    81  H    0.108084
    82  H    0.106603
 Sum of Mulliken charges =  -0.00000

 Dipole moment (field-independent basis, Debye):
    X=              0.0030    Y=             -2.7345    Z=             -0.0006  Tot=              2.7345
 Quadrupole moment (field-independent basis, Debye-Ang):
   XX=           -281.7729   YY=           -303.1393   ZZ=           -298.9144
   XY=             -0.0100   XZ=              8.2812   YZ=              0.0111

 Summary of Natural Population Analysis:

                                       Natural Population
                Natural  -----------------------------------------------
    Atom  No    Charge         Core      Valence    Rydberg      Total
 -----------------------------------------------------------------------
      P    1    1.52255      9.99829     3.39251    0.08665    13.47745
      P    2    1.52258      9.99829     3.39246    0.08666    13.47742
      O    3   -0.76685      1.99979     6.74154    0.02552     8.76685
      O    4   -0.77784      1.99978     6.75111    0.02695     8.77784
      O    5   -0.76716      1.99979     6.74188    0.02549     8.76716
      O    6   -0.77796      1.99978     6.75127    0.02692     8.77796
      N    7   -1.07147      1.99954     6.03846    0.03348     8.07147
      C    8    0.28687      1.99860     3.69179    0.02273     5.71313
      C    9   -0.23069      1.99904     4.21266    0.01899     6.23069
      H   10    0.22379      0.00000     0.77477    0.00144     0.77621
      C   11   -0.15381      1.99913     4.13735    0.01733     6.15381
      H   12    0.20877      0.00000     0.78990    0.00132     0.79123
      C   13   -0.06893      1.99907     4.05091    0.01895     6.06893
      C   14   -0.17248      1.99913     4.15500    0.01836     6.17248
      H   15    0.20613      0.00000     0.79247    0.00140     0.79387
      C   16   -0.21114      1.99918     4.19281    0.01915     6.21114
      H   17    0.20907      0.00000     0.78978    0.00116     0.79093
      C   18   -0.19726      1.99919     4.17975    0.01832     6.19726
      H   19    0.20918      0.00000     0.78963    0.00119     0.79082
      C   20   -0.18820      1.99911     4.17097    0.01812     6.18820
      H   21    0.21801      0.00000     0.78049    0.00150     0.78199
      C   22   -0.02951      1.99901     4.01128    0.01921     6.02951
      C   23   -0.07501      1.99883     4.05438    0.02179     6.07501
      C   24   -0.06840      1.99883     4.04787    0.02169     6.06840
      C   25   -0.03075      1.99902     4.01253    0.01921     6.03075
      C   26   -0.18722      1.99911     4.16974    0.01837     6.18722
      H   27    0.21890      0.00000     0.77961    0.00149     0.78110
      C   28   -0.19641      1.99919     4.17886    0.01837     6.19641
      H   29    0.20972      0.00000     0.78909    0.00119     0.79028
      C   30   -0.20964      1.99918     4.19128    0.01918     6.20964
      H   31    0.20955      0.00000     0.78929    0.00116     0.79045
      C   32   -0.17254      1.99912     4.15547    0.01794     6.17254
      H   33    0.20660      0.00000     0.79203    0.00137     0.79340
      C   34   -0.06874      1.99908     4.04934    0.02033     6.06874
      C   35   -0.15671      1.99914     4.13991    0.01767     6.15671
      H   36    0.20978      0.00000     0.78891    0.00131     0.79022
      C   37   -0.23407      1.99905     4.21548    0.01955     6.23407
      H   38    0.22652      0.00000     0.77223    0.00125     0.77348
      C   39    0.28461      1.99862     3.69243    0.02434     5.71539
      C   40    0.28682      1.99859     3.69186    0.02273     5.71318
      C   41   -0.23074      1.99903     4.21269    0.01901     6.23074
      H   42    0.22389      0.00000     0.77466    0.00144     0.77611
      C   43   -0.15382      1.99913     4.13734    0.01735     6.15382
      H   44    0.20881      0.00000     0.78987    0.00132     0.79119
      C   45   -0.06899      1.99907     4.05098    0.01894     6.06899
      C   46   -0.17240      1.99913     4.15492    0.01835     6.17240
      H   47    0.20609      0.00000     0.79251    0.00140     0.79391
      C   48   -0.21109      1.99918     4.19278    0.01913     6.21109
      H   49    0.20911      0.00000     0.78974    0.00115     0.79089
      C   50   -0.19723      1.99919     4.17968    0.01836     6.19723
      H   51    0.20922      0.00000     0.78959    0.00119     0.79078
      C   52   -0.18859      1.99911     4.17132    0.01816     6.18859
      H   53    0.21811      0.00000     0.78038    0.00150     0.78189
      C   54   -0.02902      1.99901     4.01080    0.01921     6.02902
      C   55   -0.07517      1.99883     4.05453    0.02181     6.07517
      C   56   -0.06810      1.99883     4.04757    0.02170     6.06810
      C   57   -0.03117      1.99902     4.01294    0.01921     6.03117
      C   58   -0.18713      1.99911     4.16965    0.01837     6.18713
      H   59    0.21892      0.00000     0.77959    0.00149     0.78108
      C   60   -0.19643      1.99919     4.17887    0.01837     6.19643
      H   61    0.20973      0.00000     0.78908    0.00119     0.79027
      C   62   -0.20970      1.99918     4.19132    0.01921     6.20970
      H   63    0.20955      0.00000     0.78929    0.00116     0.79045
      C   64   -0.17272      1.99912     4.15566    0.01793     6.17272
      H   65    0.20659      0.00000     0.79205    0.00137     0.79341
      C   66   -0.06798      1.99908     4.04858    0.02032     6.06798
      C   67   -0.15705      1.99913     4.14025    0.01766     6.15705
      H   68    0.20983      0.00000     0.78886    0.00131     0.79017
      C   69   -0.23407      1.99904     4.21545    0.01957     6.23407
      H   70    0.22655      0.00000     0.77220    0.00125     0.77345
      C   71    0.28462      1.99862     3.69243    0.02434     5.71538
      C   72    0.10966      1.99890     3.86244    0.02900     5.89034
      C   73   -0.21233      1.99905     4.19448    0.01881     6.21233
      C   74   -0.21246      1.99905     4.19462    0.01880     6.21246
      C   75   -0.19430      1.99920     4.17667    0.01843     6.19430
      H   76    0.22545      0.00000     0.77300    0.00155     0.77455
      C   77   -0.19401      1.99920     4.17640    0.01842     6.19401
      H   78    0.22544      0.00000     0.77301    0.00155     0.77456
      C   79   -0.20999      1.99919     4.19168    0.01912     6.20999
      H   80    0.20908      0.00000     0.78970    0.00122     0.79092
      H   81    0.20908      0.00000     0.78970    0.00122     0.79092
      H   82    0.20813      0.00000     0.79072    0.00115     0.79187
 =======================================================================
   * Total *    0.00000    121.95106   250.79709    1.25185   374.00000

 1\1\GINC-G4NODEC2\SP\RB3LYP\def2TZVP\C46H29N1O4P2\ROOT\07-Nov-2024\0\\
 # nmr=giao b3lyp/def2TZVP pop=nbo scfcyc=200\\Ligand 40 SPE NoRh\\0,1\
 P,0,1.311,-0.373,0.038\P,0,-1.311,-0.373,-0.039\O,0,2.269,-0.128,1.341
 \O,0,2.251,0.189,-1.193\O,0,-2.27,-0.128,-1.341\O,0,-2.251,0.19,1.192\
 N,0,0.,0.743,0.\C,0,3.148,0.965,1.458\C,0,2.877,1.863,2.504\H,0,2.03,1
 .674,3.149\C,0,3.69,2.947,2.679\H,0,3.503,3.643,3.488\C,0,4.767,3.195,
 1.793\C,0,5.565,4.359,1.922\H,0,5.359,5.041,2.738\C,0,6.567,4.628,1.02
 7\H,0,7.168,5.523,1.131\C,0,6.805,3.744,-0.045\H,0,7.579,3.973,-0.766\

 Normal termination of Gaussian 16 at Thu Nov  7 16:02:49 2024.
