 Gaussian 16, Revision B.01,
 Gaussian 16:  ES64L-G16RevB.01 20-Dec-2017

 --------------------------------------------
 # nmr=giao b3lyp/def2TZVP pop=nbo scfcyc=200
 --------------------------------------------

 ------------------
 Ligand 41 SPE NoRh
 ------------------
 Symbolic Z-matrix:
 Charge =  0 Multiplicity = 1

                         Standard orientation:
 ---------------------------------------------------------------------
 Center     Atomic      Atomic             Coordinates (Angstroms)
 Number     Number       Type             X           Y           Z
 ---------------------------------------------------------------------
      1         15           0        1.263554   -1.024627   -0.387111
      2         15           0       -1.328356   -1.028860   -0.443806
      3          8           0        2.092432   -1.082350    1.028446
      4          8           0        2.338743   -0.277876   -1.384402
      5          8           0       -2.436250   -0.652165   -1.591145
      6          8           0       -2.146201   -0.678347    0.945869
      7          7           0       -0.035653    0.102325   -0.317149
      8          6           0        3.050041   -0.141584    1.438439
      9          6           0        2.768895    0.532037    2.639926
     10          1           0        1.859503    0.288967    3.173305
     11          6           0        3.654431    1.460592    3.110650
     12          1           0        3.459003    1.977307    4.042064
     13          6           0        4.820996    1.783249    2.374857
     14          6           0        5.701413    2.803317    2.813054
     15          1           0        5.483000    3.311934    3.744114
     16          6           0        6.796935    3.155587    2.068886
     17          1           0        7.458941    3.942153    2.408437
     18          6           0        7.050075    2.503747    0.845622
     19          1           0        7.900468    2.803328    0.245485
     20          6           0        6.228642    1.496769    0.402567
     21          1           0        6.440023    1.016725   -0.542027
     22          6           0        5.101211    1.085929    1.157292
     23          6           0        4.213838    0.038892    0.722740
     24          6           0        4.511276   -0.795640   -0.473884
     25          6           0        5.732873   -1.544046   -0.603044
     26          6           0        6.660456   -1.682161    0.459819
     27          1           0        6.451087   -1.213121    1.409693
     28          6           0        7.813058   -2.411169    0.304382
     29          1           0        8.501930   -2.507322    1.134676
     30          6           0        8.110159   -3.037782   -0.923780
     31          1           0        9.028378   -3.599472   -1.033634
     32          6           0        7.225630   -2.945426   -1.966782
     33          1           0        7.434030   -3.438129   -2.908403
     34          6           0        6.016069   -2.220007   -1.833295
     35          6           0        5.072639   -2.171344   -2.888656
     36          1           0        5.307027   -2.660541   -3.826624
     37          6           0        3.872198   -1.538581   -2.721811
     38          1           0        3.128374   -1.506745   -3.507053
     39          6           0        3.601069   -0.886620   -1.505645
     40          6           0       -3.459222    0.303415   -1.468055
     41          6           0       -3.480500    1.297695   -2.462341
     42          1           0       -2.744174    1.256644   -3.253688
     43          6           0       -4.437379    2.271856   -2.420223
     44          1           0       -4.473586    3.035128   -3.188148
     45          6           0       -5.375137    2.316707   -1.359914
     46          6           0       -6.311272    3.374516   -1.253275
     47          1           0       -6.316490    4.141466   -2.018526
     48          6           0       -7.182062    3.440527   -0.197494
     49          1           0       -7.888701    4.257543   -0.121214
     50          6           0       -7.144797    2.448258    0.803226
     51          1           0       -7.815264    2.517626    1.651025
     52          6           0       -6.264713    1.398763    0.719174
     53          1           0       -6.249563    0.654378    1.501341
     54          6           0       -5.362781    1.284592   -0.369861
     55          6           0       -4.420586    0.201794   -0.484673
     56          6           0       -4.473826   -0.976716    0.421316
     57          6           0       -5.659572   -1.778834    0.568075
     58          6           0       -6.804598   -1.610680   -0.249891
     59          1           0       -6.798784   -0.854734   -1.022014
     60          6           0       -7.916397   -2.399482   -0.084622
     61          1           0       -8.774652   -2.255530   -0.727838
     62          6           0       -7.951113   -3.396989    0.910074
     63          1           0       -8.839187   -4.003443    1.035811
     64          6           0       -6.852975   -3.604884    1.704186
     65          1           0       -6.860723   -4.382395    2.459568
     66          6           0       -5.681172   -2.824182    1.545764
     67          6           0       -4.524923   -3.077861    2.323266
     68          1           0       -4.558675   -3.853446    3.078933
     69          6           0       -3.371892   -2.373226    2.109686
     70          1           0       -2.469419   -2.566859    2.673803
     71          6           0       -3.362264   -1.352051    1.143193
     72          6           0       -0.144050    1.502392    0.188639
     73          1           0        0.323322    1.542179    1.174893
     74          1           0       -1.211593    1.657154    0.348661
     75          6           0        0.397162    2.668375   -0.684340
     76          6           0        1.911529    2.862472   -0.508460
     77          1           0        2.172599    3.009652    0.542908
     78          1           0        2.478700    2.016150   -0.887741
     79          1           0        2.236746    3.749213   -1.055863
     80          6           0       -0.315010    3.932866   -0.163197
     81          1           0       -0.138969    4.079915    0.906285
     82          1           0        0.058165    4.817931   -0.681423
     83          1           0       -1.394661    3.880159   -0.324293
     84          6           0        0.066865    2.471775   -2.167622
     85          1           0       -1.007712    2.375846   -2.324702
     86          1           0        0.408170    3.334669   -2.742255
     87          1           0        0.557154    1.586470   -2.575738
 ---------------------------------------------------------------------

 SCF Done:  E(RB3LYP) =  -2775.16139464     A.U. after   16 cycles

      1  P    Isotropic =   116.1983   Anisotropy =   184.6478

      2  P    Isotropic =   117.0847   Anisotropy =   197.4914

      3  O    Isotropic =   146.3407   Anisotropy =    48.9058

      4  O    Isotropic =   135.5492   Anisotropy =    66.0620

      5  O    Isotropic =   140.4624   Anisotropy =    55.0908

      6  O    Isotropic =   142.8582   Anisotropy =    57.2869

      7  N    Isotropic =    73.1928   Anisotropy =   108.1018

      8  C    Isotropic =    21.7305   Anisotropy =   131.4560

      9  C    Isotropic =    56.9103   Anisotropy =   150.6570

     10  H    Isotropic =    23.9917   Anisotropy =     6.8214

     11  C    Isotropic =    47.6721   Anisotropy =   160.9670

     12  H    Isotropic =    23.7566   Anisotropy =     7.1672

     13  C    Isotropic =    45.1553   Anisotropy =   213.4315

     14  C    Isotropic =    49.4678   Anisotropy =   161.5963

     15  H    Isotropic =    23.7457   Anisotropy =     7.5699

     16  C    Isotropic =    54.1607   Anisotropy =   178.3190

     17  H    Isotropic =    24.2785   Anisotropy =     4.4236

     18  C    Isotropic =    52.2794   Anisotropy =   181.4327

     19  H    Isotropic =    24.4627   Anisotropy =     7.5341

     20  C    Isotropic =    49.7297   Anisotropy =   180.7548

     21  H    Isotropic =    24.4998   Anisotropy =    13.9229

     22  C    Isotropic =    42.1910   Anisotropy =   207.2104

     23  C    Isotropic =    52.1888   Anisotropy =   142.2162

     24  C    Isotropic =    51.6237   Anisotropy =   137.8604

     25  C    Isotropic =    42.5253   Anisotropy =   205.8637

     26  C    Isotropic =    49.6708   Anisotropy =   178.7721

     27  H    Isotropic =    24.4670   Anisotropy =    15.1934

     28  C    Isotropic =    52.4215   Anisotropy =   181.0918

     29  H    Isotropic =    24.4336   Anisotropy =     7.8976

     30  C    Isotropic =    53.9742   Anisotropy =   178.5678

     31  H    Isotropic =    24.2306   Anisotropy =     4.5392

     32  C    Isotropic =    49.5814   Anisotropy =   161.9110

     33  H    Isotropic =    23.6764   Anisotropy =     7.4070

     34  C    Isotropic =    44.6900   Anisotropy =   212.9485

     35  C    Isotropic =    47.3302   Anisotropy =   159.7955

     36  H    Isotropic =    23.6046   Anisotropy =     7.3734

     37  C    Isotropic =    56.5877   Anisotropy =   149.0704

     38  H    Isotropic =    24.0124   Anisotropy =     8.5729

     39  C    Isotropic =    23.6678   Anisotropy =   109.9993

     40  C    Isotropic =    23.7975   Anisotropy =   127.1586

     41  C    Isotropic =    54.8427   Anisotropy =   153.0365

     42  H    Isotropic =    23.9858   Anisotropy =     6.4798

     43  C    Isotropic =    48.7048   Anisotropy =   159.9161

     44  H    Isotropic =    23.7312   Anisotropy =     7.4155

     45  C    Isotropic =    45.1782   Anisotropy =   212.4991

     46  C    Isotropic =    49.7244   Anisotropy =   161.3266

     47  H    Isotropic =    23.7366   Anisotropy =     7.5476

     48  C    Isotropic =    54.3803   Anisotropy =   178.5134

     49  H    Isotropic =    24.2595   Anisotropy =     4.4843

     50  C    Isotropic =    52.8481   Anisotropy =   181.9526

     51  H    Isotropic =    24.4586   Anisotropy =     7.4940

     52  C    Isotropic =    49.2575   Anisotropy =   179.2446

     53  H    Isotropic =    24.4478   Anisotropy =    14.1263

     54  C    Isotropic =    42.0888   Anisotropy =   206.6755

     55  C    Isotropic =    52.9077   Anisotropy =   141.4294

     56  C    Isotropic =    52.1280   Anisotropy =   137.4980

     57  C    Isotropic =    42.1105   Anisotropy =   205.2291

     58  C    Isotropic =    49.8745   Anisotropy =   179.1552

     59  H    Isotropic =    24.5618   Anisotropy =    15.2051

     60  C    Isotropic =    52.5517   Anisotropy =   181.5227

     61  H    Isotropic =    24.4873   Anisotropy =     7.9340

     62  C    Isotropic =    54.1436   Anisotropy =   178.4268

     63  H    Isotropic =    24.2504   Anisotropy =     4.5698

     64  C    Isotropic =    49.2789   Anisotropy =   161.1241

     65  H    Isotropic =    23.6748   Anisotropy =     7.4624

     66  C    Isotropic =    44.4811   Anisotropy =   212.3724

     67  C    Isotropic =    47.1340   Anisotropy =   159.6269

     68  H    Isotropic =    23.6079   Anisotropy =     7.5236

     69  C    Isotropic =    56.6535   Anisotropy =   148.9243

     70  H    Isotropic =    23.9963   Anisotropy =     8.3950

     71  C    Isotropic =    23.2816   Anisotropy =   112.7736

     72  C    Isotropic =   123.0265   Anisotropy =    38.0330

     73  H    Isotropic =    29.0232   Anisotropy =     5.8365

     74  H    Isotropic =    28.9651   Anisotropy =     9.0694

     75  C    Isotropic =   146.2039   Anisotropy =     9.0072

     76  C    Isotropic =   154.8907   Anisotropy =    47.6671

     77  H    Isotropic =    33.0105   Anisotropy =    13.5285

     78  H    Isotropic =    30.7204   Anisotropy =    12.0110

     79  H    Isotropic =    32.2445   Anisotropy =     6.7665

     80  C    Isotropic =   151.2666   Anisotropy =    49.6151

     81  H    Isotropic =    31.6176   Anisotropy =     6.9959

     82  H    Isotropic =    31.6298   Anisotropy =     9.3082

     83  H    Isotropic =    31.9637   Anisotropy =     9.9632

     84  C    Isotropic =   157.1569   Anisotropy =    34.6044

     85  H    Isotropic =    30.7971   Anisotropy =    13.5609

     86  H    Isotropic =    31.4444   Anisotropy =     8.4659

     87  H    Isotropic =    30.3345   Anisotropy =     4.5316

 The electronic state is 1-A.
 Alpha  occ. eigenvalues --  -77.12615 -77.12551 -19.15824 -19.15805 -19.15635
 Alpha  occ. eigenvalues --  -19.15599 -14.33488 -10.24559 -10.24522 -10.24511
 Alpha  occ. eigenvalues --  -10.24416 -10.20662 -10.19854 -10.19853 -10.19814
 Alpha  occ. eigenvalues --  -10.19746 -10.19701 -10.19698 -10.19633 -10.19579
 Alpha  occ. eigenvalues --  -10.19223 -10.19165 -10.19117 -10.19055 -10.18770
 Alpha  occ. eigenvalues --  -10.18674 -10.18615 -10.18570 -10.18501 -10.18448
 Alpha  occ. eigenvalues --  -10.18357 -10.18336 -10.18276 -10.18228 -10.18185
 Alpha  occ. eigenvalues --  -10.18098 -10.18058 -10.18051 -10.18011 -10.17958
 Alpha  occ. eigenvalues --  -10.17951 -10.17931 -10.17883 -10.17858 -10.17853
 Alpha  occ. eigenvalues --  -10.17822 -10.17798 -10.17757 -10.17705 -10.15740
 Alpha  occ. eigenvalues --  -10.15111 -10.14686  -6.60022  -6.59952  -4.76290
 Alpha  occ. eigenvalues --   -4.76217  -4.76187  -4.76111  -4.75601  -4.75540
 Alpha  occ. eigenvalues --   -1.07729  -1.07477  -1.03805  -1.03722  -0.91071
 Alpha  occ. eigenvalues --   -0.89275  -0.89023  -0.87943  -0.87889  -0.83687
 Alpha  occ. eigenvalues --   -0.83599  -0.82726  -0.82669  -0.81581  -0.80565
 Alpha  occ. eigenvalues --   -0.80512  -0.76912  -0.76851  -0.75431  -0.75216
 Alpha  occ. eigenvalues --   -0.74664  -0.74595  -0.74242  -0.74180  -0.71696
 Alpha  occ. eigenvalues --   -0.71637  -0.70127  -0.68438  -0.68092  -0.67408
 Alpha  occ. eigenvalues --   -0.65645  -0.63958  -0.63430  -0.63395  -0.63168
 Alpha  occ. eigenvalues --   -0.62081  -0.61949  -0.61806  -0.61731  -0.59533
 Alpha  occ. eigenvalues --   -0.58568  -0.58530  -0.58083  -0.55202  -0.54597
 Alpha  occ. eigenvalues --   -0.54356  -0.53610  -0.53548  -0.52941  -0.52913
 Alpha  occ. eigenvalues --   -0.51774  -0.51654  -0.50298  -0.50224  -0.49787
 Alpha  occ. eigenvalues --   -0.49736  -0.47987  -0.47615  -0.47048  -0.46943
 Alpha  occ. eigenvalues --   -0.46720  -0.46670  -0.46025  -0.45838  -0.45816
 Alpha  occ. eigenvalues --   -0.44960  -0.44671  -0.44540  -0.44446  -0.43610
 Alpha  occ. eigenvalues --   -0.43537  -0.43307  -0.43202  -0.43038  -0.42941
 Alpha  occ. eigenvalues --   -0.42711  -0.42652  -0.42592  -0.42498  -0.42217
 Alpha  occ. eigenvalues --   -0.41924  -0.40240  -0.40205  -0.40114  -0.39904
 Alpha  occ. eigenvalues --   -0.39804  -0.39321  -0.39123  -0.38928  -0.38422
 Alpha  occ. eigenvalues --   -0.38257  -0.36720  -0.36513  -0.36457  -0.36178
 Alpha  occ. eigenvalues --   -0.35897  -0.35841  -0.35425  -0.35362  -0.35335
 Alpha  occ. eigenvalues --   -0.35262  -0.34657  -0.34035  -0.33886  -0.33626
 Alpha  occ. eigenvalues --   -0.33316  -0.32880  -0.32740  -0.32459  -0.32366
 Alpha  occ. eigenvalues --   -0.32292  -0.31633  -0.30171  -0.30106  -0.29024
 Alpha  occ. eigenvalues --   -0.28911  -0.28355  -0.26684  -0.25333  -0.25249
 Alpha  occ. eigenvalues --   -0.24930  -0.24867  -0.23252  -0.23095  -0.22036
 Alpha  occ. eigenvalues --   -0.21858  -0.20402
 Alpha virt. eigenvalues --   -0.06221  -0.06171  -0.05037  -0.04963  -0.02795
 Alpha virt. eigenvalues --   -0.02680  -0.02244  -0.02120   0.00282   0.00397
 Alpha virt. eigenvalues --    0.01261   0.01712   0.01859   0.02350   0.03713

 Mulliken charges:
               1
     1  P    0.449208
     2  P    0.447414
     3  O   -0.342277
     4  O   -0.381748
     5  O   -0.335683
     6  O   -0.367007
     7  N   -0.214720
     8  C    0.245608
     9  C   -0.241801
    10  H    0.121522
    11  C   -0.165767
    12  H    0.103837
    13  C    0.134578
    14  C   -0.155860
    15  H    0.101178
    16  C   -0.110462
    17  H    0.107867
    18  C   -0.103030
    19  H    0.110195
    20  C   -0.179619
    21  H    0.136314
    22  C   -0.062000
    23  C    0.062802
    24  C    0.178320
    25  C   -0.122571
    26  C   -0.184313
    27  H    0.133467
    28  C   -0.101765
    29  H    0.109929
    30  C   -0.109271
    31  H    0.108065
    32  C   -0.154583
    33  H    0.101782
    34  C    0.163508
    35  C   -0.180724
    36  H    0.103456
    37  C   -0.237959
    38  H    0.115700
    39  C    0.303474
    40  C    0.179213
    41  C   -0.231963
    42  H    0.139982
    43  C   -0.188462
    44  H    0.103580
    45  C    0.165990
    46  C   -0.159559
    47  H    0.100939
    48  C   -0.107805
    49  H    0.107850
    50  C   -0.103611
    51  H    0.109979
    52  C   -0.175664
    53  H    0.135587
    54  C   -0.107333
    55  C    0.163128
    56  C    0.126362
    57  C   -0.109070
    58  C   -0.180035
    59  H    0.135419
    60  C   -0.102598
    61  H    0.109629
    62  C   -0.109338
    63  H    0.107692
    64  C   -0.156466
    65  H    0.101574
    66  C    0.157561
    67  C   -0.176110
    68  H    0.103399
    69  C   -0.230623
    70  H    0.114921
    71  C    0.287255
    72  C   -0.229826
    73  H    0.115539
    74  H    0.144548
    75  C    0.177636
    76  C   -0.393404
    77  H    0.114205
    78  H    0.142235
    79  H    0.102880
    80  C   -0.372031
    81  H    0.107569
    82  H    0.107891
    83  H    0.122455
    84  C   -0.353406
    85  H    0.085802
    86  H    0.102487
    87  H    0.126930
 Sum of Mulliken charges =  -0.00000

 Dipole moment (field-independent basis, Debye):
    X=              0.1468    Y=              2.2585    Z=              0.8240  Tot=              2.4087
 Quadrupole moment (field-independent basis, Debye-Ang):
   XX=           -277.8073   YY=           -307.3171   ZZ=           -298.6682
   XY=             -1.6117   XZ=             -3.9983   YZ=             -2.1426

 Summary of Natural Population Analysis:

                                       Natural Population
                Natural  -----------------------------------------------
    Atom  No    Charge         Core      Valence    Rydberg      Total
 -----------------------------------------------------------------------
      P    1    1.51308      9.99826     3.40074    0.08793    13.48692
      P    2    1.51470      9.99828     3.39894    0.08807    13.48530
      O    3   -0.77091      1.99978     6.74583    0.02530     8.77091
      O    4   -0.77883      1.99977     6.75170    0.02735     8.77883
      O    5   -0.76982      1.99978     6.74515    0.02489     8.76982
      O    6   -0.77720      1.99978     6.75054    0.02688     8.77720
      N    7   -1.06887      1.99958     6.03560    0.03368     8.06887
      C    8    0.28812      1.99860     3.68972    0.02357     5.71188
      C    9   -0.23934      1.99905     4.22083    0.01946     6.23934
      H   10    0.22598      0.00000     0.77276    0.00125     0.77402
      C   11   -0.15907      1.99913     4.14193    0.01801     6.15907
      H   12    0.20952      0.00000     0.78914    0.00134     0.79048
      C   13   -0.07165      1.99907     4.05349    0.01909     6.07165
      C   14   -0.17307      1.99913     4.15557    0.01837     6.17307
      H   15    0.20631      0.00000     0.79229    0.00140     0.79369
      C   16   -0.21040      1.99918     4.19210    0.01912     6.21040
      H   17    0.20975      0.00000     0.78910    0.00115     0.79025
      C   18   -0.19537      1.99919     4.17787    0.01831     6.19537
      H   19    0.20982      0.00000     0.78899    0.00119     0.79018
      C   20   -0.18861      1.99911     4.17134    0.01816     6.18861
      H   21    0.21902      0.00000     0.77949    0.00149     0.78098
      C   22   -0.02816      1.99901     4.00980    0.01935     6.02816
      C   23   -0.07502      1.99883     4.05404    0.02215     6.07502
      C   24   -0.07178      1.99883     4.05127    0.02167     6.07178
      C   25   -0.03025      1.99902     4.01195    0.01928     6.03025
      C   26   -0.18738      1.99911     4.17016    0.01811     6.18738
      H   27    0.21831      0.00000     0.78022    0.00148     0.78169
      C   28   -0.19584      1.99919     4.17837    0.01828     6.19584
      H   29    0.20971      0.00000     0.78911    0.00119     0.79029
      C   30   -0.20949      1.99918     4.19123    0.01907     6.20949
      H   31    0.20963      0.00000     0.78923    0.00115     0.79037
      C   32   -0.17290      1.99913     4.15544    0.01833     6.17290
      H   33    0.20663      0.00000     0.79197    0.00140     0.79337
      C   34   -0.06875      1.99907     4.05081    0.01886     6.06875
      C   35   -0.15660      1.99913     4.13946    0.01801     6.15660
      H   36    0.20997      0.00000     0.78872    0.00131     0.79003
      C   37   -0.23270      1.99904     4.21418    0.01948     6.23270
      H   38    0.22721      0.00000     0.77159    0.00120     0.77279
      C   39    0.28672      1.99862     3.69032    0.02434     5.71328
      C   40    0.28745      1.99859     3.69128    0.02267     5.71255
      C   41   -0.23880      1.99904     4.22011    0.01966     6.23880
      H   42    0.22624      0.00000     0.77220    0.00156     0.77376
      C   43   -0.15932      1.99913     4.14275    0.01744     6.15932
      H   44    0.20959      0.00000     0.78909    0.00132     0.79041
      C   45   -0.07222      1.99907     4.05405    0.01910     6.07222
      C   46   -0.17362      1.99913     4.15610    0.01840     6.17362
      H   47    0.20642      0.00000     0.79218    0.00140     0.79358
      C   48   -0.21035      1.99918     4.19203    0.01913     6.21035
      H   49    0.20968      0.00000     0.78916    0.00115     0.79032
      C   50   -0.19658      1.99919     4.17906    0.01833     6.19658
      H   51    0.20974      0.00000     0.78907    0.00119     0.79026
      C   52   -0.18783      1.99911     4.17053    0.01819     6.18783
      H   53    0.21872      0.00000     0.77977    0.00151     0.78128
      C   54   -0.02955      1.99902     4.01123    0.01931     6.02955
      C   55   -0.07469      1.99884     4.05411    0.02174     6.07469
      C   56   -0.07261      1.99883     4.05202    0.02176     6.07261
      C   57   -0.02989      1.99902     4.01166    0.01922     6.02989
      C   58   -0.18769      1.99911     4.17022    0.01836     6.18769
      H   59    0.21825      0.00000     0.78024    0.00152     0.78175
      C   60   -0.19595      1.99919     4.17841    0.01835     6.19595
      H   61    0.20954      0.00000     0.78927    0.00119     0.79046
      C   62   -0.21027      1.99918     4.19190    0.01919     6.21027
      H   63    0.20959      0.00000     0.78925    0.00116     0.79041
      C   64   -0.17208      1.99913     4.15502    0.01793     6.17208
      H   65    0.20656      0.00000     0.79207    0.00137     0.79344
      C   66   -0.06899      1.99908     4.04959    0.02033     6.06899
      C   67   -0.15600      1.99913     4.13921    0.01765     6.15600
      H   68    0.20975      0.00000     0.78894    0.00131     0.79025
      C   69   -0.23326      1.99905     4.21463    0.01959     6.23326
      H   70    0.22694      0.00000     0.77179    0.00126     0.77306
      C   71    0.28714      1.99862     3.68948    0.02476     5.71286
      C   72   -0.21761      1.99922     4.19287    0.02551     6.21761
      H   73    0.19628      0.00000     0.80084    0.00288     0.80372
      H   74    0.20450      0.00000     0.79231    0.00318     0.79550
      C   75   -0.05163      1.99946     4.03652    0.01565     6.05163
      C   76   -0.59923      1.99938     4.58775    0.01210     6.59923
      H   77    0.20022      0.00000     0.79835    0.00143     0.79978
      H   78    0.22206      0.00000     0.77627    0.00167     0.77794
      H   79    0.20015      0.00000     0.79856    0.00130     0.79985
      C   80   -0.58588      1.99939     4.57485    0.01164     6.58588
      H   81    0.20135      0.00000     0.79753    0.00111     0.79865
      H   82    0.20417      0.00000     0.79457    0.00126     0.79583
      H   83    0.20319      0.00000     0.79572    0.00110     0.79681
      C   84   -0.59601      1.99937     4.58414    0.01250     6.59601
      H   85    0.20130      0.00000     0.79728    0.00142     0.79870
      H   86    0.20179      0.00000     0.79705    0.00116     0.79821
      H   87    0.21696      0.00000     0.78196    0.00108     0.78304
 =======================================================================
   * Total *    0.00000    119.95330   252.82402    1.22268   374.00000

 1\1\GINC-G4NODEC9\SP\RB3LYP\def2TZVP\C45H35N1O4P2\ROOT\06-Nov-2024\0\\
 # nmr=giao b3lyp/def2TZVP pop=nbo scfcyc=200\\Ligand 41 SPE NoRh\\0,1\
 P,0,1.271,-0.162,-0.134\P,0,-1.321,-0.17,-0.186\O,0,2.102,0.01,1.271\O
 ,0,2.346,0.41,-1.241\O,0,-2.43,0.017,-1.378\O,0,-2.136,0.404,1.129\N,0
 ,-0.026,0.964,-0.247\C,0,3.062,1.003,1.521\C,0,2.784,1.864,2.597\H,0,1
 .875,1.713,3.164\C,0,3.672,2.855,2.909\H,0,3.479,3.517,3.744\C,0,4.838
 ,3.051,2.129\C,0,5.721,4.127,2.394\H,0,5.505,4.781,3.23\C,0,6.816,4.35
 1,1.601\H,0,7.48,5.181,1.807\C,0,7.066,3.508,0.5\H,0,7.916,3.704,-0.14

 Normal termination of Gaussian 16 at Wed Nov  6 18:41:54 2024.
