 Gaussian 16, Revision B.01,
 Gaussian 16:  ES64L-G16RevB.01 20-Dec-2017

 --------------------------------------------
 # nmr=giao b3lyp/def2TZVP pop=nbo scfcyc=200
 --------------------------------------------

 -----------------
 Ligand 4 SPE NoRh
 -----------------
 Symbolic Z-matrix:
 Charge =  0 Multiplicity = 1

                         Standard orientation:
 ---------------------------------------------------------------------
 Center     Atomic      Atomic             Coordinates (Angstroms)
 Number     Number       Type             X           Y           Z
 ---------------------------------------------------------------------
      1          6           0        0.000134    0.004924    0.985478
      2          1           0       -0.326932   -0.813545    1.627919
      3          1           0        0.329084    0.826582    1.622291
      4          6           0       -1.607841    2.319468    0.127212
      5          1           0       -2.017741    2.434450    1.132212
      6          1           0       -2.304681    2.745065   -0.593598
      7          1           0       -0.669760    2.867920    0.054337
      8          6           0        1.599118   -2.315831    0.127284
      9          1           0        2.008687   -2.433217    1.131606
     10          1           0        2.293022   -2.744257   -0.594204
     11          1           0        0.657668   -2.860955    0.055081
     12         15           0       -1.298045    0.537406   -0.258064
     13         15           0        1.296244   -0.533100   -0.257441
     14          6           0       -2.887797   -0.332090    0.236409
     15          1           0       -3.012320   -0.092058    1.298847
     16          6           0       -2.765401   -1.850111    0.080348
     17          1           0       -2.603344   -2.130295   -0.962494
     18          1           0       -1.952230   -2.269767    0.674253
     19          1           0       -3.688022   -2.329184    0.415695
     20          6           0       -4.092452    0.219085   -0.534323
     21          1           0       -5.000089   -0.290022   -0.202771
     22          1           0       -4.242288    1.287169   -0.371720
     23          1           0       -3.998512    0.046169   -1.609173
     24          6           0        2.890111    0.329217    0.236308
     25          1           0        3.012222    0.091532    1.299184
     26          6           0        4.092570   -0.229577   -0.532270
     27          1           0        3.999472   -0.060951   -1.606771
     28          1           0        5.001248    0.277078   -0.202700
     29          1           0        4.238441   -1.297373   -0.364890
     30          6           0        2.775430    1.847908    0.076458
     31          1           0        2.619100    2.126652   -0.967945
     32          1           0        1.961886    2.272970    0.665754
     33          1           0        3.698872    2.323502    0.414231
 ---------------------------------------------------------------------

 SCF Done:  E(RB3LYP) =  -1039.09914404     A.U. after   12 cycles

      1  C    Isotropic =   160.6118   Anisotropy =    22.4302

      2  H    Isotropic =    30.8297   Anisotropy =     4.9940

      3  H    Isotropic =    30.8392   Anisotropy =     5.0192

      4  C    Isotropic =   172.2779   Anisotropy =    18.9265

      5  H    Isotropic =    30.8715   Anisotropy =     8.9194

      6  H    Isotropic =    31.0273   Anisotropy =     9.5867

      7  H    Isotropic =    30.7371   Anisotropy =     7.6869

      8  C    Isotropic =   172.3377   Anisotropy =    18.7563

      9  H    Isotropic =    30.8854   Anisotropy =     8.9208

     10  H    Isotropic =    31.0330   Anisotropy =     9.5881

     11  H    Isotropic =    30.7099   Anisotropy =     7.6991

     12  P    Isotropic =   251.0465   Anisotropy =   106.8784

     13  P    Isotropic =   251.2824   Anisotropy =   107.0881

     14  C    Isotropic =   148.9402   Anisotropy =    10.9285

     15  H    Isotropic =    30.1709   Anisotropy =     5.0455

     16  C    Isotropic =   163.1221   Anisotropy =    31.4275

     17  H    Isotropic =    31.0281   Anisotropy =     7.1327

     18  H    Isotropic =    30.8317   Anisotropy =     7.4781

     19  H    Isotropic =    30.8101   Anisotropy =    10.1285

     20  C    Isotropic =   164.4728   Anisotropy =    32.6484

     21  H    Isotropic =    30.9389   Anisotropy =    10.3604

     22  H    Isotropic =    30.9757   Anisotropy =     8.8184

     23  H    Isotropic =    31.2480   Anisotropy =     8.0352

     24  C    Isotropic =   148.9860   Anisotropy =    10.9195

     25  H    Isotropic =    30.1797   Anisotropy =     5.0385

     26  C    Isotropic =   164.6442   Anisotropy =    32.6042

     27  H    Isotropic =    31.2782   Anisotropy =     8.0400

     28  H    Isotropic =    30.9642   Anisotropy =    10.3679

     29  H    Isotropic =    30.9851   Anisotropy =     8.8220

     30  C    Isotropic =   163.1178   Anisotropy =    31.5082

     31  H    Isotropic =    31.0246   Anisotropy =     7.1497

     32  H    Isotropic =    30.8375   Anisotropy =     7.4806

     33  H    Isotropic =    30.8134   Anisotropy =    10.1356

 The electronic state is 1-A.
 Alpha  occ. eigenvalues --  -77.03303 -77.03292 -10.17707 -10.17698 -10.17523
 Alpha  occ. eigenvalues --  -10.16462 -10.16462 -10.16352 -10.16349 -10.16255
 Alpha  occ. eigenvalues --  -10.16232  -6.51885  -6.51876  -4.68051  -4.68042
 Alpha  occ. eigenvalues --   -4.67983  -4.67975  -4.67500  -4.67491  -0.79864
 Alpha  occ. eigenvalues --   -0.79306  -0.74411  -0.71815  -0.69483  -0.68757
 Alpha  occ. eigenvalues --   -0.68118  -0.60605  -0.59396  -0.52197  -0.52024
 Alpha  occ. eigenvalues --   -0.45881  -0.45528  -0.45292  -0.44553  -0.42440
 Alpha  occ. eigenvalues --   -0.41892  -0.41560  -0.41233  -0.40501  -0.39824
 Alpha  occ. eigenvalues --   -0.39068  -0.38935  -0.38535  -0.37558  -0.35338
 Alpha  occ. eigenvalues --   -0.34806  -0.34440  -0.34275  -0.31325  -0.30892
 Alpha  occ. eigenvalues --   -0.29203  -0.21838  -0.18003
 Alpha virt. eigenvalues --    0.01161   0.02528   0.03260   0.04276   0.04300
 Alpha virt. eigenvalues --    0.05687   0.06845   0.06992   0.07963   0.08195
 Alpha virt. eigenvalues --    0.08879   0.09402   0.09679   0.09731   0.10873

 Mulliken charges:
               1
     1  C   -0.385105
     2  H    0.120229
     3  H    0.120339
     4  C   -0.445078
     5  H    0.109618
     6  H    0.130549
     7  H    0.131114
     8  C   -0.445217
     9  H    0.109705
    10  H    0.130685
    11  H    0.131163
    12  P    0.187165
    13  P    0.186963
    14  C   -0.066837
    15  H    0.065636
    16  C   -0.346445
    17  H    0.116126
    18  H    0.101341
    19  H    0.107027
    20  C   -0.353477
    21  H    0.107298
    22  H    0.116676
    23  H    0.111584
    24  C   -0.066927
    25  H    0.065674
    26  C   -0.353466
    27  H    0.111701
    28  H    0.107344
    29  H    0.116659
    30  C   -0.346320
    31  H    0.115996
    32  H    0.101280
    33  H    0.106999
 Sum of Mulliken charges =  -0.00000

 Dipole moment (field-independent basis, Debye):
    X=             -0.0014    Y=             -0.0022    Z=              2.0869  Tot=              2.0869
 Quadrupole moment (field-independent basis, Debye-Ang):
   XX=            -84.6993   YY=            -86.5583   ZZ=            -92.0034
   XY=              0.0106   XZ=              0.0000   YZ=              0.0078

 Summary of Natural Population Analysis:

                                       Natural Population
                Natural  -----------------------------------------------
    Atom  No    Charge         Core      Valence    Rydberg      Total
 -----------------------------------------------------------------------
      C    1   -1.02365      1.99947     4.99238    0.03179     7.02365
      H    2    0.23984      0.00000     0.75779    0.00237     0.76016
      H    3    0.23998      0.00000     0.75766    0.00235     0.76002
      C    4   -0.91852      1.99946     4.90021    0.01885     6.91852
      H    5    0.20409      0.00000     0.79279    0.00313     0.79591
      H    6    0.22885      0.00000     0.77010    0.00105     0.77115
      H    7    0.22711      0.00000     0.77159    0.00130     0.77289
      C    8   -0.91888      1.99946     4.90055    0.01888     6.91888
      H    9    0.20408      0.00000     0.79278    0.00313     0.79592
      H   10    0.22893      0.00000     0.77001    0.00105     0.77107
      H   11    0.22723      0.00000     0.77147    0.00130     0.77277
      P   12    0.78792      9.99872     4.17462    0.03873    14.21208
      P   13    0.78797      9.99872     4.17454    0.03877    14.21203
      C   14   -0.47640      1.99946     4.45341    0.02353     6.47640
      H   15    0.18937      0.00000     0.80707    0.00356     0.81063
      C   16   -0.59506      1.99943     4.58395    0.01168     6.59506
      H   17    0.20591      0.00000     0.79221    0.00188     0.79409
      H   18    0.19825      0.00000     0.80026    0.00148     0.80175
      H   19    0.20389      0.00000     0.79452    0.00159     0.79611
      C   20   -0.59572      1.99943     4.58470    0.01159     6.59572
      H   21    0.20393      0.00000     0.79450    0.00157     0.79607
      H   22    0.20427      0.00000     0.79454    0.00119     0.79573
      H   23    0.20409      0.00000     0.79392    0.00200     0.79591
      C   24   -0.47629      1.99946     4.45332    0.02351     6.47629
      H   25    0.18933      0.00000     0.80711    0.00356     0.81067
      C   26   -0.59564      1.99943     4.58463    0.01158     6.59564
      H   27    0.20405      0.00000     0.79396    0.00200     0.79595
      H   28    0.20391      0.00000     0.79453    0.00157     0.79609
      H   29    0.20422      0.00000     0.79459    0.00119     0.79578
      C   30   -0.59499      1.99943     4.58389    0.01167     6.59499
      H   31    0.20589      0.00000     0.79223    0.00188     0.79411
      H   32    0.19822      0.00000     0.80030    0.00148     0.80178
      H   33    0.20382      0.00000     0.79459    0.00159     0.79618
 =======================================================================
   * Total *   -0.00000     37.99248    67.72472    0.28280   106.00000

 Normal termination of Gaussian 16 at Wed Nov  6 15:08:59 2024.
