 Gaussian 16, Revision B.01,
 Gaussian 16:  ES64L-G16RevB.01 20-Dec-2017

 --------------------------------------------
 # nmr=giao b3lyp/def2TZVP pop=nbo scfcyc=200
 --------------------------------------------

 -------------------
 Ligand 51b SPE NoRh
 -------------------
 Symbolic Z-matrix:
 Charge =  0 Multiplicity = 1

                         Standard orientation:
 ---------------------------------------------------------------------
 Center     Atomic      Atomic             Coordinates (Angstroms)
 Number     Number       Type             X           Y           Z
 ---------------------------------------------------------------------
      1          6           0        0.499647   -0.316054    1.095296
      2          1           0       -0.084429    0.389038    1.691503
      3          6           0        1.970799    0.028665    1.331035
      4          6           0        2.845176   -0.865952    1.950338
      5          1           0        2.505503   -1.849810    2.244263
      6          6           0        4.167419   -0.510292    2.213145
      7          1           0        4.824335   -1.219630    2.700494
      8          6           0        4.638483    0.748218    1.860535
      9          1           0        5.663494    1.026706    2.069657
     10          6           0        3.776835    1.649834    1.241261
     11          1           0        4.130793    2.634652    0.962697
     12          6           0        2.460817    1.292409    0.982344
     13          1           0        1.812018    2.002170    0.486053
     14          6           0        0.097554   -1.725230    1.538077
     15          1           0       -0.965046   -1.882075    1.365886
     16          1           0        0.280784   -1.851871    2.605901
     17          1           0        0.646625   -2.490308    0.990473
     18          6           0       -1.614261    2.420657   -0.472575
     19          6           0       -1.225174    2.813096    0.961951
     20          1           0       -1.326892    3.897650    1.059914
     21          1           0       -0.189027    2.568755    1.190628
     22          1           0       -1.858866    2.366554    1.725415
     23          6           0       -3.065222    2.850254   -0.759032
     24          1           0       -3.774184    2.430650   -0.046181
     25          1           0       -3.392689    2.568411   -1.761541
     26          1           0       -3.129711    3.938811   -0.691840
     27          6           0       -0.662375    3.139956   -1.446452
     28          1           0       -0.922658    2.950697   -2.488514
     29          1           0        0.376289    2.840097   -1.302773
     30          1           0       -0.724451    4.217252   -1.272807
     31          6           0       -2.787386   -0.395271    0.002708
     32          6           0       -3.186684   -1.593702   -0.603735
     33          1           0       -2.740144   -1.886778   -1.546143
     34          6           0       -4.136543   -2.410996   -0.004287
     35          1           0       -4.431149   -3.335995   -0.484567
     36          6           0       -4.712032   -2.038552    1.206190
     37          1           0       -5.456164   -2.671206    1.672507
     38          6           0       -4.326984   -0.848938    1.815499
     39          1           0       -4.770693   -0.552864    2.757822
     40          6           0       -3.370951   -0.032321    1.221288
     41          1           0       -3.090605    0.880087    1.723818
     42          6           0        3.320035   -0.811378   -1.793286
     43          1           0        3.678131   -0.563929   -0.795241
     44          1           0        4.109173   -0.644521   -2.523905
     45          6           0        2.743896   -2.225941   -1.863618
     46          1           0        2.795375   -2.638970   -2.872690
     47          1           0        3.224544   -2.909637   -1.166101
     48          7           0        0.082265   -0.049892   -0.319862
     49          8           0        2.218645    0.065423   -2.130643
     50          8           0        1.354502   -2.108284   -1.477006
     51         15           0       -1.481638    0.563542   -0.884593
     52         15           0        0.751659   -0.599048   -1.785713
 ---------------------------------------------------------------------

 SCF Done:  E(RB3LYP) =  -1666.74309985     A.U. after   14 cycles

      1  C    Isotropic =   120.2855   Anisotropy =    34.5078

      2  H    Isotropic =    26.9102   Anisotropy =     5.2657

      3  C    Isotropic =    31.6413   Anisotropy =   197.2878

      4  C    Isotropic =    52.1587   Anisotropy =   183.8966

      5  H    Isotropic =    24.3388   Anisotropy =    10.9177

      6  C    Isotropic =    50.5147   Anisotropy =   183.3379

      7  H    Isotropic =    24.4026   Anisotropy =     5.2926

      8  C    Isotropic =    51.5450   Anisotropy =   183.5833

      9  H    Isotropic =    24.4485   Anisotropy =     3.9850

     10  C    Isotropic =    50.1282   Anisotropy =   184.2558

     11  H    Isotropic =    24.2571   Anisotropy =     6.3584

     12  C    Isotropic =    46.1609   Anisotropy =   186.5984

     13  H    Isotropic =    23.6415   Anisotropy =     9.0398

     14  C    Isotropic =   162.7304   Anisotropy =    20.9709

     15  H    Isotropic =    31.6518   Anisotropy =    12.6254

     16  H    Isotropic =    31.1463   Anisotropy =     9.7991

     17  H    Isotropic =    30.3152   Anisotropy =     5.3931

     18  C    Isotropic =   137.5261   Anisotropy =    22.4045

     19  C    Isotropic =   155.7906   Anisotropy =    34.6848

     20  H    Isotropic =    30.7120   Anisotropy =     8.9809

     21  H    Isotropic =    29.7418   Anisotropy =     7.3663

     22  H    Isotropic =    29.8535   Anisotropy =     7.5884

     23  C    Isotropic =   155.4501   Anisotropy =    40.2161

     24  H    Isotropic =    30.6384   Anisotropy =     7.4326

     25  H    Isotropic =    30.7696   Anisotropy =     8.1837

     26  H    Isotropic =    31.1291   Anisotropy =     9.6103

     27  C    Isotropic =   151.7950   Anisotropy =    43.8458

     28  H    Isotropic =    30.4203   Anisotropy =     8.3372

     29  H    Isotropic =    29.9750   Anisotropy =     6.8589

     30  H    Isotropic =    31.0588   Anisotropy =     8.7490

     31  C    Isotropic =    35.6386   Anisotropy =   197.0981

     32  C    Isotropic =    40.8704   Anisotropy =   185.9713

     33  H    Isotropic =    23.7025   Anisotropy =     9.4078

     34  C    Isotropic =    49.0185   Anisotropy =   185.4263

     35  H    Isotropic =    24.1838   Anisotropy =     5.2843

     36  C    Isotropic =    49.1736   Anisotropy =   187.3120

     37  H    Isotropic =    24.3091   Anisotropy =     4.1405

     38  C    Isotropic =    50.5002   Anisotropy =   182.5898

     39  H    Isotropic =    24.3452   Anisotropy =     6.1064

     40  C    Isotropic =    45.6714   Anisotropy =   183.3040

     41  H    Isotropic =    23.5830   Anisotropy =    11.0177

     42  C    Isotropic =   115.4672   Anisotropy =    67.2144

     43  H    Isotropic =    30.8047   Anisotropy =    11.3184

     44  H    Isotropic =    28.7644   Anisotropy =     8.9873

     45  C    Isotropic =   113.1926   Anisotropy =    70.9465

     46  H    Isotropic =    28.4430   Anisotropy =    11.9712

     47  H    Isotropic =    28.1903   Anisotropy =     7.2756

     48  N    Isotropic =    97.5203   Anisotropy =    70.8926

     49  O    Isotropic =   196.0239   Anisotropy =   116.0976

     50  O    Isotropic =   211.6643   Anisotropy =   106.4631

     51  P    Isotropic =   190.9586   Anisotropy =    88.9982

     52  P    Isotropic =   109.6480   Anisotropy =   226.4075

 The electronic state is 1-A.
 Alpha  occ. eigenvalues --  -77.10103 -77.05887 -19.13166 -19.13010 -14.32178
 Alpha  occ. eigenvalues --  -10.22791 -10.22232 -10.22045 -10.19340 -10.18934
 Alpha  occ. eigenvalues --  -10.18501 -10.18168 -10.18154 -10.18056 -10.18033
 Alpha  occ. eigenvalues --  -10.18025 -10.17993 -10.17968 -10.17935 -10.17911
 Alpha  occ. eigenvalues --  -10.17767 -10.16427 -10.16265 -10.15946 -10.15713
 Alpha  occ. eigenvalues --   -6.57555  -6.54154  -4.73828  -4.73713  -4.73157
 Alpha  occ. eigenvalues --   -4.70410  -4.70213  -4.69776  -1.05814  -0.98948
 Alpha  occ. eigenvalues --   -0.90075  -0.86383  -0.85978  -0.81390  -0.78116
 Alpha  occ. eigenvalues --   -0.75667  -0.75390  -0.75352  -0.74838  -0.72659
 Alpha  occ. eigenvalues --   -0.69259  -0.68808  -0.65062  -0.63164  -0.62774
 Alpha  occ. eigenvalues --   -0.61146  -0.61067  -0.59570  -0.58791  -0.55720
 Alpha  occ. eigenvalues --   -0.53903  -0.52663  -0.51506  -0.50293  -0.48926
 Alpha  occ. eigenvalues --   -0.47519  -0.47295  -0.46839  -0.46094  -0.45806
 Alpha  occ. eigenvalues --   -0.45193  -0.44546  -0.44256  -0.44014  -0.43531
 Alpha  occ. eigenvalues --   -0.42763  -0.42520  -0.42043  -0.41397  -0.40282
 Alpha  occ. eigenvalues --   -0.39536  -0.38898  -0.38617  -0.37785  -0.37272
 Alpha  occ. eigenvalues --   -0.36969  -0.36596  -0.36397  -0.35338  -0.35163
 Alpha  occ. eigenvalues --   -0.34800  -0.34520  -0.34005  -0.33883  -0.33733
 Alpha  occ. eigenvalues --   -0.32244  -0.31454  -0.29078  -0.26807  -0.26549
 Alpha  occ. eigenvalues --   -0.26324  -0.26276  -0.25788  -0.22959  -0.18676
 Alpha virt. eigenvalues --   -0.03474  -0.02371  -0.01910  -0.01720   0.02337
 Alpha virt. eigenvalues --    0.02806   0.03896   0.04496   0.04691   0.05575
 Alpha virt. eigenvalues --    0.05716   0.06274   0.06634   0.07412   0.07796

 Mulliken charges:
               1
     1  C    0.013358
     2  H    0.099495
     3  C    0.062520
     4  C   -0.207875
     5  H    0.122555
     6  C   -0.106784
     7  H    0.108613
     8  C   -0.127209
     9  H    0.108655
    10  C   -0.115663
    11  H    0.106662
    12  C   -0.100296
    13  H    0.116562
    14  C   -0.404575
    15  H    0.158881
    16  H    0.109276
    17  H    0.133298
    18  C    0.090819
    19  C   -0.379339
    20  H    0.104577
    21  H    0.117424
    22  H    0.111531
    23  C   -0.369876
    24  H    0.122553
    25  H    0.124924
    26  H    0.106264
    27  C   -0.376110
    28  H    0.126636
    29  H    0.129349
    30  H    0.104593
    31  C    0.021371
    32  C   -0.128179
    33  H    0.124544
    34  C   -0.122740
    35  H    0.111129
    36  C   -0.088935
    37  H    0.111174
    38  C   -0.141602
    39  H    0.106863
    40  C   -0.135847
    41  H    0.108111
    42  C   -0.060194
    43  H    0.130338
    44  H    0.101803
    45  C   -0.005102
    46  H    0.099688
    47  H    0.093429
    48  N   -0.253364
    49  O   -0.371242
    50  O   -0.389954
    51  P    0.151236
    52  P    0.446656
 Sum of Mulliken charges =  -0.00000

 Dipole moment (field-independent basis, Debye):
    X=              1.0228    Y=             -0.3395    Z=              2.4930  Tot=              2.7159
 Quadrupole moment (field-independent basis, Debye-Ang):
   XX=           -149.9466   YY=           -157.9583   ZZ=           -170.0892
   XY=             -2.0884   XZ=             -4.8092   YZ=              0.7318

 Summary of Natural Population Analysis:

                                       Natural Population
                Natural  -----------------------------------------------
    Atom  No    Charge         Core      Valence    Rydberg      Total
 -----------------------------------------------------------------------
      C    1   -0.06509      1.99926     4.03842    0.02742     6.06509
      H    2    0.20444      0.00000     0.79229    0.00327     0.79556
      C    3   -0.03316      1.99903     4.01040    0.02373     6.03316
      C    4   -0.21240      1.99909     4.19478    0.01853     6.21240
      H    5    0.21335      0.00000     0.78512    0.00153     0.78665
      C    6   -0.20619      1.99920     4.18742    0.01957     6.20619
      H    7    0.20824      0.00000     0.79051    0.00125     0.79176
      C    8   -0.21230      1.99918     4.19386    0.01925     6.21230
      H    9    0.20935      0.00000     0.78946    0.00118     0.79065
      C   10   -0.20152      1.99919     4.18364    0.01869     6.20152
      H   11    0.20999      0.00000     0.78874    0.00127     0.79001
      C   12   -0.19448      1.99907     4.17651    0.01890     6.19448
      H   13    0.21015      0.00000     0.78744    0.00240     0.78985
      C   14   -0.60713      1.99942     4.59482    0.01289     6.60713
      H   15    0.22227      0.00000     0.77642    0.00132     0.77773
      H   16    0.20230      0.00000     0.79657    0.00113     0.79770
      H   17    0.21830      0.00000     0.78048    0.00122     0.78170
      C   18   -0.29926      1.99945     4.27211    0.02770     6.29926
      C   19   -0.59912      1.99935     4.58746    0.01231     6.59912
      H   20    0.19927      0.00000     0.79844    0.00230     0.80073
      H   21    0.20368      0.00000     0.79497    0.00135     0.79632
      H   22    0.19505      0.00000     0.80371    0.00124     0.80495
      C   23   -0.60430      1.99937     4.59322    0.01171     6.60430
      H   24    0.20904      0.00000     0.78976    0.00120     0.79096
      H   25    0.21491      0.00000     0.78370    0.00139     0.78509
      H   26    0.20468      0.00000     0.79337    0.00195     0.79532
      C   27   -0.60071      1.99938     4.58947    0.01186     6.60071
      H   28    0.21749      0.00000     0.78127    0.00124     0.78251
      H   29    0.21006      0.00000     0.78871    0.00123     0.78994
      H   30    0.20092      0.00000     0.79713    0.00195     0.79908
      C   31   -0.35974      1.99898     4.32679    0.03397     6.35974
      C   32   -0.18683      1.99911     4.16793    0.01979     6.18683
      H   33    0.22172      0.00000     0.77681    0.00147     0.77828
      C   34   -0.20379      1.99918     4.18528    0.01934     6.20379
      H   35    0.21083      0.00000     0.78790    0.00127     0.78917
      C   36   -0.19982      1.99919     4.18142    0.01922     6.19982
      H   37    0.20901      0.00000     0.78982    0.00118     0.79099
      C   38   -0.20505      1.99918     4.18682    0.01904     6.20505
      H   39    0.20752      0.00000     0.79112    0.00136     0.79248
      C   40   -0.20473      1.99908     4.18575    0.01991     6.20473
      H   41    0.20017      0.00000     0.79729    0.00254     0.79983
      C   42   -0.11025      1.99931     4.09146    0.01948     6.11025
      H   43    0.18414      0.00000     0.81315    0.00271     0.81586
      H   44    0.18804      0.00000     0.81038    0.00157     0.81196
      C   45   -0.09886      1.99932     4.08062    0.01892     6.09886
      H   46    0.17093      0.00000     0.82733    0.00174     0.82907
      H   47    0.18887      0.00000     0.80942    0.00171     0.81113
      N   48   -1.06153      1.99957     6.02556    0.03639     8.06153
      O   49   -0.78080      1.99983     6.75549    0.02547     8.78080
      O   50   -0.78773      1.99984     6.76325    0.02465     8.78773
      P   51    0.99484      9.99799     3.96766    0.03951    14.00516
      P   52    1.50523      9.99843     3.39911    0.09723    13.49477
 =======================================================================
   * Total *   -0.00000     65.98001   133.36054    0.65945   200.00000

 1\1\GINC-G2NODEC3\SP\RB3LYP\def2TZVP\C20H27N1O2P2\ROOT\06-Nov-2024\0\\
 # nmr=giao b3lyp/def2TZVP pop=nbo scfcyc=200\\Ligand 51b SPE NoRh\\0,1
 \C,0,-2.537,1.002,-0.395\H,0,-2.608,1.866,0.27\C,0,-3.726,0.099,-0.064
 \C,0,-4.733,-0.161,-0.995\H,0,-4.672,0.244,-1.996\C,0,-5.841,-0.936,-0
 .655\H,0,-6.612,-1.118,-1.393\C,0,-5.961,-1.465,0.624\H,0,-6.824,-2.06
 2,0.89\C,0,-4.963,-1.214,1.562\H,0,-5.045,-1.619,2.563\C,0,-3.862,-0.4
 41,1.22\H,0,-3.09,-0.271,1.959\C,0,-2.523,1.535,-1.83\H,0,-1.667,2.19,
 -1.977\H,0,-3.423,2.12,-2.024\H,0,-2.461,0.727,-2.558\C,0,-0.077,1.608

 Normal termination of Gaussian 16 at Wed Nov  6 18:34:07 2024.
