 Gaussian 16, Revision B.01,
 Gaussian 16:  ES64L-G16RevB.01 20-Dec-2017

 --------------------------------------------
 # nmr=giao b3lyp/def2TZVP pop=nbo scfcyc=200
 --------------------------------------------

 -------------------
 Ligand 57a SPE NoRh
 -------------------
 Symbolic Z-matrix:
 Charge =  0 Multiplicity = 1

                         Standard orientation:
 ---------------------------------------------------------------------
 Center     Atomic      Atomic             Coordinates (Angstroms)
 Number     Number       Type             X           Y           Z
 ---------------------------------------------------------------------
      1          6           0        0.904842    2.389998    0.272638
      2          1           0        0.223007    2.802808   -0.482551
      3          6           0        0.274041    2.696702    1.634412
      4          1           0       -0.664574    2.156720    1.733341
      5          1           0        0.051503    3.760503    1.726031
      6          1           0        0.916712    2.408332    2.464174
      7          6           0        2.255170    3.075921    0.040276
      8          6           0        3.052165    2.733793   -1.058390
      9          1           0        2.756528    1.914746   -1.700937
     10          6           0        4.244496    3.397346   -1.320844
     11          1           0        4.844666    3.103005   -2.172407
     12          6           0        4.669424    4.427921   -0.487567
     13          1           0        5.597887    4.946300   -0.689473
     14          6           0        3.894366    4.777018    0.610639
     15          1           0        4.215125    5.571335    1.272193
     16          6           0        2.701752    4.105597    0.873014
     17          1           0        2.124338    4.402302    1.736929
     18          6           0       -1.865306   -0.802328    1.004744
     19          1           0       -0.838542   -0.802243    1.377519
     20          6           0       -2.687189    0.004988    2.010690
     21          1           0       -2.396037    1.052218    1.993448
     22          1           0       -2.510008   -0.371037    3.018738
     23          1           0       -3.757560   -0.050105    1.816547
     24          6           0       -2.280439   -2.275233    0.913783
     25          6           0       -3.148001   -2.841721    1.853243
     26          1           0       -3.585719   -2.237322    2.634552
     27          6           0       -3.474248   -4.194862    1.807150
     28          1           0       -4.151754   -4.605889    2.545624
     29          6           0       -2.936539   -5.013553    0.822876
     30          1           0       -3.190918   -6.065750    0.785785
     31          6           0       -2.062884   -4.465892   -0.111254
     32          1           0       -1.628462   -5.093681   -0.880233
     33          6           0       -1.736659   -3.115953   -0.062565
     34          1           0       -1.050581   -2.711547   -0.792571
     35          6           0       -4.218619   -0.506747   -2.073098
     36          6           0       -4.984852   -1.368163   -1.057108
     37          1           0       -5.609332   -0.787650   -0.381172
     38          1           0       -4.324581   -1.994993   -0.464767
     39          1           0       -5.654354   -2.029662   -1.612908
     40          6           0       -3.452869   -1.446811   -3.023734
     41          1           0       -4.171076   -2.097677   -3.527942
     42          1           0       -2.754159   -2.082897   -2.482144
     43          1           0       -2.896664   -0.899543   -3.784686
     44          6           0       -5.220539    0.346314   -2.876106
     45          1           0       -5.882108   -0.326047   -3.429060
     46          1           0       -4.734961    0.995562   -3.605470
     47          1           0       -5.842253    0.969023   -2.235524
     48          6           0       -3.773023    2.048203   -0.411376
     49          6           0       -3.118649    3.285115   -0.378745
     50          1           0       -2.176317    3.399800   -0.902021
     51          6           0       -3.663640    4.367380    0.303596
     52          1           0       -3.140261    5.314593    0.317100
     53          6           0       -4.885181    4.234622    0.953541
     54          1           0       -5.317048    5.076109    1.479693
     55          6           0       -5.553034    3.014220    0.919591
     56          1           0       -6.505960    2.902427    1.420542
     57          6           0       -5.001773    1.929993    0.245666
     58          1           0       -5.541739    0.996672    0.249538
     59          6           0        2.078612    0.101266    0.483394
     60          1           0        2.839401    0.846079    0.706414
     61          6           0        1.834357   -0.658767    1.789066
     62          6           0        1.366137   -1.973727    1.814265
     63          1           0        1.152317   -2.492688    0.889388
     64          6           0        1.181932   -2.640120    3.021822
     65          1           0        0.814902   -3.659382    3.018225
     66          6           0        1.482621   -2.010144    4.224139
     67          1           0        1.349941   -2.533597    5.162868
     68          6           0        1.976904   -0.709212    4.211898
     69          1           0        2.237861   -0.217787    5.141343
     70          6           0        2.154654   -0.045375    3.003446
     71          1           0        2.567285    0.956491    3.007158
     72          6           0        1.775842   -1.338531   -1.531659
     73          6           0        2.634561   -0.783115   -0.617936
     74          6           0        4.029644   -1.079016   -0.725268
     75          6           0        4.999142   -0.587399    0.185043
     76          1           0        4.695226    0.034708    1.015519
     77          6           0        6.328508   -0.901324    0.044525
     78          1           0        7.047611   -0.515648    0.756197
     79          6           0        6.767475   -1.723236   -1.012726
     80          1           0        7.819025   -1.960785   -1.109560
     81          6           0        5.858084   -2.222357   -1.909443
     82          1           0        6.183533   -2.860672   -2.721599
     83          6           0        4.478782   -1.924336   -1.791274
     84          6           0        3.534481   -2.455069   -2.705710
     85          1           0        3.883326   -3.098422   -3.504627
     86          6           0        2.202481   -2.171624   -2.583165
     87          1           0        1.465421   -2.578066   -3.263606
     88          7           0        0.934096    0.928931   -0.027906
     89          7           0       -1.745017   -0.101125   -0.314849
     90          8           0        0.402029   -1.142125   -1.413223
     91         15           0       -0.259660    0.343672   -1.075639
     92         15           0       -2.920513    0.703995   -1.367926
 ---------------------------------------------------------------------

 SCF Done:  E(RB3LYP) =  -2533.24940300     A.U. after   15 cycles

      1  C    Isotropic =   120.8449   Anisotropy =    38.0104

      2  H    Isotropic =    26.2871   Anisotropy =     4.5055

      3  C    Isotropic =   160.0581   Anisotropy =    17.7858

      4  H    Isotropic =    30.6796   Anisotropy =     9.0757

      5  H    Isotropic =    30.0832   Anisotropy =     9.7873

      6  H    Isotropic =    29.9852   Anisotropy =     5.5754

      7  C    Isotropic =    33.3095   Anisotropy =   188.7385

      8  C    Isotropic =    49.3782   Anisotropy =   189.0411

      9  H    Isotropic =    24.4422   Anisotropy =     8.6134

     10  C    Isotropic =    49.1722   Anisotropy =   186.8622

     11  H    Isotropic =    24.8257   Anisotropy =     7.9278

     12  C    Isotropic =    51.4195   Anisotropy =   184.3321

     13  H    Isotropic =    24.4701   Anisotropy =     4.3987

     14  C    Isotropic =    49.8623   Anisotropy =   182.9745

     15  H    Isotropic =    24.1783   Anisotropy =     5.4991

     16  C    Isotropic =    50.8896   Anisotropy =   180.5278

     17  H    Isotropic =    24.0855   Anisotropy =    11.9930

     18  C    Isotropic =   119.6037   Anisotropy =    36.0712

     19  H    Isotropic =    27.2215   Anisotropy =    11.4695

     20  C    Isotropic =   160.2267   Anisotropy =    11.5224

     21  H    Isotropic =    31.4855   Anisotropy =     4.5917

     22  H    Isotropic =    30.9472   Anisotropy =     7.6741

     23  H    Isotropic =    30.5485   Anisotropy =     7.2183

     24  C    Isotropic =    28.9905   Anisotropy =   203.7769

     25  C    Isotropic =    51.6084   Anisotropy =   182.6026

     26  H    Isotropic =    24.6114   Anisotropy =    11.0918

     27  C    Isotropic =    50.4072   Anisotropy =   181.8133

     28  H    Isotropic =    24.3749   Anisotropy =     4.9880

     29  C    Isotropic =    52.1551   Anisotropy =   182.2156

     30  H    Isotropic =    24.3990   Anisotropy =     4.1462

     31  C    Isotropic =    49.8257   Anisotropy =   183.5729

     32  H    Isotropic =    24.0962   Anisotropy =     7.5785

     33  C    Isotropic =    46.1167   Anisotropy =   195.5926

     34  H    Isotropic =    22.8539   Anisotropy =     9.0548

     35  C    Isotropic =   137.3645   Anisotropy =    22.5091

     36  C    Isotropic =   153.8738   Anisotropy =    37.7179

     37  H    Isotropic =    30.3882   Anisotropy =     6.7308

     38  H    Isotropic =    31.6039   Anisotropy =    16.1757

     39  H    Isotropic =    31.4693   Anisotropy =     8.7681

     40  C    Isotropic =   152.5052   Anisotropy =    43.4019

     41  H    Isotropic =    31.4662   Anisotropy =     8.9399

     42  H    Isotropic =    30.1788   Anisotropy =     7.3913

     43  H    Isotropic =    30.4985   Anisotropy =     7.5163

     44  C    Isotropic =   154.7490   Anisotropy =    42.1615

     45  H    Isotropic =    31.3251   Anisotropy =    10.3952

     46  H    Isotropic =    30.8558   Anisotropy =     8.4698

     47  H    Isotropic =    30.8547   Anisotropy =     7.3354

     48  C    Isotropic =    32.5057   Anisotropy =   197.5529

     49  C    Isotropic =    41.7257   Anisotropy =   183.2524

     50  H    Isotropic =    23.7198   Anisotropy =     8.1013

     51  C    Isotropic =    50.1773   Anisotropy =   183.3549

     52  H    Isotropic =    24.3475   Anisotropy =     6.6275

     53  C    Isotropic =    50.0604   Anisotropy =   186.3536

     54  H    Isotropic =    24.4214   Anisotropy =     4.0624

     55  C    Isotropic =    51.1615   Anisotropy =   181.4759

     56  H    Isotropic =    24.4565   Anisotropy =     6.1178

     57  C    Isotropic =    43.7115   Anisotropy =   184.4977

     58  H    Isotropic =    23.5863   Anisotropy =    11.3623

     59  C    Isotropic =   120.7542   Anisotropy =    21.7843

     60  H    Isotropic =    25.9281   Anisotropy =     4.4503

     61  C    Isotropic =    29.7558   Anisotropy =   202.2922

     62  C    Isotropic =    47.5180   Anisotropy =   190.3415

     63  H    Isotropic =    24.7075   Anisotropy =     9.8085

     64  C    Isotropic =    49.5269   Anisotropy =   187.3392

     65  H    Isotropic =    25.4427   Anisotropy =     7.2905

     66  C    Isotropic =    51.7406   Anisotropy =   183.7418

     67  H    Isotropic =    24.8649   Anisotropy =     4.1906

     68  C    Isotropic =    50.2230   Anisotropy =   181.4295

     69  H    Isotropic =    24.5360   Anisotropy =     5.6009

     70  C    Isotropic =    47.0167   Anisotropy =   168.6768

     71  H    Isotropic =    24.3267   Anisotropy =     9.3173

     72  C    Isotropic =    24.0294   Anisotropy =   121.9917

     73  C    Isotropic =    49.9808   Anisotropy =   163.3293

     74  C    Isotropic =    45.9099   Anisotropy =   202.1640

     75  C    Isotropic =    56.3502   Anisotropy =   175.9727

     76  H    Isotropic =    24.6141   Anisotropy =    12.1880

     77  C    Isotropic =    52.3673   Anisotropy =   180.4884

     78  H    Isotropic =    24.5954   Anisotropy =     8.1891

     79  C    Isotropic =    55.3574   Anisotropy =   176.0739

     80  H    Isotropic =    24.4271   Anisotropy =     4.5252

     81  C    Isotropic =    49.2530   Anisotropy =   161.1699

     82  H    Isotropic =    23.8481   Anisotropy =     7.4245

     83  C    Isotropic =    46.1244   Anisotropy =   210.3995

     84  C    Isotropic =    48.4427   Anisotropy =   157.6333

     85  H    Isotropic =    23.7459   Anisotropy =     7.1448

     86  C    Isotropic =    58.7921   Anisotropy =   147.4619

     87  H    Isotropic =    23.9702   Anisotropy =     8.4976

     88  N    Isotropic =   134.4718   Anisotropy =    62.8475

     89  N    Isotropic =    93.5158   Anisotropy =    71.1508

     90  O    Isotropic =   160.4103   Anisotropy =    94.0862

     91  P    Isotropic =   120.2324   Anisotropy =   284.8223

     92  P    Isotropic =   184.9636   Anisotropy =    96.9766

 The electronic state is 1-A.
 Alpha  occ. eigenvalues --  -77.10025 -77.05574 -19.15072 -14.32041 -14.31629
 Alpha  occ. eigenvalues --  -10.23779 -10.22313 -10.22153 -10.21452 -10.19116
 Alpha  occ. eigenvalues --  -10.18875 -10.18765 -10.18639 -10.18579 -10.18475
 Alpha  occ. eigenvalues --  -10.18265 -10.18204 -10.18138 -10.17966 -10.17891
 Alpha  occ. eigenvalues --  -10.17862 -10.17830 -10.17822 -10.17805 -10.17771
 Alpha  occ. eigenvalues --  -10.17739 -10.17737 -10.17728 -10.17669 -10.17643
 Alpha  occ. eigenvalues --  -10.17624 -10.17601 -10.17554 -10.17541 -10.17523
 Alpha  occ. eigenvalues --  -10.17426 -10.17405 -10.17355 -10.17338 -10.17270
 Alpha  occ. eigenvalues --  -10.17209 -10.17182 -10.16613 -10.16250 -10.16060
 Alpha  occ. eigenvalues --  -10.15745 -10.15298 -10.15124  -6.57558  -6.53817
 Alpha  occ. eigenvalues --   -4.73838  -4.73668  -4.73185  -4.70073  -4.69881
 Alpha  occ. eigenvalues --   -4.69441  -1.05425  -0.92025  -0.89429  -0.87912
 Alpha  occ. eigenvalues --   -0.86344  -0.86050  -0.85733  -0.85274  -0.82672
 Alpha  occ. eigenvalues --   -0.80735  -0.80206  -0.77880  -0.77126  -0.75935
 Alpha  occ. eigenvalues --   -0.75315  -0.75171  -0.75045  -0.74953  -0.74547
 Alpha  occ. eigenvalues --   -0.74420  -0.73286  -0.72690  -0.72149  -0.68428
 Alpha  occ. eigenvalues --   -0.68110  -0.67953  -0.65435  -0.64943  -0.63424
 Alpha  occ. eigenvalues --   -0.62793  -0.61742  -0.61168  -0.60930  -0.60725
 Alpha  occ. eigenvalues --   -0.60329  -0.60228  -0.59301  -0.58807  -0.58392
 Alpha  occ. eigenvalues --   -0.56875  -0.55308  -0.53354  -0.53141  -0.53122
 Alpha  occ. eigenvalues --   -0.52139  -0.51992  -0.51484  -0.50125  -0.49735
 Alpha  occ. eigenvalues --   -0.49018  -0.47767  -0.47138  -0.46671  -0.46458
 Alpha  occ. eigenvalues --   -0.46302  -0.45972  -0.45721  -0.45595  -0.45301
 Alpha  occ. eigenvalues --   -0.45102  -0.44636  -0.44498  -0.44142  -0.44029
 Alpha  occ. eigenvalues --   -0.43891  -0.43325  -0.43247  -0.43173  -0.42486
 Alpha  occ. eigenvalues --   -0.42360  -0.42241  -0.42179  -0.41914  -0.41495
 Alpha  occ. eigenvalues --   -0.41277  -0.40954  -0.40115  -0.39292  -0.39064
 Alpha  occ. eigenvalues --   -0.39009  -0.38659  -0.38415  -0.38293  -0.37932
 Alpha  occ. eigenvalues --   -0.37725  -0.37233  -0.37131  -0.36981  -0.36839
 Alpha  occ. eigenvalues --   -0.36284  -0.36165  -0.35697  -0.35620  -0.35172
 Alpha  occ. eigenvalues --   -0.35011  -0.34856  -0.34569  -0.34358  -0.34198
 Alpha  occ. eigenvalues --   -0.33805  -0.33383  -0.33171  -0.32681  -0.32380
 Alpha  occ. eigenvalues --   -0.32179  -0.31103  -0.28990  -0.27240  -0.26492
 Alpha  occ. eigenvalues --   -0.26118  -0.26025  -0.25955  -0.25845  -0.25732
 Alpha  occ. eigenvalues --   -0.25518  -0.25273  -0.24754  -0.24231  -0.22661
 Alpha  occ. eigenvalues --   -0.21425  -0.17891
 Alpha virt. eigenvalues --   -0.04905  -0.03206  -0.02345  -0.02265  -0.01945
 Alpha virt. eigenvalues --   -0.01780  -0.01579  -0.01487  -0.01242  -0.01026
 Alpha virt. eigenvalues --    0.01769   0.02437   0.02846   0.03761   0.04246

 Mulliken charges:
               1
     1  C    0.086466
     2  H    0.075140
     3  C   -0.348687
     4  H    0.121092
     5  H    0.113482
     6  H    0.109477
     7  C    0.040664
     8  C   -0.164055
     9  H    0.140762
    10  C   -0.096912
    11  H    0.111011
    12  C   -0.117503
    13  H    0.107961
    14  C   -0.112900
    15  H    0.106402
    16  C   -0.221437
    17  H    0.119537
    18  C    0.051970
    19  H    0.108719
    20  C   -0.407338
    21  H    0.140573
    22  H    0.132081
    23  H    0.124633
    24  C    0.048838
    25  C   -0.169269
    26  H    0.112552
    27  C   -0.113170
    28  H    0.104542
    29  C   -0.122361
    30  H    0.105156
    31  C   -0.096666
    32  H    0.104891
    33  C   -0.235874
    34  H    0.191548
    35  C    0.092292
    36  C   -0.371996
    37  H    0.094423
    38  H    0.171324
    39  H    0.093092
    40  C   -0.368724
    41  H    0.101106
    42  H    0.124309
    43  H    0.121325
    44  C   -0.369550
    45  H    0.105525
    46  H    0.122810
    47  H    0.123321
    48  C    0.055368
    49  C   -0.148349
    50  H    0.134260
    51  C   -0.135108
    52  H    0.108126
    53  C   -0.089536
    54  H    0.109121
    55  C   -0.138204
    56  H    0.106234
    57  C   -0.158259
    58  H    0.120262
    59  C   -0.008909
    60  H    0.114845
    61  C    0.072885
    62  C   -0.234093
    63  H    0.139685
    64  C   -0.072819
    65  H    0.115645
    66  C   -0.133839
    67  H    0.107415
    68  C   -0.098096
    69  H    0.105358
    70  C   -0.248886
    71  H    0.131617
    72  C    0.328755
    73  C    0.024303
    74  C    0.078738
    75  C   -0.191792
    76  H    0.116294
    77  C   -0.101952
    78  H    0.106865
    79  C   -0.117267
    80  H    0.105490
    81  C   -0.149140
    82  H    0.099483
    83  C    0.096264
    84  C   -0.153078
    85  H    0.099707
    86  C   -0.285343
    87  H    0.114025
    88  N   -0.157192
    89  N   -0.263375
    90  O   -0.373581
    91  P    0.348938
    92  P    0.128547
 Sum of Mulliken charges =  -0.00000

 Dipole moment (field-independent basis, Debye):
    X=              0.2234    Y=              0.1662    Z=              2.2743  Tot=              2.2913
 Quadrupole moment (field-independent basis, Debye-Ang):
   XX=           -283.3457   YY=           -287.6114   ZZ=           -293.0175
   XY=              3.8493   XZ=             -7.6348   YZ=             11.8936

 Summary of Natural Population Analysis:

                                       Natural Population
                Natural  -----------------------------------------------
    Atom  No    Charge         Core      Valence    Rydberg      Total
 -----------------------------------------------------------------------
      C    1   -0.04984      1.99924     4.03034    0.02026     6.04984
      H    2    0.21612      0.00000     0.78061    0.00327     0.78388
      C    3   -0.60287      1.99941     4.59064    0.01282     6.60287
      H    4    0.21574      0.00000     0.78329    0.00097     0.78426
      H    5    0.20511      0.00000     0.79372    0.00117     0.79489
      H    6    0.20299      0.00000     0.79560    0.00141     0.79701
      C    7   -0.04024      1.99904     4.01909    0.02212     6.04024
      C    8   -0.20206      1.99908     4.18478    0.01819     6.20206
      H    9    0.22027      0.00000     0.77811    0.00162     0.77973
      C   10   -0.19409      1.99919     4.17649    0.01841     6.19409
      H   11    0.21094      0.00000     0.78782    0.00124     0.78906
      C   12   -0.20881      1.99918     4.19058    0.01904     6.20881
      H   13    0.20823      0.00000     0.79059    0.00118     0.79177
      C   14   -0.20112      1.99920     4.18262    0.01930     6.20112
      H   15    0.20696      0.00000     0.79180    0.00123     0.79304
      C   16   -0.21267      1.99910     4.19554    0.01804     6.21267
      H   17    0.20885      0.00000     0.78965    0.00151     0.79115
      C   18   -0.07986      1.99923     4.05426    0.02637     6.07986
      H   19    0.22338      0.00000     0.77330    0.00332     0.77662
      C   20   -0.59907      1.99942     4.58698    0.01267     6.59907
      H   21    0.21370      0.00000     0.78449    0.00181     0.78630
      H   22    0.21082      0.00000     0.78807    0.00110     0.78918
      H   23    0.20440      0.00000     0.79391    0.00169     0.79560
      C   24   -0.02718      1.99902     4.00544    0.02272     6.02718
      C   25   -0.21370      1.99909     4.19614    0.01846     6.21370
      H   26    0.20907      0.00000     0.78948    0.00145     0.79093
      C   27   -0.20264      1.99919     4.18419    0.01926     6.20264
      H   28    0.20630      0.00000     0.79248    0.00122     0.79370
      C   29   -0.21293      1.99918     4.19454    0.01922     6.21293
      H   30    0.20729      0.00000     0.79152    0.00119     0.79271
      C   31   -0.20030      1.99919     4.18257    0.01854     6.20030
      H   32    0.20677      0.00000     0.79200    0.00123     0.79323
      C   33   -0.21684      1.99906     4.19762    0.02016     6.21684
      H   34    0.23350      0.00000     0.76413    0.00236     0.76650
      C   35   -0.29052      1.99945     4.26406    0.02701     6.29052
      C   36   -0.60105      1.99935     4.58871    0.01300     6.60105
      H   37    0.18962      0.00000     0.80916    0.00122     0.81038
      H   38    0.22156      0.00000     0.77696    0.00149     0.77844
      H   39    0.19585      0.00000     0.80193    0.00222     0.80415
      C   40   -0.60179      1.99937     4.59064    0.01177     6.60179
      H   41    0.20077      0.00000     0.79730    0.00193     0.79923
      H   42    0.21481      0.00000     0.78402    0.00117     0.78519
      H   43    0.21309      0.00000     0.78565    0.00126     0.78691
      C   44   -0.60380      1.99937     4.59281    0.01162     6.60380
      H   45    0.20479      0.00000     0.79325    0.00195     0.79521
      H   46    0.21354      0.00000     0.78502    0.00143     0.78646
      H   47    0.20875      0.00000     0.79004    0.00121     0.79125
      C   48   -0.34617      1.99896     4.31412    0.03309     6.34617
      C   49   -0.19331      1.99910     4.17428    0.01993     6.19331
      H   50    0.21320      0.00000     0.78481    0.00199     0.78680
      C   51   -0.20634      1.99918     4.18844    0.01873     6.20634
      H   52    0.20888      0.00000     0.78982    0.00130     0.79112
      C   53   -0.20116      1.99919     4.18267    0.01931     6.20116
      H   54    0.20820      0.00000     0.79061    0.00119     0.79180
      C   55   -0.20557      1.99918     4.18759    0.01880     6.20557
      H   56    0.20700      0.00000     0.79167    0.00133     0.79300
      C   57   -0.20191      1.99908     4.18285    0.01998     6.20191
      H   58    0.20187      0.00000     0.79551    0.00261     0.79813
      C   59   -0.09047      1.99911     4.06478    0.02658     6.09047
      H   60    0.23120      0.00000     0.76532    0.00348     0.76880
      C   61   -0.03144      1.99899     4.01142    0.02104     6.03144
      C   62   -0.20882      1.99906     4.19121    0.01856     6.20882
      H   63    0.22048      0.00000     0.77734    0.00218     0.77952
      C   64   -0.19537      1.99919     4.17722    0.01895     6.19537
      H   65    0.21311      0.00000     0.78564    0.00125     0.78689
      C   66   -0.20815      1.99919     4.18993    0.01904     6.20815
      H   67    0.20847      0.00000     0.79039    0.00114     0.79153
      C   68   -0.20058      1.99919     4.18283    0.01857     6.20058
      H   69    0.20781      0.00000     0.79096    0.00123     0.79219
      C   70   -0.20820      1.99908     4.19054    0.01858     6.20820
      H   71    0.20203      0.00000     0.79598    0.00199     0.79797
      C   72    0.27879      1.99859     3.69909    0.02354     5.72121
      C   73   -0.05825      1.99882     4.03945    0.01999     6.05825
      C   74   -0.03436      1.99901     4.01628    0.01907     6.03436
      C   75   -0.19193      1.99911     4.17508    0.01774     6.19193
      H   76    0.20757      0.00000     0.79088    0.00155     0.79243
      C   77   -0.19329      1.99919     4.17581    0.01829     6.19329
      H   78    0.20803      0.00000     0.79077    0.00120     0.79197
      C   79   -0.21607      1.99918     4.19757    0.01932     6.21607
      H   80    0.20856      0.00000     0.79029    0.00114     0.79144
      C   81   -0.17030      1.99913     4.15291    0.01826     6.17030
      H   82    0.20510      0.00000     0.79347    0.00142     0.79490
      C   83   -0.06931      1.99908     4.05105    0.01918     6.06931
      C   84   -0.16167      1.99914     4.14464    0.01790     6.16167
      H   85    0.20820      0.00000     0.79047    0.00133     0.79180
      C   86   -0.23281      1.99906     4.21424    0.01951     6.23281
      H   87    0.22333      0.00000     0.77547    0.00120     0.77667
      N   88   -0.78353      1.99950     5.75520    0.02883     7.78353
      N   89   -1.04541      1.99956     6.01173    0.03413     8.04541
      O   90   -0.77791      1.99978     6.75361    0.02452     8.77791
      P   91    1.47637      9.99788     3.44422    0.08153    13.52363
      P   92    0.98228      9.99796     3.98120    0.03856    14.01772
 =======================================================================
   * Total *    0.00000    111.95782   240.93127    1.11091   354.00000

 1\1\GINC-G1NODEC6\SP\RB3LYP\def2TZVP\C43H44N2O1P2\ROOT\02-Jan-2001\0\\
 # nmr=giao b3lyp/def2TZVP pop=nbo scfcyc=200\\Ligand 57a SPE NoRh\\0,1
 \C,0,-1.001,-1.035,2.043\H,0,-0.129,-1.634,1.749\C,0,-0.601,-0.293,3.3
 22\H,0,0.2,0.409,3.103\H,0,-0.229,-0.991,4.073\H,0,-1.429,0.266,3.754\
 C,0,-2.151,-2.03,2.231\C,0,-2.768,-2.628,1.126\H,0,-2.493,-2.319,0.126
 \C,0,-3.763,-3.585,1.284\H,0,-4.229,-4.022,0.41\C,0,-4.165,-3.972,2.55
 9\H,0,-4.94,-4.717,2.685\C,0,-3.568,-3.385,3.667\H,0,-3.875,-3.67,4.66
 5\C,0,-2.574,-2.422,3.504\H,0,-2.132,-1.985,4.388\C,0,1.017,2.516,0.73

 Normal termination of Gaussian 16 at Tue Jan  2 12:45:58 2001.
