 Gaussian 16, Revision B.01,
 Gaussian 16:  ES64L-G16RevB.01 20-Dec-2017

 --------------------------------------------
 # nmr=giao b3lyp/def2TZVP pop=nbo scfcyc=200
 --------------------------------------------

 ------------------
 Ligand 58 SPE NoRh
 ------------------
 Symbolic Z-matrix:
 Charge =  0 Multiplicity = 1

                         Standard orientation:
 ---------------------------------------------------------------------
 Center     Atomic      Atomic             Coordinates (Angstroms)
 Number     Number       Type             X           Y           Z
 ---------------------------------------------------------------------
      1         15           0       -2.454917   -0.134121   -0.411127
      2         15           0        0.253923    0.601103   -0.862256
      3          6           0       -3.828870    0.957971    1.905288
      4          1           0       -2.870733    1.248841    2.337434
      5          1           0       -4.101135   -0.013898    2.309700
      6          1           0       -4.569927    1.678151    2.261266
      7          6           0       -3.820634    0.986582    0.367828
      8          6           0       -5.206351    0.579406   -0.157884
      9          1           0       -5.933752    1.339372    0.138322
     10          1           0       -5.544682   -0.367434    0.260190
     11          1           0       -5.238592    0.505993   -1.246351
     12          6           0       -3.519599    2.426494   -0.087628
     13          1           0       -3.501415    2.523201   -1.172168
     14          1           0       -2.567110    2.792771    0.297053
     15          1           0       -4.297822    3.088443    0.301572
     16          6           0       -2.777036   -2.008440   -0.107009
     17          6           0       -3.893085   -2.505047   -1.042056
     18          1           0       -4.849947   -2.018719   -0.866574
     19          1           0       -4.035516   -3.575746   -0.876387
     20          1           0       -3.625932   -2.374766   -2.091423
     21          6           0       -3.137935   -2.331221    1.349560
     22          1           0       -2.419765   -1.923352    2.062609
     23          1           0       -3.138174   -3.417288    1.478927
     24          1           0       -4.132269   -1.976759    1.617829
     25          6           0       -1.484541   -2.753029   -0.482736
     26          1           0       -1.168201   -2.533804   -1.502921
     27          1           0       -1.672463   -3.828298   -0.416544
     28          1           0       -0.655166   -2.530005    0.188394
     29          6           0       -0.901655    0.275163    0.574877
     30          1           0       -1.047973    1.179453    1.162011
     31          1           0       -0.559955   -0.508375    1.247962
     32          6           0        1.197654    2.155093   -0.542629
     33          6           0        0.619825    3.244516    0.115983
     34          1           0       -0.381908    3.180616    0.520761
     35          6           0        1.325389    4.433881    0.264683
     36          1           0        0.870272    5.265699    0.787124
     37          6           0        2.610480    4.554818   -0.254993
     38          1           0        3.158349    5.479990   -0.138301
     39          6           0        3.186481    3.479804   -0.923806
     40          1           0        4.187239    3.565477   -1.328535
     41          6           0        2.485907    2.287901   -1.069926
     42          1           0        2.955784    1.455796   -1.578948
     43          6           0        1.511379   -0.746629   -0.871967
     44          6           0        2.351685   -1.046572    0.251664
     45          6           0        1.604815   -1.502297   -2.022009
     46          6           0        2.342139   -0.321518    1.470191
     47          6           0        3.258829   -2.150260    0.139463
     48          6           0        2.511866   -2.575689   -2.127869
     49          1           0        0.955994   -1.277785   -2.857987
     50          6           0        3.164101   -0.670101    2.513993
     51          1           0        1.696002    0.537575    1.580698
     52          6           0        4.092356   -2.482138    1.236257
     53          6           0        3.315566   -2.892289   -1.066500
     54          1           0        2.561297   -3.146226   -3.045870
     55          6           0        4.046211   -1.762508    2.401623
     56          1           0        3.139363   -0.094781    3.430796
     57          1           0        4.773481   -3.318327    1.134483
     58          1           0        4.011151   -3.720331   -1.133181
     59          1           0        4.688538   -2.023583    3.232410
 ---------------------------------------------------------------------

 SCF Done:  E(RB3LYP) =  -1655.03512840     A.U. after   15 cycles

      1  P    Isotropic =   186.5394   Anisotropy =   102.6519

      2  P    Isotropic =   246.3244   Anisotropy =    81.2075

      3  C    Isotropic =   155.2973   Anisotropy =    38.0869

      4  H    Isotropic =    30.4492   Anisotropy =     5.1035

      5  H    Isotropic =    30.3838   Anisotropy =     6.1551

      6  H    Isotropic =    31.0131   Anisotropy =     9.8318

      7  C    Isotropic =   139.1844   Anisotropy =    20.8782

      8  C    Isotropic =   153.4452   Anisotropy =    37.5368

      9  H    Isotropic =    31.0875   Anisotropy =     9.5851

     10  H    Isotropic =    30.7337   Anisotropy =     7.1546

     11  H    Isotropic =    30.5222   Anisotropy =     7.6887

     12  C    Isotropic =   149.9119   Anisotropy =    46.6347

     13  H    Isotropic =    30.3741   Anisotropy =     7.1830

     14  H    Isotropic =    30.3550   Anisotropy =     8.1191

     15  H    Isotropic =    31.1489   Anisotropy =     9.1740

     16  C    Isotropic =   142.3159   Anisotropy =    16.3526

     17  C    Isotropic =   152.5337   Anisotropy =    44.8317

     18  H    Isotropic =    30.5714   Anisotropy =     7.7113

     19  H    Isotropic =    31.3643   Anisotropy =     9.6972

     20  H    Isotropic =    30.7195   Anisotropy =     7.9021

     21  C    Isotropic =   154.6664   Anisotropy =    33.9377

     22  H    Isotropic =    30.9562   Anisotropy =     4.5383

     23  H    Isotropic =    31.3977   Anisotropy =     9.4600

     24  H    Isotropic =    30.6787   Anisotropy =     7.4539

     25  C    Isotropic =   150.0819   Anisotropy =    43.7864

     26  H    Isotropic =    31.1929   Anisotropy =     9.4477

     27  H    Isotropic =    31.8708   Anisotropy =     7.3235

     28  H    Isotropic =    32.2945   Anisotropy =    12.2588

     29  C    Isotropic =   159.9416   Anisotropy =    21.4434

     30  H    Isotropic =    29.7495   Anisotropy =     6.5049

     31  H    Isotropic =    29.6394   Anisotropy =     6.0191

     32  C    Isotropic =    28.7061   Anisotropy =   200.0121

     33  C    Isotropic =    53.1278   Anisotropy =   178.5324

     34  H    Isotropic =    23.9746   Anisotropy =    10.2546

     35  C    Isotropic =    50.3667   Anisotropy =   182.8520

     36  H    Isotropic =    24.3319   Anisotropy =     6.3780

     37  C    Isotropic =    54.0294   Anisotropy =   178.6184

     38  H    Isotropic =    24.7266   Anisotropy =     3.6850

     39  C    Isotropic =    49.3910   Anisotropy =   184.0134

     40  H    Isotropic =    24.8028   Anisotropy =     6.6628

     41  C    Isotropic =    50.5547   Anisotropy =   181.6154

     42  H    Isotropic =    25.2139   Anisotropy =    13.5993

     43  C    Isotropic =    39.2795   Anisotropy =   180.5464

     44  C    Isotropic =    41.9664   Anisotropy =   209.7526

     45  C    Isotropic =    38.1574   Anisotropy =   177.2260

     46  C    Isotropic =    48.3186   Anisotropy =   177.9077

     47  C    Isotropic =    40.6230   Anisotropy =   218.9806

     48  C    Isotropic =    54.3745   Anisotropy =   175.2397

     49  H    Isotropic =    23.3523   Anisotropy =     8.8463

     50  C    Isotropic =    52.0551   Anisotropy =   179.5308

     51  H    Isotropic =    23.7728   Anisotropy =    11.1679

     52  C    Isotropic =    48.0184   Anisotropy =   162.5557

     53  C    Isotropic =    45.5261   Anisotropy =   164.8512

     54  H    Isotropic =    24.1177   Anisotropy =     5.4568

     55  C    Isotropic =    53.2552   Anisotropy =   179.3562

     56  H    Isotropic =    24.3158   Anisotropy =     8.2419

     57  H    Isotropic =    23.7062   Anisotropy =     6.8150

     58  H    Isotropic =    23.6401   Anisotropy =     6.5104

     59  H    Isotropic =    24.2117   Anisotropy =     4.9544

 The electronic state is 1-A.
 Alpha  occ. eigenvalues --  -77.04655 -77.03533 -10.19328 -10.19134 -10.19097
 Alpha  occ. eigenvalues --  -10.19044 -10.18691 -10.18482 -10.18333 -10.18247
 Alpha  occ. eigenvalues --  -10.18155 -10.18130 -10.18103 -10.18067 -10.18011
 Alpha  occ. eigenvalues --  -10.17828 -10.17499 -10.17406 -10.17276 -10.17144
 Alpha  occ. eigenvalues --  -10.17023 -10.16271 -10.16189 -10.16045 -10.15952
 Alpha  occ. eigenvalues --  -10.15926 -10.15879  -6.53212  -6.52057  -4.69361
 Alpha  occ. eigenvalues --   -4.69333  -4.68849  -4.68228  -4.68142  -4.67683
 Alpha  occ. eigenvalues --   -0.88268  -0.85572  -0.83085  -0.82015  -0.80483
 Alpha  occ. eigenvalues --   -0.78658  -0.75594  -0.74927  -0.74662  -0.73150
 Alpha  occ. eigenvalues --   -0.72358  -0.69287  -0.69074  -0.68478  -0.68414
 Alpha  occ. eigenvalues --   -0.63949  -0.62564  -0.62063  -0.60721  -0.59919
 Alpha  occ. eigenvalues --   -0.59478  -0.55397  -0.54945  -0.52245  -0.51635
 Alpha  occ. eigenvalues --   -0.51000  -0.50441  -0.49762  -0.47013  -0.45645
 Alpha  occ. eigenvalues --   -0.45375  -0.45192  -0.45058  -0.44515  -0.44349
 Alpha  occ. eigenvalues --   -0.44099  -0.43343  -0.43067  -0.42689  -0.42363
 Alpha  occ. eigenvalues --   -0.42048  -0.40973  -0.40253  -0.40051  -0.39778
 Alpha  occ. eigenvalues --   -0.39163  -0.39007  -0.38418  -0.38090  -0.37393
 Alpha  occ. eigenvalues --   -0.37285  -0.36768  -0.36500  -0.35216  -0.34832
 Alpha  occ. eigenvalues --   -0.34639  -0.34551  -0.34120  -0.33804  -0.33384
 Alpha  occ. eigenvalues --   -0.32974  -0.31985  -0.30686  -0.29303  -0.28354
 Alpha  occ. eigenvalues --   -0.26809  -0.25751  -0.25483  -0.23007  -0.21549
 Alpha  occ. eigenvalues --   -0.18371
 Alpha virt. eigenvalues --   -0.05967  -0.02779  -0.01726  -0.01422   0.00186
 Alpha virt. eigenvalues --    0.02012   0.02579   0.03821   0.04338   0.04648
 Alpha virt. eigenvalues --    0.05230   0.05309   0.06106   0.06891   0.07040

 Mulliken charges:
               1
     1  P    0.116241
     2  P    0.171991
     3  C   -0.342962
     4  H    0.107830
     5  H    0.113245
     6  H    0.099014
     7  C    0.072330
     8  C   -0.387002
     9  H    0.108475
    10  H    0.107710
    11  H    0.129182
    12  C   -0.344861
    13  H    0.128455
    14  H    0.093252
    15  H    0.105193
    16  C    0.098411
    17  C   -0.358150
    18  H    0.114920
    19  H    0.103843
    20  H    0.118639
    21  C   -0.366408
    22  H    0.119028
    23  H    0.102707
    24  H    0.103927
    25  C   -0.381637
    26  H    0.117749
    27  H    0.109237
    28  H    0.124468
    29  C   -0.418191
    30  H    0.117866
    31  H    0.139970
    32  C    0.003149
    33  C   -0.122116
    34  H    0.089874
    35  C   -0.148502
    36  H    0.103697
    37  C   -0.096339
    38  H    0.105158
    39  C   -0.136183
    40  H    0.105561
    41  C   -0.137051
    42  H    0.131243
    43  C   -0.051275
    44  C    0.013753
    45  C   -0.076066
    46  C   -0.160531
    47  C    0.077876
    48  C   -0.122144
    49  H    0.120533
    50  C   -0.090052
    51  H    0.154389
    52  C   -0.143815
    53  C   -0.156844
    54  H    0.109210
    55  C   -0.117769
    56  H    0.109412
    57  H    0.100116
    58  H    0.102139
    59  H    0.108104
 Sum of Mulliken charges =  -0.00000

 Dipole moment (field-independent basis, Debye):
    X=              0.3320    Y=             -1.1677    Z=              1.7646  Tot=              2.1419
 Quadrupole moment (field-independent basis, Debye-Ang):
   XX=           -171.8273   YY=           -173.3862   ZZ=           -180.4056
   XY=             -4.6852   XZ=             -2.1048   YZ=              6.2354

 Summary of Natural Population Analysis:

                                       Natural Population
                Natural  -----------------------------------------------
    Atom  No    Charge         Core      Valence    Rydberg      Total
 -----------------------------------------------------------------------
      P    1    0.78599      9.99844     4.18578    0.02979    14.21401
      P    2    0.84092      9.99811     4.12800    0.03297    14.15908
      C    3   -0.60363      1.99936     4.59206    0.01221     6.60363
      H    4    0.19741      0.00000     0.80109    0.00149     0.80259
      H    5    0.20524      0.00000     0.79340    0.00136     0.79476
      H    6    0.19584      0.00000     0.80184    0.00232     0.80416
      C    7   -0.26967      1.99946     4.24558    0.02463     6.26967
      C    8   -0.60207      1.99937     4.59062    0.01209     6.60207
      H    9    0.20214      0.00000     0.79576    0.00210     0.79786
      H   10    0.20006      0.00000     0.79845    0.00149     0.79994
      H   11    0.21250      0.00000     0.78597    0.00154     0.78750
      C   12   -0.59935      1.99937     4.58766    0.01231     6.59935
      H   13    0.21743      0.00000     0.78123    0.00134     0.78257
      H   14    0.19506      0.00000     0.80367    0.00127     0.80494
      H   15    0.20167      0.00000     0.79624    0.00209     0.79833
      C   16   -0.27277      1.99945     4.24870    0.02462     6.27277
      C   17   -0.60075      1.99937     4.58907    0.01231     6.60075
      H   18    0.20476      0.00000     0.79394    0.00131     0.79524
      H   19    0.19973      0.00000     0.79825    0.00202     0.80027
      H   20    0.21221      0.00000     0.78634    0.00146     0.78779
      C   21   -0.60288      1.99937     4.59130    0.01222     6.60288
      H   22    0.20198      0.00000     0.79663    0.00138     0.79802
      H   23    0.19709      0.00000     0.80058    0.00233     0.80291
      H   24    0.19877      0.00000     0.79972    0.00152     0.80123
      C   25   -0.60339      1.99937     4.59078    0.01324     6.60339
      H   26    0.21436      0.00000     0.78421    0.00144     0.78564
      H   27    0.20417      0.00000     0.79373    0.00210     0.79583
      H   28    0.20502      0.00000     0.79359    0.00139     0.79498
      C   29   -1.02794      1.99944     4.99694    0.03156     7.02794
      H   30    0.24416      0.00000     0.75344    0.00239     0.75584
      H   31    0.24298      0.00000     0.75403    0.00299     0.75702
      C   32   -0.31735      1.99899     4.28711    0.03126     6.31735
      C   33   -0.22202      1.99907     4.20348    0.01947     6.22202
      H   34    0.19504      0.00000     0.80207    0.00289     0.80496
      C   35   -0.19481      1.99919     4.17686    0.01877     6.19481
      H   36    0.20647      0.00000     0.79225    0.00128     0.79353
      C   37   -0.22004      1.99919     4.20119    0.01966     6.22004
      H   38    0.20704      0.00000     0.79179    0.00118     0.79296
      C   39   -0.19188      1.99918     4.17413    0.01856     6.19188
      H   40    0.20741      0.00000     0.79131    0.00128     0.79259
      C   41   -0.21024      1.99908     4.19159    0.01957     6.21024
      H   42    0.21272      0.00000     0.78553    0.00174     0.78728
      C   43   -0.30671      1.99895     4.27623    0.03154     6.30671
      C   44   -0.05876      1.99898     4.03645    0.02333     6.05876
      C   45   -0.18263      1.99910     4.16254    0.02099     6.18263
      C   46   -0.18862      1.99910     4.17095    0.01857     6.18862
      C   47   -0.06397      1.99907     4.04468    0.02022     6.06397
      C   48   -0.21268      1.99917     4.19403    0.01948     6.21268
      H   49    0.22116      0.00000     0.77730    0.00154     0.77884
      C   50   -0.19610      1.99919     4.17827    0.01863     6.19610
      H   51    0.21724      0.00000     0.78018    0.00258     0.78276
      C   52   -0.17433      1.99913     4.15673    0.01846     6.17433
      C   53   -0.16096      1.99913     4.14354    0.01829     6.16096
      H   54    0.21181      0.00000     0.78703    0.00116     0.78819
      C   55   -0.20568      1.99918     4.18733    0.01916     6.20568
      H   56    0.20927      0.00000     0.78951    0.00122     0.79073
      H   57    0.20557      0.00000     0.79299    0.00144     0.79443
      H   58    0.20642      0.00000     0.79214    0.00143     0.79358
      H   59    0.20958      0.00000     0.78929    0.00113     0.79042
 =======================================================================
   * Total *    0.00000     69.97681   141.41508    0.60811   212.00000

 Normal termination of Gaussian 16 at Wed Nov  6 19:15:09 2024.
