 Gaussian 16, Revision B.01,
 Gaussian 16:  ES64L-G16RevB.01 20-Dec-2017

 --------------------------------------------
 # nmr=giao b3lyp/def2TZVP pop=nbo scfcyc=200
 --------------------------------------------

 ------------------
 Ligand 72 SPE NoRh
 ------------------
 Symbolic Z-matrix:
 Charge =  0 Multiplicity = 1

                         Standard orientation:
 ---------------------------------------------------------------------
 Center     Atomic      Atomic             Coordinates (Angstroms)
 Number     Number       Type             X           Y           Z
 ---------------------------------------------------------------------
      1         15           0       -1.153291    0.629036   -1.265058
      2         15           0        1.551501    0.275980   -1.126430
      3          7           0        0.103116    0.303647   -0.087763
      4          6           0       -2.352484   -0.764583   -1.303359
      5          6           0       -3.474320   -0.805169   -0.468436
      6          1           0       -3.660277   -0.004495    0.234815
      7          6           0       -4.358133   -1.875716   -0.539759
      8          1           0       -5.227323   -1.897461    0.105127
      9          6           0       -4.129431   -2.916870   -1.435860
     10          1           0       -4.822618   -3.746768   -1.490233
     11          6           0       -3.012755   -2.885662   -2.266154
     12          1           0       -2.835988   -3.689398   -2.969003
     13          6           0       -2.131853   -1.811815   -2.203922
     14          1           0       -1.274718   -1.776700   -2.865834
     15          6           0       -2.164826    2.066184   -0.719311
     16          6           0       -1.775598    2.920383    0.312297
     17          1           0       -0.894836    2.700828    0.894670
     18          6           0       -2.533898    4.046722    0.618221
     19          1           0       -2.227860    4.692652    1.430246
     20          6           0       -3.681350    4.338429   -0.110943
     21          1           0       -4.269131    5.215327    0.128574
     22          6           0       -4.073878    3.494398   -1.145502
     23          1           0       -4.969604    3.711387   -1.713893
     24          6           0       -3.322891    2.366126   -1.449237
     25          1           0       -3.654706    1.710725   -2.246101
     26          6           0        2.368759   -1.372819   -1.026950
     27          6           0        3.290657   -1.725373   -0.034758
     28          1           0        3.586503   -1.008852    0.718810
     29          6           0        3.838452   -3.002890   -0.006250
     30          1           0        4.551527   -3.263030    0.766695
     31          6           0        3.475343   -3.943230   -0.965067
     32          1           0        3.905734   -4.936287   -0.941337
     33          6           0        2.560618   -3.603025   -1.956999
     34          1           0        2.279303   -4.329387   -2.709553
     35          6           0        2.014609   -2.325529   -1.989606
     36          1           0        1.306759   -2.061296   -2.766150
     37          6           0        2.786943    1.509816   -0.538838
     38          6           0        2.339898    2.757333   -0.087197
     39          1           0        1.281151    2.951428    0.007669
     40          6           0        3.247463    3.761257    0.226033
     41          1           0        2.887097    4.716891    0.585199
     42          6           0        4.613334    3.543399    0.068495
     43          1           0        5.320431    4.326550    0.311118
     44          6           0        5.065705    2.320369   -0.413145
     45          1           0        6.125485    2.147498   -0.551571
     46          6           0        4.159382    1.308729   -0.719453
     47          1           0        4.533405    0.368663   -1.100554
     48          6           0        0.088554   -1.470719    1.640253
     49          6           0        0.413158    0.812924    2.299408
     50          6           0        1.124598   -1.422763    2.797712
     51          1           0        0.484682   -2.005132    0.777455
     52          6           0        1.596861    0.036694    2.878027
     53          1           0       -0.358007    0.952759    3.060329
     54          1           0        0.686720    1.782354    1.895628
     55          1           0        0.638924   -1.707084    3.730027
     56          1           0        1.944420   -2.119318    2.622274
     57          1           0        1.837689    0.343294    3.895557
     58          1           0        2.487899    0.203868    2.268268
     59          7           0       -0.157042   -0.050584    1.241204
     60          6           0       -1.192159   -2.182459    2.059101
     61          1           0       -0.938670   -3.220528    2.325023
     62          1           0       -1.902438   -2.215288    1.225438
     63          6           0       -2.897975   -2.179799    3.696002
     64          1           0       -2.643395   -3.186193    4.051508
     65          1           0       -3.257634   -1.587445    4.535369
     66          1           0       -3.698502   -2.265303    2.950120
     67          8           0       -1.764299   -1.514625    3.167967
 ---------------------------------------------------------------------

 SCF Done:  E(RB3LYP) =  -2030.36962939     A.U. after   15 cycles

      1  P    Isotropic =   128.9477   Anisotropy =   210.8586

      2  P    Isotropic =   151.8773   Anisotropy =   165.8613

      3  N    Isotropic =   104.1112   Anisotropy =    59.2673

      4  C    Isotropic =    31.6380   Anisotropy =   207.7924

      5  C    Isotropic =    41.8645   Anisotropy =   193.6721

      6  H    Isotropic =    24.1345   Anisotropy =    10.0449

      7  C    Isotropic =    49.0245   Anisotropy =   184.8471

      8  H    Isotropic =    24.4246   Anisotropy =     5.9893

      9  C    Isotropic =    48.7202   Anisotropy =   188.0272

     10  H    Isotropic =    24.3225   Anisotropy =     4.1469

     11  C    Isotropic =    50.5101   Anisotropy =   182.2796

     12  H    Isotropic =    24.1834   Anisotropy =     5.4839

     13  C    Isotropic =    40.6768   Anisotropy =   185.3588

     14  H    Isotropic =    23.3241   Anisotropy =     8.1351

     15  C    Isotropic =    31.4146   Anisotropy =   183.9590

     16  C    Isotropic =    47.4595   Anisotropy =   186.2653

     17  H    Isotropic =    23.2925   Anisotropy =     9.1797

     18  C    Isotropic =    50.4697   Anisotropy =   183.0641

     19  H    Isotropic =    24.1439   Anisotropy =     6.8857

     20  C    Isotropic =    53.0554   Anisotropy =   179.9216

     21  H    Isotropic =    24.4771   Anisotropy =     4.1396

     22  C    Isotropic =    50.5273   Anisotropy =   183.4588

     23  H    Isotropic =    24.4341   Anisotropy =     5.4353

     24  C    Isotropic =    50.0757   Anisotropy =   185.2914

     25  H    Isotropic =    24.7897   Anisotropy =    11.5531

     26  C    Isotropic =    36.2101   Anisotropy =   201.5601

     27  C    Isotropic =    44.3555   Anisotropy =   192.4987

     28  H    Isotropic =    23.4817   Anisotropy =     8.1770

     29  C    Isotropic =    49.9423   Anisotropy =   184.1846

     30  H    Isotropic =    24.2793   Anisotropy =     6.3199

     31  C    Isotropic =    48.2913   Anisotropy =   188.6360

     32  H    Isotropic =    24.2444   Anisotropy =     4.2878

     33  C    Isotropic =    49.0515   Anisotropy =   184.6362

     34  H    Isotropic =    24.0902   Anisotropy =     5.5763

     35  C    Isotropic =    40.5345   Anisotropy =   183.3316

     36  H    Isotropic =    23.3020   Anisotropy =     8.2564

     37  C    Isotropic =    33.0608   Anisotropy =   188.2576

     38  C    Isotropic =    47.4403   Anisotropy =   190.7915

     39  H    Isotropic =    23.3593   Anisotropy =     9.1527

     40  C    Isotropic =    50.0843   Anisotropy =   183.2485

     41  H    Isotropic =    24.2296   Anisotropy =     6.9556

     42  C    Isotropic =    52.9821   Anisotropy =   179.8383

     43  H    Isotropic =    24.5432   Anisotropy =     4.2084

     44  C    Isotropic =    50.0606   Anisotropy =   182.2976

     45  H    Isotropic =    24.4509   Anisotropy =     5.8561

     46  C    Isotropic =    51.7072   Anisotropy =   178.7844

     47  H    Isotropic =    24.5451   Anisotropy =    12.0235

     48  C    Isotropic =   110.7834   Anisotropy =    53.7504

     49  C    Isotropic =   118.2104   Anisotropy =    62.1757

     50  C    Isotropic =   152.0215   Anisotropy =    27.4187

     51  H    Isotropic =    29.7524   Anisotropy =     8.7577

     52  C    Isotropic =   152.6990   Anisotropy =    21.6390

     53  H    Isotropic =    28.6793   Anisotropy =     7.8731

     54  H    Isotropic =    28.0600   Anisotropy =     5.4188

     55  H    Isotropic =    30.4034   Anisotropy =     9.2624

     56  H    Isotropic =    30.6246   Anisotropy =     8.0716

     57  H    Isotropic =    30.6004   Anisotropy =    11.0330

     58  H    Isotropic =    30.3852   Anisotropy =     7.7643

     59  N    Isotropic =   127.1120   Anisotropy =    72.1840

     60  C    Isotropic =   104.1370   Anisotropy =    55.2741

     61  H    Isotropic =    29.9499   Anisotropy =     3.5365

     62  H    Isotropic =    29.8262   Anisotropy =    10.6261

     63  C    Isotropic =   122.5215   Anisotropy =    92.5479

     64  H    Isotropic =    29.2423   Anisotropy =    10.4821

     65  H    Isotropic =    28.5551   Anisotropy =    10.6236

     66  H    Isotropic =    28.9851   Anisotropy =     8.0743

     67  O    Isotropic =   310.5476   Anisotropy =    34.7827

 The electronic state is 1-A.
 Alpha  occ. eigenvalues --  -77.06608 -77.06068 -19.12644 -14.34984 -14.33449
 Alpha  occ. eigenvalues --  -10.21134 -10.20842 -10.19790 -10.18863 -10.18701
 Alpha  occ. eigenvalues --  -10.18625 -10.18596 -10.18467 -10.18434 -10.18425
 Alpha  occ. eigenvalues --  -10.18385 -10.18209 -10.18199 -10.18119 -10.18017
 Alpha  occ. eigenvalues --  -10.17872 -10.17811 -10.17784 -10.17574 -10.17553
 Alpha  occ. eigenvalues --  -10.17518 -10.17484 -10.17314 -10.17261 -10.17187
 Alpha  occ. eigenvalues --  -10.17177 -10.17076 -10.16993 -10.16324 -10.16247
 Alpha  occ. eigenvalues --   -6.54854  -6.54332  -4.71082  -4.70929  -4.70565
 Alpha  occ. eigenvalues --   -4.70509  -4.70404  -4.69991  -1.03282  -0.97350
 Alpha  occ. eigenvalues --   -0.86792  -0.86315  -0.85766  -0.85400  -0.84022
 Alpha  occ. eigenvalues --   -0.77042  -0.76510  -0.75900  -0.75814  -0.75311
 Alpha  occ. eigenvalues --   -0.74996  -0.74676  -0.74538  -0.74286  -0.73518
 Alpha  occ. eigenvalues --   -0.69425  -0.64873  -0.64424  -0.62850  -0.61714
 Alpha  occ. eigenvalues --   -0.61116  -0.60821  -0.60422  -0.60235  -0.59855
 Alpha  occ. eigenvalues --   -0.59244  -0.57912  -0.56719  -0.54438  -0.52801
 Alpha  occ. eigenvalues --   -0.52360  -0.52034  -0.50841  -0.49118  -0.48383
 Alpha  occ. eigenvalues --   -0.47848  -0.47041  -0.46381  -0.46191  -0.45906
 Alpha  occ. eigenvalues --   -0.45692  -0.45563  -0.45394  -0.45222  -0.44807
 Alpha  occ. eigenvalues --   -0.44592  -0.43424  -0.42967  -0.42795  -0.42546
 Alpha  occ. eigenvalues --   -0.42209  -0.41760  -0.41200  -0.40919  -0.40606
 Alpha  occ. eigenvalues --   -0.40241  -0.38613  -0.38157  -0.37624  -0.37537
 Alpha  occ. eigenvalues --   -0.37266  -0.36704  -0.36636  -0.35700  -0.35329
 Alpha  occ. eigenvalues --   -0.35084  -0.35040  -0.34727  -0.34478  -0.33791
 Alpha  occ. eigenvalues --   -0.33509  -0.32511  -0.32441  -0.31827  -0.28448
 Alpha  occ. eigenvalues --   -0.27474  -0.26858  -0.26841  -0.26802  -0.26494
 Alpha  occ. eigenvalues --   -0.25903  -0.25798  -0.25356  -0.24940  -0.23324
 Alpha  occ. eigenvalues --   -0.21923  -0.17527
 Alpha virt. eigenvalues --   -0.04571  -0.03241  -0.02729  -0.02406  -0.02073
 Alpha virt. eigenvalues --   -0.01429  -0.01040  -0.00685   0.02499   0.03503
 Alpha virt. eigenvalues --    0.03738   0.04494   0.04708   0.05429   0.05688

 Mulliken charges:
               1
     1  P    0.232780
     2  P    0.217579
     3  N   -0.351586
     4  C    0.019797
     5  C   -0.171441
     6  H    0.134224
     7  C   -0.099318
     8  H    0.108898
     9  C   -0.096492
    10  H    0.110744
    11  C   -0.123783
    12  H    0.106791
    13  C   -0.148996
    14  H    0.120076
    15  C    0.025202
    16  C   -0.073907
    17  H    0.088493
    18  C   -0.159554
    19  H    0.101307
    20  C   -0.094672
    21  H    0.105025
    22  C   -0.119178
    23  H    0.106265
    24  C   -0.170856
    25  H    0.116875
    26  C   -0.014505
    27  C   -0.169241
    28  H    0.154061
    29  C   -0.120542
    30  H    0.110416
    31  C   -0.086260
    32  H    0.112366
    33  C   -0.132301
    34  H    0.109762
    35  C   -0.126358
    36  H    0.127863
    37  C    0.000782
    38  C   -0.145483
    39  H    0.146204
    40  C   -0.144929
    41  H    0.105736
    42  C   -0.098742
    43  H    0.106414
    44  C   -0.128203
    45  H    0.106953
    46  C   -0.180987
    47  H    0.145103
    48  C    0.070827
    49  C   -0.105676
    50  C   -0.173873
    51  H    0.106128
    52  C   -0.215869
    53  H    0.100209
    54  H    0.102629
    55  H    0.101589
    56  H    0.095225
    57  H    0.084214
    58  H    0.102352
    59  N   -0.065210
    60  C   -0.077894
    61  H    0.079514
    62  H    0.125585
    63  C   -0.178340
    64  H    0.095889
    65  H    0.119674
    66  H    0.099541
    67  O   -0.328899
 Sum of Mulliken charges =  -0.00000

 Dipole moment (field-independent basis, Debye):
    X=             -0.0105    Y=             -2.7782    Z=              1.8326  Tot=              3.3282
 Quadrupole moment (field-independent basis, Debye-Ang):
   XX=           -206.2734   YY=           -205.1776   ZZ=           -223.6897
   XY=              0.1337   XZ=              1.9360   YZ=              8.3507

 Summary of Natural Population Analysis:

                                       Natural Population
                Natural  -----------------------------------------------
    Atom  No    Charge         Core      Valence    Rydberg      Total
 -----------------------------------------------------------------------
      P    1    1.04249      9.99777     3.92074    0.03900    13.95751
      P    2    1.00325      9.99774     3.96120    0.03781    13.99675
      N    3   -0.81846      1.99957     5.77988    0.03901     7.81846
      C    4   -0.35924      1.99898     4.32600    0.03425     6.35924
      C    5   -0.18983      1.99908     4.16942    0.02133     6.18983
      H    6    0.22143      0.00000     0.77594    0.00264     0.77857
      C    7   -0.21141      1.99919     4.19268    0.01955     6.21141
      H    8    0.20802      0.00000     0.79057    0.00140     0.79198
      C    9   -0.19818      1.99919     4.17975    0.01924     6.19818
      H   10    0.20831      0.00000     0.79051    0.00118     0.79169
      C   11   -0.20886      1.99918     4.19090    0.01877     6.20886
      H   12    0.20900      0.00000     0.78972    0.00128     0.79100
      C   13   -0.18643      1.99909     4.16755    0.01979     6.18643
      H   14    0.21075      0.00000     0.78740    0.00185     0.78925
      C   15   -0.34620      1.99899     4.31310    0.03412     6.34620
      C   16   -0.21063      1.99908     4.19157    0.01999     6.21063
      H   17    0.20608      0.00000     0.79179    0.00213     0.79392
      C   18   -0.19780      1.99919     4.18009    0.01853     6.19780
      H   19    0.20568      0.00000     0.79302    0.00130     0.79432
      C   20   -0.21529      1.99919     4.19656    0.01955     6.21529
      H   21    0.20672      0.00000     0.79210    0.00118     0.79328
      C   22   -0.19954      1.99918     4.18163    0.01873     6.19954
      H   23    0.20747      0.00000     0.79126    0.00127     0.79253
      C   24   -0.20388      1.99909     4.18529    0.01950     6.20388
      H   25    0.21124      0.00000     0.78698    0.00178     0.78876
      C   26   -0.36330      1.99897     4.33115    0.03318     6.36330
      C   27   -0.19843      1.99907     4.17837    0.02098     6.19843
      H   28    0.21402      0.00000     0.78334    0.00264     0.78598
      C   29   -0.20908      1.99918     4.19071    0.01918     6.20908
      H   30    0.20933      0.00000     0.78934    0.00132     0.79067
      C   31   -0.19595      1.99919     4.17757    0.01919     6.19595
      H   32    0.20969      0.00000     0.78914    0.00117     0.79031
      C   33   -0.20543      1.99918     4.18766    0.01859     6.20543
      H   34    0.21064      0.00000     0.78809    0.00127     0.78936
      C   35   -0.18571      1.99909     4.16683    0.01979     6.18571
      H   36    0.21375      0.00000     0.78442    0.00183     0.78625
      C   37   -0.35347      1.99898     4.32087    0.03363     6.35347
      C   38   -0.20963      1.99909     4.19068    0.01987     6.20963
      H   39    0.21056      0.00000     0.78713    0.00231     0.78944
      C   40   -0.19647      1.99918     4.17881    0.01847     6.19647
      H   41    0.20822      0.00000     0.79050    0.00128     0.79178
      C   42   -0.21456      1.99919     4.19579    0.01959     6.21456
      H   43    0.20756      0.00000     0.79126    0.00118     0.79244
      C   44   -0.19716      1.99919     4.17930    0.01867     6.19716
      H   45    0.20770      0.00000     0.79103    0.00127     0.79230
      C   46   -0.21402      1.99909     4.19537    0.01957     6.21402
      H   47    0.21357      0.00000     0.78472    0.00171     0.78643
      C   48   -0.07609      1.99931     4.05781    0.01898     6.07609
      C   49   -0.22412      1.99934     4.20878    0.01600     6.22412
      C   50   -0.41254      1.99941     4.39943    0.01371     6.41254
      H   51    0.21433      0.00000     0.78312    0.00254     0.78567
      C   52   -0.40366      1.99943     4.39228    0.01195     6.40366
      H   53    0.20073      0.00000     0.79735    0.00191     0.79927
      H   54    0.20219      0.00000     0.79587    0.00195     0.79781
      H   55    0.21231      0.00000     0.78586    0.00182     0.78769
      H   56    0.21075      0.00000     0.78791    0.00135     0.78925
      H   57    0.20757      0.00000     0.79103    0.00140     0.79243
      H   58    0.19331      0.00000     0.80483    0.00187     0.80669
      N   59   -0.29028      1.99953     5.24936    0.04140     7.29028
      C   60   -0.06665      1.99920     4.04639    0.02106     6.06665
      H   61    0.15019      0.00000     0.84691    0.00289     0.84981
      H   62    0.17670      0.00000     0.82050    0.00279     0.82330
      C   63   -0.24055      1.99932     4.22615    0.01508     6.24055
      H   64    0.15402      0.00000     0.84345    0.00254     0.84598
      H   65    0.18515      0.00000     0.81348    0.00137     0.81485
      H   66    0.15815      0.00000     0.83936    0.00250     0.84185
      O   67   -0.50799      1.99980     6.49099    0.01720     8.50799
 =======================================================================
   * Total *    0.00000     85.96924   177.17859    0.85218   264.00000

 1\1\GINC-G4NODEC5\SP\RB3LYP\def2TZVP\C30H32N2O1P2\ROOT\06-Nov-2024\0\\
 # nmr=giao b3lyp/def2TZVP pop=nbo scfcyc=200\\Ligand 72 SPE NoRh\\0,1\
 P,0,0.442,-1.239,0.112\P,0,-0.595,1.287,0.051\N,0,0.885,0.408,0.514\C,
 0,1.576,-1.896,-1.178\C,0,2.772,-2.547,-0.857\H,0,3.063,-2.675,0.177\C
 ,0,3.593,-3.035,-1.867\H,0,4.514,-3.543,-1.611\C,0,3.235,-2.873,-3.203
 \H,0,3.876,-3.258,-3.986\C,0,2.049,-2.222,-3.53\H,0,1.764,-2.101,-4.56
 7\C,0,1.221,-1.741,-2.522\H,0,0.287,-1.254,-2.776\C,0,0.737,-2.337,1.5
 59\C,0,0.983,-1.851,2.843\H,0,1.103,-0.792,3.008\C,0,1.104,-2.728,3.91

 Normal termination of Gaussian 16 at Wed Nov  6 21:46:49 2024.
