 Gaussian 16, Revision B.01,
 Gaussian 16:  ES64L-G16RevB.01 20-Dec-2017

 --------------------------------------------
 # nmr=giao b3lyp/def2TZVP pop=nbo scfcyc=200
 --------------------------------------------

 ------------------
 Ligand 74 SPE NoRh
 ------------------
 Symbolic Z-matrix:
 Charge =  0 Multiplicity = 1

                         Standard orientation:
 ---------------------------------------------------------------------
 Center     Atomic      Atomic             Coordinates (Angstroms)
 Number     Number       Type             X           Y           Z
 ---------------------------------------------------------------------
      1         15           0        1.202412   -0.201862   -1.513160
      2         15           0       -1.450012    0.278768   -1.380074
      3          7           0       -0.090245   -0.085076   -0.332315
      4          6           0        2.438593    1.152551   -1.285991
      5          6           0        3.651431    0.975553   -0.613131
      6          1           0        3.903390    0.015257   -0.184659
      7          6           0        4.544638    2.033440   -0.488547
      8          1           0        5.481470    1.884418    0.033075
      9          6           0        4.236444    3.277587   -1.028673
     10          1           0        4.935216    4.099978   -0.930113
     11          6           0        3.034609    3.462396   -1.703518
     12          1           0        2.793613    4.426507   -2.133795
     13          6           0        2.144119    2.403038   -1.837974
     14          1           0        1.218026    2.543921   -2.382474
     15          6           0        2.147731   -1.760607   -1.285061
     16          6           0        1.706382   -2.795314   -0.458715
     17          1           0        0.835245   -2.670473    0.168782
     18          6           0        2.412288   -3.995449   -0.412026
     19          1           0        2.069204   -4.786546    0.242997
     20          6           0        3.547496   -4.178840   -1.193133
     21          1           0        4.090324   -5.114424   -1.153954
     22          6           0        3.986138   -3.152392   -2.025680
     23          1           0        4.870912   -3.284542   -2.634559
     24          6           0        3.291175   -1.950441   -2.074085
     25          1           0        3.654573   -1.158028   -2.717635
     26          6           0       -2.115759    1.916056   -0.866876
     27          6           0       -2.860154    2.089211    0.307654
     28          1           0       -3.097131    1.242908    0.938109
     29          6           0       -3.303182    3.355243    0.672058
     30          1           0       -3.874868    3.480830    1.582930
     31          6           0       -3.015850    4.457680   -0.128870
     32          1           0       -3.367465    5.441005    0.157246
     33          6           0       -2.281116    4.292903   -1.297278
     34          1           0       -2.061050    5.147459   -1.926019
     35          6           0       -1.831258    3.029727   -1.663469
     36          1           0       -1.259572    2.904140   -2.574341
     37          6           0       -2.800065   -0.931180   -1.067415
     38          6           0       -2.488420   -2.283694   -0.889248
     39          1           0       -1.458474   -2.599393   -0.804611
     40          6           0       -3.501466   -3.229921   -0.804939
     41          1           0       -3.249258   -4.271664   -0.652252
     42          6           0       -4.833969   -2.843562   -0.920769
     43          1           0       -5.622222   -3.583884   -0.860881
     44          6           0       -5.150940   -1.503942   -1.119753
     45          1           0       -6.184778   -1.196709   -1.215445
     46          6           0       -4.140552   -0.550250   -1.194460
     47          1           0       -4.404433    0.487554   -1.348253
     48          6           0       -0.117500    0.100393    1.140663
     49          1           0       -0.651480    1.030645    1.341647
     50          6           0       -0.901082   -1.035961    1.812703
     51          6           0        1.268693    0.204982    1.791222
     52          1           0        1.837593   -0.704875    1.583945
     53          1           0        1.796746    1.039000    1.330327
     54          6           0       -2.730205   -1.538847    3.232086
     55          1           0       -3.501955   -0.968912    3.739183
     56          1           0       -3.169121   -2.261992    2.546716
     57          1           0       -2.097719   -2.056382    3.951754
     58          8           0       -0.598349   -2.203327    1.764723
     59          8           0       -1.953344   -0.564494    2.495418
     60          6           0        1.206183    0.434716    3.305947
     61          1           0        0.722895   -0.416463    3.795799
     62          1           0        0.583316    1.310309    3.518569
     63          6           0        2.592064    0.638028    3.925607
     64          1           0        3.078968    1.493636    3.446017
     65          1           0        3.216963   -0.233980    3.704095
     66          6           0        2.543077    0.859488    5.437384
     67          1           0        2.095752    0.003903    5.948528
     68          1           0        3.544534    1.002180    5.848445
     69          1           0        1.952781    1.743566    5.690121
 ---------------------------------------------------------------------

 SCF Done:  E(RB3LYP) =  -2089.65560307     A.U. after   15 cycles

      1  P    Isotropic =   145.5312   Anisotropy =   188.9096

      2  P    Isotropic =   149.6978   Anisotropy =   160.6805

      3  N    Isotropic =   162.9216   Anisotropy =    18.8444

      4  C    Isotropic =    32.3273   Anisotropy =   202.3410

      5  C    Isotropic =    44.2407   Anisotropy =   191.3222

      6  H    Isotropic =    24.1211   Anisotropy =    10.6304

      7  C    Isotropic =    50.2646   Anisotropy =   182.8024

      8  H    Isotropic =    24.5484   Anisotropy =     6.1320

      9  C    Isotropic =    49.3667   Anisotropy =   186.2004

     10  H    Isotropic =    24.4410   Anisotropy =     4.2467

     11  C    Isotropic =    50.5553   Anisotropy =   182.5756

     12  H    Isotropic =    24.3034   Anisotropy =     6.1111

     13  C    Isotropic =    41.3259   Anisotropy =   185.8869

     14  H    Isotropic =    23.3807   Anisotropy =     8.4230

     15  C    Isotropic =    32.7940   Anisotropy =   180.3017

     16  C    Isotropic =    45.9637   Anisotropy =   197.5933

     17  H    Isotropic =    21.7080   Anisotropy =     8.5441

     18  C    Isotropic =    48.9253   Anisotropy =   185.8882

     19  H    Isotropic =    23.9689   Anisotropy =     7.0457

     20  C    Isotropic =    52.6097   Anisotropy =   180.7108

     21  H    Isotropic =    24.4167   Anisotropy =     4.2353

     22  C    Isotropic =    51.4317   Anisotropy =   181.6010

     23  H    Isotropic =    24.4121   Anisotropy =     5.2280

     24  C    Isotropic =    51.4170   Anisotropy =   183.5661

     25  H    Isotropic =    24.6164   Anisotropy =    11.1632

     26  C    Isotropic =    38.7118   Anisotropy =   201.8427

     27  C    Isotropic =    39.8388   Anisotropy =   192.9237

     28  H    Isotropic =    23.5245   Anisotropy =     8.3595

     29  C    Isotropic =    49.6636   Anisotropy =   184.4202

     30  H    Isotropic =    24.1796   Anisotropy =     6.6346

     31  C    Isotropic =    47.8469   Anisotropy =   190.3707

     32  H    Isotropic =    24.1424   Anisotropy =     4.4726

     33  C    Isotropic =    49.4947   Anisotropy =   184.4539

     34  H    Isotropic =    23.9847   Anisotropy =     5.4336

     35  C    Isotropic =    39.5646   Anisotropy =   183.4244

     36  H    Isotropic =    23.3267   Anisotropy =     8.3035

     37  C    Isotropic =    33.9856   Anisotropy =   186.6234

     38  C    Isotropic =    45.8434   Anisotropy =   198.3500

     39  H    Isotropic =    23.6956   Anisotropy =     8.8404

     40  C    Isotropic =    50.4074   Anisotropy =   184.2028

     41  H    Isotropic =    24.2827   Anisotropy =     6.8324

     42  C    Isotropic =    53.0263   Anisotropy =   180.1790

     43  H    Isotropic =    24.5971   Anisotropy =     4.1546

     44  C    Isotropic =    50.6339   Anisotropy =   182.4488

     45  H    Isotropic =    24.5712   Anisotropy =     5.8351

     46  C    Isotropic =    52.3330   Anisotropy =   179.6133

     47  H    Isotropic =    25.0032   Anisotropy =    12.3605

     48  C    Isotropic =   113.1870   Anisotropy =    27.9265

     49  H    Isotropic =    28.0553   Anisotropy =     6.3534

     50  C    Isotropic =    -1.1846   Anisotropy =   104.6538

     51  C    Isotropic =   146.1254   Anisotropy =    18.9482

     52  H    Isotropic =    30.2208   Anisotropy =     6.9155

     53  H    Isotropic =    30.7007   Anisotropy =    11.0866

     54  C    Isotropic =   128.7662   Anisotropy =    74.6222

     55  H    Isotropic =    28.8201   Anisotropy =     8.4375

     56  H    Isotropic =    28.8364   Anisotropy =     5.9359

     57  H    Isotropic =    28.3984   Anisotropy =     9.3963

     58  O    Isotropic =   -81.1056   Anisotropy =   595.9830

     59  O    Isotropic =   124.0246   Anisotropy =   140.7546

     60  C    Isotropic =   149.3446   Anisotropy =    31.7587

     61  H    Isotropic =    31.2636   Anisotropy =     5.2448

     62  H    Isotropic =    31.3663   Anisotropy =     4.3553

     63  C    Isotropic =   154.6240   Anisotropy =    24.2442

     64  H    Isotropic =    31.1563   Anisotropy =     5.8016

     65  H    Isotropic =    30.9517   Anisotropy =     4.5425

     66  C    Isotropic =   166.9673   Anisotropy =    30.4290

     67  H    Isotropic =    31.3248   Anisotropy =     8.3312

     68  H    Isotropic =    30.9840   Anisotropy =    11.4275

     69  H    Isotropic =    31.3890   Anisotropy =     8.4287

 The electronic state is 1-A.
 Alpha  occ. eigenvalues --  -77.06762 -77.06527 -19.18387 -19.11976 -14.33381
 Alpha  occ. eigenvalues --  -10.30427 -10.23185 -10.22591 -10.18606 -10.18583
 Alpha  occ. eigenvalues --  -10.18552 -10.18431 -10.18337 -10.18321 -10.18249
 Alpha  occ. eigenvalues --  -10.18194 -10.18171 -10.18045 -10.18035 -10.17960
 Alpha  occ. eigenvalues --  -10.17903 -10.17775 -10.17509 -10.17374 -10.17315
 Alpha  occ. eigenvalues --  -10.17229 -10.17176 -10.17152 -10.17149 -10.17096
 Alpha  occ. eigenvalues --  -10.17047 -10.16915 -10.16817 -10.16760 -10.16350
 Alpha  occ. eigenvalues --  -10.16097  -6.54970  -6.54787  -4.71230  -4.71029
 Alpha  occ. eigenvalues --   -4.71028  -4.70857  -4.70619  -4.70434  -1.11634
 Alpha  occ. eigenvalues --   -1.02789  -0.90449  -0.86570  -0.86264  -0.85466
 Alpha  occ. eigenvalues --   -0.85106  -0.81129  -0.77437  -0.76656  -0.75744
 Alpha  occ. eigenvalues --   -0.75645  -0.75368  -0.74636  -0.74462  -0.74222
 Alpha  occ. eigenvalues --   -0.74158  -0.73766  -0.68980  -0.64826  -0.63201
 Alpha  occ. eigenvalues --   -0.61987  -0.61507  -0.61211  -0.60562  -0.60068
 Alpha  occ. eigenvalues --   -0.60031  -0.59776  -0.58986  -0.57367  -0.56591
 Alpha  occ. eigenvalues --   -0.55091  -0.52926  -0.52118  -0.51742  -0.51243
 Alpha  occ. eigenvalues --   -0.50506  -0.49549  -0.48707  -0.47533  -0.46593
 Alpha  occ. eigenvalues --   -0.46354  -0.46021  -0.45838  -0.45581  -0.45241
 Alpha  occ. eigenvalues --   -0.45111  -0.44766  -0.44408  -0.43940  -0.43345
 Alpha  occ. eigenvalues --   -0.43266  -0.42828  -0.42454  -0.42132  -0.41885
 Alpha  occ. eigenvalues --   -0.41535  -0.40728  -0.40595  -0.39538  -0.39430
 Alpha  occ. eigenvalues --   -0.38409  -0.37851  -0.37529  -0.37369  -0.36932
 Alpha  occ. eigenvalues --   -0.36533  -0.36382  -0.35644  -0.35431  -0.35151
 Alpha  occ. eigenvalues --   -0.34933  -0.34634  -0.34336  -0.34017  -0.33789
 Alpha  occ. eigenvalues --   -0.33244  -0.32817  -0.32351  -0.31950  -0.29120
 Alpha  occ. eigenvalues --   -0.28284  -0.27377  -0.26783  -0.26662  -0.26507
 Alpha  occ. eigenvalues --   -0.26261  -0.25505  -0.25207  -0.25077  -0.22693
 Alpha  occ. eigenvalues --   -0.18012
 Alpha virt. eigenvalues --   -0.04531  -0.03394  -0.02658  -0.02401  -0.02050
 Alpha virt. eigenvalues --   -0.01061  -0.00966  -0.00583  -0.00198   0.02607
 Alpha virt. eigenvalues --    0.03410   0.03774   0.04390   0.05104   0.05292

 Mulliken charges:
               1
     1  P    0.223609
     2  P    0.202290
     3  N   -0.285298
     4  C   -0.010122
     5  C   -0.150637
     6  H    0.140674
     7  C   -0.115097
     8  H    0.109806
     9  C   -0.090951
    10  H    0.110499
    11  C   -0.136009
    12  H    0.106858
    13  C   -0.120043
    14  H    0.104785
    15  C    0.067369
    16  C   -0.180309
    17  H    0.199442
    18  C   -0.165317
    19  H    0.106977
    20  C   -0.101785
    21  H    0.104259
    22  C   -0.110004
    23  H    0.106395
    24  C   -0.206033
    25  H    0.117028
    26  C    0.022276
    27  C   -0.181315
    28  H    0.163378
    29  C   -0.110410
    30  H    0.108263
    31  C   -0.093312
    32  H    0.112153
    33  C   -0.116423
    34  H    0.110196
    35  C   -0.177038
    36  H    0.134482
    37  C    0.016517
    38  C   -0.121554
    39  H    0.140257
    40  C   -0.159533
    41  H    0.106747
    42  C   -0.093188
    43  H    0.105831
    44  C   -0.135136
    45  H    0.105546
    46  C   -0.179848
    47  H    0.135155
    48  C    0.053246
    49  H    0.100223
    50  C    0.337662
    51  C   -0.239155
    52  H    0.113730
    53  H    0.131943
    54  C   -0.189995
    55  H    0.127872
    56  H    0.149872
    57  H    0.128407
    58  O   -0.349731
    59  O   -0.277396
    60  C   -0.205173
    61  H    0.092297
    62  H    0.088166
    63  C   -0.150198
    64  H    0.091453
    65  H    0.088969
    66  C   -0.330508
    67  H    0.102513
    68  H    0.112763
    69  H    0.101609
 Sum of Mulliken charges =  -0.00000

 Dipole moment (field-independent basis, Debye):
    X=             -0.5276    Y=              2.4740    Z=              3.2123  Tot=              4.0887
 Quadrupole moment (field-independent basis, Debye-Ang):
   XX=           -211.1577   YY=           -214.3046   ZZ=           -229.5102
   XY=              1.2977   XZ=             -7.5760   YZ=             -5.8343

 Summary of Natural Population Analysis:

                                       Natural Population
                Natural  -----------------------------------------------
    Atom  No    Charge         Core      Valence    Rydberg      Total
 -----------------------------------------------------------------------
      P    1    1.05574      9.99779     3.90691    0.03956    13.94426
      P    2    1.04333      9.99785     3.91866    0.04016    13.95667
      N    3   -0.99243      1.99957     5.95775    0.03511     7.99243
      C    4   -0.35787      1.99897     4.32530    0.03360     6.35787
      C    5   -0.19609      1.99908     4.17706    0.01996     6.19609
      H    6    0.21801      0.00000     0.77972    0.00227     0.78199
      C    7   -0.20758      1.99918     4.18931    0.01908     6.20758
      H    8    0.20866      0.00000     0.79001    0.00133     0.79134
      C    9   -0.19871      1.99919     4.18020    0.01933     6.19871
      H   10    0.20856      0.00000     0.79027    0.00117     0.79144
      C   11   -0.20520      1.99918     4.18737    0.01865     6.20520
      H   12    0.20936      0.00000     0.78937    0.00127     0.79064
      C   13   -0.18837      1.99909     4.16942    0.01986     6.18837
      H   14    0.21158      0.00000     0.78621    0.00221     0.78842
      C   15   -0.35809      1.99899     4.32605    0.03305     6.35809
      C   16   -0.22475      1.99908     4.20567    0.02000     6.22475
      H   17    0.24162      0.00000     0.75647    0.00191     0.75838
      C   18   -0.19528      1.99919     4.17755    0.01854     6.19528
      H   19    0.20774      0.00000     0.79096    0.00130     0.79226
      C   20   -0.21517      1.99919     4.19646    0.01953     6.21517
      H   21    0.20609      0.00000     0.79272    0.00119     0.79391
      C   22   -0.20111      1.99918     4.18323    0.01870     6.20111
      H   23    0.20712      0.00000     0.79160    0.00128     0.79288
      C   24   -0.20927      1.99909     4.19053    0.01964     6.20927
      H   25    0.21049      0.00000     0.78772    0.00180     0.78951
      C   26   -0.36531      1.99899     4.33187    0.03445     6.36531
      C   27   -0.19955      1.99909     4.18012    0.02034     6.19955
      H   28    0.22300      0.00000     0.77481    0.00220     0.77700
      C   29   -0.20784      1.99919     4.18973    0.01893     6.20784
      H   30    0.20839      0.00000     0.79024    0.00137     0.79161
      C   31   -0.19255      1.99919     4.17436    0.01900     6.19255
      H   32    0.20922      0.00000     0.78961    0.00118     0.79078
      C   33   -0.20816      1.99918     4.18976    0.01922     6.20816
      H   34    0.21015      0.00000     0.78859    0.00126     0.78985
      C   35   -0.18349      1.99910     4.16413    0.02026     6.18349
      H   36    0.21531      0.00000     0.78318    0.00150     0.78469
      C   37   -0.36020      1.99899     4.32690    0.03431     6.36020
      C   38   -0.20269      1.99909     4.18289    0.02071     6.20269
      H   39    0.22136      0.00000     0.77642    0.00222     0.77864
      C   40   -0.19898      1.99918     4.18102    0.01878     6.19898
      H   41    0.20946      0.00000     0.78927    0.00127     0.79054
      C   42   -0.21618      1.99919     4.19732    0.01967     6.21618
      H   43    0.20664      0.00000     0.79217    0.00119     0.79336
      C   44   -0.20126      1.99919     4.18327    0.01881     6.20126
      H   45    0.20695      0.00000     0.79177    0.00128     0.79305
      C   46   -0.21071      1.99909     4.19197    0.01964     6.21071
      H   47    0.21292      0.00000     0.78528    0.00180     0.78708
      C   48   -0.13964      1.99913     4.10960    0.03091     6.13964
      H   49    0.21171      0.00000     0.78545    0.00284     0.78829
      C   50    0.78419      1.99939     3.17633    0.04009     5.21581
      C   51   -0.38901      1.99937     4.37500    0.01464     6.38901
      H   52    0.21246      0.00000     0.78470    0.00284     0.78754
      H   53    0.21756      0.00000     0.78010    0.00234     0.78244
      C   54   -0.26002      1.99925     4.24690    0.01387     6.26002
      H   55    0.18955      0.00000     0.80920    0.00124     0.81045
      H   56    0.19813      0.00000     0.80004    0.00183     0.80187
      H   57    0.18813      0.00000     0.81010    0.00177     0.81187
      O   58   -0.60351      1.99973     6.57647    0.02731     8.60351
      O   59   -0.48383      1.99974     6.46045    0.02364     8.48383
      C   60   -0.37755      1.99941     4.36518    0.01296     6.37755
      H   61    0.18919      0.00000     0.80858    0.00222     0.81081
      H   62    0.18965      0.00000     0.80841    0.00194     0.81035
      C   63   -0.37566      1.99945     4.36327    0.01294     6.37566
      H   64    0.19185      0.00000     0.80661    0.00155     0.80815
      H   65    0.19209      0.00000     0.80640    0.00151     0.80791
      C   66   -0.58430      1.99947     4.57878    0.00605     6.58430
      H   67    0.19542      0.00000     0.80314    0.00143     0.80458
      H   68    0.20358      0.00000     0.79526    0.00115     0.79642
      H   69    0.19513      0.00000     0.80343    0.00144     0.80487
 =======================================================================
   * Total *    0.00000     87.96904   183.15456    0.87640   272.00000

 1\1\GINC-G2NODEC3\SP\RB3LYP\def2TZVP\C31H33N1O2P2\ROOT\06-Nov-2024\0\\
 # nmr=giao b3lyp/def2TZVP pop=nbo scfcyc=200\\Ligand 74 SPE NoRh\\0,1\
 P,0,-0.06,-1.326,-0.139\P,0,0.419,1.292,0.309\N,0,-0.905,0.211,-0.088\
 C,0,-0.629,-2.446,1.216\C,0,-1.562,-3.469,1.021\H,0,-1.998,-3.632,0.04
 5\C,0,-1.938,-4.286,2.081\H,0,-2.66,-5.076,1.918\C,0,-1.392,-4.089,3.3
 45\H,0,-1.687,-4.728,4.169\C,0,-0.46,-3.077,3.548\H,0,-0.025,-2.925,4.
 528\C,0,-0.075,-2.265,2.487\H,0,0.667,-1.491,2.643\C,0,-0.441,-2.222,-
 1.697\C,0,-1.096,-1.619,-2.772\H,0,-1.504,-0.622,-2.684\C,0,-1.259,-2.

 Normal termination of Gaussian 16 at Wed Nov  6 22:16:53 2024.
