 Gaussian 16, Revision B.01,
 Gaussian 16:  ES64L-G16RevB.01 20-Dec-2017

 --------------------------------------------
 # nmr=giao b3lyp/def2TZVP pop=nbo scfcyc=200
 --------------------------------------------

 ------------------
 Ligand 75 SPE NoRh
 ------------------
 Symbolic Z-matrix:
 Charge =  0 Multiplicity = 1

                         Standard orientation:
 ---------------------------------------------------------------------
 Center     Atomic      Atomic             Coordinates (Angstroms)
 Number     Number       Type             X           Y           Z
 ---------------------------------------------------------------------
      1         15           0        1.457792   -0.109032   -1.065817
      2         15           0       -1.186663    0.392288   -1.278960
      3          7           0        0.008962   -0.041124   -0.067302
      4          6           0        2.672644    1.211312   -0.625203
      5          6           0        3.762468    0.994484    0.222582
      6          1           0        3.924442    0.021807    0.668723
      7          6           0        4.656357    2.024259    0.494072
      8          1           0        5.497641    1.843525    1.151678
      9          6           0        4.472482    3.280013   -0.075912
     10          1           0        5.171007    4.079402    0.137635
     11          6           0        3.395644    3.503954   -0.926820
     12          1           0        3.255151    4.476189   -1.382309
     13          6           0        2.505485    2.472924   -1.206152
     14          1           0        1.679452    2.642686   -1.886497
     15          6           0        2.391110   -1.676479   -0.827200
     16          6           0        1.874920   -2.778988   -0.148708
     17          1           0        0.925747   -2.716908    0.364413
     18          6           0        2.598684   -3.968861   -0.103006
     19          1           0        2.194064   -4.814788    0.439425
     20          6           0        3.827814   -4.074358   -0.743013
     21          1           0        4.384432   -5.001585   -0.705396
     22          6           0        4.342712   -2.977889   -1.430716
     23          1           0        5.301210   -3.048633   -1.930236
     24          6           0        3.630979   -1.786375   -1.475166
     25          1           0        4.055017   -0.941235   -2.004282
     26          6           0       -1.939667    1.982783   -0.742107
     27          6           0       -2.879223    2.059666    0.294984
     28          1           0       -3.228450    1.161536    0.788096
     29          6           0       -3.378965    3.292483    0.695277
     30          1           0       -4.103096    3.342558    1.498555
     31          6           0       -2.955381    4.459060    0.065502
     32          1           0       -3.352015    5.417632    0.376805
     33          6           0       -2.027021    4.392081   -0.968045
     34          1           0       -1.699474    5.297045   -1.464659
     35          6           0       -1.520174    3.161091   -1.367928
     36          1           0       -0.797413    3.111196   -2.172652
     37          6           0       -2.555126   -0.837989   -1.268085
     38          6           0       -2.259425   -2.200791   -1.161901
     39          1           0       -1.250395   -2.524979   -0.948160
     40          6           0       -3.262375   -3.149467   -1.314387
     41          1           0       -3.023094   -4.200745   -1.214163
     42          6           0       -4.566383   -2.752732   -1.597813
     43          1           0       -5.345397   -3.494709   -1.721003
     44          6           0       -4.863769   -1.401362   -1.728726
     45          1           0       -5.874731   -1.084818   -1.955422
     46          6           0       -3.865160   -0.445523   -1.567083
     47          1           0       -4.114945    0.601691   -1.674458
     48          6           0       -0.278230   -0.004444    1.389559
     49          1           0       -0.967822    0.825282    1.547466
     50          6           0       -1.034161   -1.262871    1.837324
     51          6           0        0.959312    0.273938    2.291799
     52          1           0        1.819006   -0.211640    1.824595
     53          6           0       -2.886513   -2.008962    3.114200
     54          1           0       -3.695698   -1.535925    3.662011
     55          1           0       -3.275470   -2.642372    2.319386
     56          1           0       -2.265099   -2.601977    3.783616
     57          8           0       -0.712957   -2.404783    1.618961
     58          8           0       -2.116358   -0.920709    2.551525
     59          6           0        1.203327    1.783950    2.385480
     60          1           0        2.156525    1.989961    2.874486
     61          1           0        1.219206    2.267019    1.409593
     62          1           0        0.416060    2.253492    2.981254
     63          6           0        0.825409   -0.315283    3.703899
     64          1           0       -0.048268    0.085707    4.222245
     65          1           0        0.755543   -1.403416    3.696894
     66          1           0        1.705067   -0.047789    4.291017
 ---------------------------------------------------------------------

 SCF Done:  E(RB3LYP) =  -2050.31945450     A.U. after   14 cycles

      1  P    Isotropic =   148.2314   Anisotropy =   192.5018

      2  P    Isotropic =   146.1336   Anisotropy =   166.6247

      3  N    Isotropic =   162.1382   Anisotropy =    26.7580

      4  C    Isotropic =    32.5290   Anisotropy =   202.8220

      5  C    Isotropic =    43.4208   Anisotropy =   190.4080

      6  H    Isotropic =    24.1123   Anisotropy =    10.4159

      7  C    Isotropic =    50.0514   Anisotropy =   183.3706

      8  H    Isotropic =    24.5444   Anisotropy =     6.1234

      9  C    Isotropic =    49.2343   Anisotropy =   187.2329

     10  H    Isotropic =    24.4244   Anisotropy =     4.0258

     11  C    Isotropic =    50.3622   Anisotropy =   182.4202

     12  H    Isotropic =    24.2446   Anisotropy =     5.8938

     13  C    Isotropic =    40.2625   Anisotropy =   186.2418

     14  H    Isotropic =    23.3146   Anisotropy =     8.5055

     15  C    Isotropic =    33.1853   Anisotropy =   178.7685

     16  C    Isotropic =    46.2651   Anisotropy =   199.6059

     17  H    Isotropic =    21.3227   Anisotropy =     8.6690

     18  C    Isotropic =    49.1038   Anisotropy =   185.4446

     19  H    Isotropic =    24.0078   Anisotropy =     7.0446

     20  C    Isotropic =    52.6539   Anisotropy =   180.3805

     21  H    Isotropic =    24.4485   Anisotropy =     4.2232

     22  C    Isotropic =    51.4331   Anisotropy =   180.8657

     23  H    Isotropic =    24.4479   Anisotropy =     5.4416

     24  C    Isotropic =    51.1906   Anisotropy =   183.0258

     25  H    Isotropic =    24.7060   Anisotropy =    11.6495

     26  C    Isotropic =    38.0139   Anisotropy =   204.2412

     27  C    Isotropic =    40.5770   Anisotropy =   191.5195

     28  H    Isotropic =    23.7104   Anisotropy =     8.6400

     29  C    Isotropic =    49.8910   Anisotropy =   184.0758

     30  H    Isotropic =    24.2099   Anisotropy =     6.4389

     31  C    Isotropic =    47.7824   Anisotropy =   189.9551

     32  H    Isotropic =    24.1604   Anisotropy =     4.4085

     33  C    Isotropic =    49.2572   Anisotropy =   185.0185

     34  H    Isotropic =    24.0023   Anisotropy =     5.5864

     35  C    Isotropic =    39.4957   Anisotropy =   183.9518

     36  H    Isotropic =    23.3309   Anisotropy =     8.3008

     37  C    Isotropic =    34.9890   Anisotropy =   185.2244

     38  C    Isotropic =    45.0300   Anisotropy =   199.5939

     39  H    Isotropic =    23.6610   Anisotropy =     8.9682

     40  C    Isotropic =    50.3812   Anisotropy =   183.9906

     41  H    Isotropic =    24.2818   Anisotropy =     6.9292

     42  C    Isotropic =    53.0712   Anisotropy =   180.0172

     43  H    Isotropic =    24.5969   Anisotropy =     4.1743

     44  C    Isotropic =    50.7884   Anisotropy =   181.9129

     45  H    Isotropic =    24.5663   Anisotropy =     5.8543

     46  C    Isotropic =    52.1384   Anisotropy =   179.0980

     47  H    Isotropic =    24.9566   Anisotropy =    12.4916

     48  C    Isotropic =   108.1173   Anisotropy =    17.4021

     49  H    Isotropic =    28.2198   Anisotropy =     5.5010

     50  C    Isotropic =    -1.0387   Anisotropy =   105.6822

     51  C    Isotropic =   146.4307   Anisotropy =    16.8858

     52  H    Isotropic =    30.0107   Anisotropy =     7.2362

     53  C    Isotropic =   128.7510   Anisotropy =    74.6812

     54  H    Isotropic =    28.7607   Anisotropy =     8.7287

     55  H    Isotropic =    28.6419   Anisotropy =     6.4735

     56  H    Isotropic =    28.3867   Anisotropy =     9.4976

     57  O    Isotropic =   -85.9033   Anisotropy =   596.8210

     58  O    Isotropic =   124.1895   Anisotropy =   141.7683

     59  C    Isotropic =   159.6254   Anisotropy =    33.1761

     60  H    Isotropic =    32.2389   Anisotropy =     8.0867

     61  H    Isotropic =    32.4540   Anisotropy =     7.8958

     62  H    Isotropic =    32.4103   Anisotropy =     6.8627

     63  C    Isotropic =   163.4494   Anisotropy =    34.0021

     64  H    Isotropic =    31.5341   Anisotropy =     7.4525

     65  H    Isotropic =    31.0213   Anisotropy =     7.1729

     66  H    Isotropic =    31.4860   Anisotropy =    10.4188

 The electronic state is 1-A.
 Alpha  occ. eigenvalues --  -77.06801 -77.06495 -19.18296 -19.11971 -14.33444
 Alpha  occ. eigenvalues --  -10.30451 -10.23200 -10.22525 -10.18936 -10.18616
 Alpha  occ. eigenvalues --  -10.18594 -10.18560 -10.18449 -10.18406 -10.18355
 Alpha  occ. eigenvalues --  -10.18276 -10.18261 -10.18250 -10.18106 -10.18043
 Alpha  occ. eigenvalues --  -10.17991 -10.17986 -10.17705 -10.17323 -10.17250
 Alpha  occ. eigenvalues --  -10.17146 -10.17072 -10.17060 -10.16996 -10.16936
 Alpha  occ. eigenvalues --  -10.16691 -10.16632 -10.16466 -10.16071 -10.15853
 Alpha  occ. eigenvalues --   -6.54994  -6.54753  -4.71254  -4.71053  -4.70991
 Alpha  occ. eigenvalues --   -4.70824  -4.70643  -4.70399  -1.11641  -1.02803
 Alpha  occ. eigenvalues --   -0.90354  -0.86596  -0.86327  -0.85405  -0.84997
 Alpha  occ. eigenvalues --   -0.80978  -0.76675  -0.76341  -0.75761  -0.75434
 Alpha  occ. eigenvalues --   -0.75190  -0.74583  -0.74397  -0.74134  -0.74012
 Alpha  occ. eigenvalues --   -0.69648  -0.68937  -0.64682  -0.62591  -0.61567
 Alpha  occ. eigenvalues --   -0.61284  -0.60534  -0.60043  -0.59989  -0.59741
 Alpha  occ. eigenvalues --   -0.59425  -0.57360  -0.56451  -0.55005  -0.52681
 Alpha  occ. eigenvalues --   -0.52123  -0.51578  -0.51465  -0.50482  -0.49589
 Alpha  occ. eigenvalues --   -0.48723  -0.47286  -0.46394  -0.46053  -0.45956
 Alpha  occ. eigenvalues --   -0.45676  -0.45407  -0.45073  -0.44777  -0.44559
 Alpha  occ. eigenvalues --   -0.44264  -0.43811  -0.43335  -0.42943  -0.42878
 Alpha  occ. eigenvalues --   -0.42160  -0.41550  -0.41208  -0.40717  -0.40546
 Alpha  occ. eigenvalues --   -0.39928  -0.39503  -0.38507  -0.37996  -0.37594
 Alpha  occ. eigenvalues --   -0.37433  -0.37210  -0.36777  -0.36601  -0.35823
 Alpha  occ. eigenvalues --   -0.35576  -0.35207  -0.34750  -0.34568  -0.34324
 Alpha  occ. eigenvalues --   -0.34094  -0.33625  -0.32896  -0.32348  -0.31910
 Alpha  occ. eigenvalues --   -0.28963  -0.28184  -0.27294  -0.26749  -0.26680
 Alpha  occ. eigenvalues --   -0.26578  -0.26277  -0.25417  -0.25184  -0.25003
 Alpha  occ. eigenvalues --   -0.22694  -0.17902
 Alpha virt. eigenvalues --   -0.04560  -0.03401  -0.02656  -0.02398  -0.02113
 Alpha virt. eigenvalues --   -0.00978  -0.00945  -0.00469  -0.00152   0.02597
 Alpha virt. eigenvalues --    0.03545   0.04265   0.04512   0.05267   0.05501

 Mulliken charges:
               1
     1  P    0.211359
     2  P    0.212793
     3  N   -0.281233
     4  C   -0.043152
     5  C   -0.108980
     6  H    0.146080
     7  C   -0.141490
     8  H    0.109852
     9  C   -0.080898
    10  H    0.110950
    11  C   -0.132363
    12  H    0.107405
    13  C   -0.131546
    14  H    0.112547
    15  C    0.023703
    16  C   -0.149852
    17  H    0.215341
    18  C   -0.169756
    19  H    0.105119
    20  C   -0.097321
    21  H    0.103590
    22  C   -0.118445
    23  H    0.105477
    24  C   -0.191853
    25  H    0.118618
    26  C    0.034219
    27  C   -0.184986
    28  H    0.158769
    29  C   -0.109687
    30  H    0.109255
    31  C   -0.093222
    32  H    0.112261
    33  C   -0.116069
    34  H    0.109966
    35  C   -0.181852
    36  H    0.131796
    37  C    0.023826
    38  C   -0.130453
    39  H    0.143318
    40  C   -0.156546
    41  H    0.106755
    42  C   -0.093275
    43  H    0.105444
    44  C   -0.133430
    45  H    0.105055
    46  C   -0.190815
    47  H    0.136156
    48  C    0.021800
    49  H    0.077405
    50  C    0.354886
    51  C   -0.030743
    52  H    0.078205
    53  C   -0.191092
    54  H    0.128536
    55  H    0.146791
    56  H    0.128098
    57  O   -0.357822
    58  O   -0.271921
    59  C   -0.364008
    60  H    0.109810
    61  H    0.154387
    62  H    0.110739
    63  C   -0.380489
    64  H    0.113370
    65  H    0.134543
    66  H    0.115078
 Sum of Mulliken charges =  -0.00000

 Dipole moment (field-independent basis, Debye):
    X=             -0.9258    Y=              2.2439    Z=              3.3920  Tot=              4.1711
 Quadrupole moment (field-independent basis, Debye-Ang):
   XX=           -203.2012   YY=           -206.9806   ZZ=           -222.4727
   XY=              3.6940   XZ=             -5.0849   YZ=             -5.2020

 Summary of Natural Population Analysis:

                                       Natural Population
                Natural  -----------------------------------------------
    Atom  No    Charge         Core      Valence    Rydberg      Total
 -----------------------------------------------------------------------
      P    1    1.05248      9.99776     3.90999    0.03976    13.94752
      P    2    1.04499      9.99784     3.91710    0.04006    13.95501
      N    3   -0.99457      1.99957     5.96030    0.03471     7.99457
      C    4   -0.35717      1.99896     4.32407    0.03414     6.35717
      C    5   -0.19515      1.99908     4.17577    0.02030     6.19515
      H    6    0.21673      0.00000     0.78107    0.00221     0.78327
      C    7   -0.20695      1.99918     4.18869    0.01908     6.20695
      H    8    0.20871      0.00000     0.78995    0.00134     0.79129
      C    9   -0.19729      1.99919     4.17888    0.01922     6.19729
      H   10    0.20885      0.00000     0.78997    0.00118     0.79115
      C   11   -0.20613      1.99918     4.18836    0.01859     6.20613
      H   12    0.20971      0.00000     0.78901    0.00128     0.79029
      C   13   -0.19056      1.99909     4.17154    0.01993     6.19056
      H   14    0.21233      0.00000     0.78547    0.00220     0.78767
      C   15   -0.35768      1.99898     4.32552    0.03318     6.35768
      C   16   -0.22650      1.99908     4.20732    0.02010     6.22650
      H   17    0.24557      0.00000     0.75256    0.00188     0.75443
      C   18   -0.19512      1.99919     4.17737    0.01856     6.19512
      H   19    0.20692      0.00000     0.79178    0.00130     0.79308
      C   20   -0.21565      1.99919     4.19690    0.01956     6.21565
      H   21    0.20573      0.00000     0.79308    0.00119     0.79427
      C   22   -0.20180      1.99918     4.18386    0.01876     6.20180
      H   23    0.20686      0.00000     0.79186    0.00128     0.79314
      C   24   -0.20950      1.99909     4.19071    0.01970     6.20950
      H   25    0.21083      0.00000     0.78741    0.00176     0.78917
      C   26   -0.36446      1.99900     4.33107    0.03440     6.36446
      C   27   -0.20085      1.99909     4.18146    0.02030     6.20085
      H   28    0.21950      0.00000     0.77828    0.00222     0.78050
      C   29   -0.20787      1.99918     4.18968    0.01901     6.20787
      H   30    0.20875      0.00000     0.78988    0.00137     0.79125
      C   31   -0.19258      1.99919     4.17437    0.01901     6.19258
      H   32    0.20933      0.00000     0.78949    0.00118     0.79067
      C   33   -0.20718      1.99918     4.18884    0.01916     6.20718
      H   34    0.21020      0.00000     0.78854    0.00126     0.78980
      C   35   -0.18286      1.99910     4.16357    0.02018     6.18286
      H   36    0.21496      0.00000     0.78356    0.00148     0.78504
      C   37   -0.36239      1.99899     4.32933    0.03408     6.36239
      C   38   -0.20150      1.99909     4.18167    0.02074     6.20150
      H   39    0.22310      0.00000     0.77466    0.00223     0.77690
      C   40   -0.19854      1.99918     4.18063    0.01873     6.19854
      H   41    0.20921      0.00000     0.78952    0.00127     0.79079
      C   42   -0.21547      1.99919     4.19662    0.01966     6.21547
      H   43    0.20648      0.00000     0.79233    0.00119     0.79352
      C   44   -0.20169      1.99918     4.18367    0.01883     6.20169
      H   45    0.20680      0.00000     0.79192    0.00128     0.79320
      C   46   -0.21071      1.99910     4.19199    0.01962     6.21071
      H   47    0.21274      0.00000     0.78546    0.00179     0.78726
      C   48   -0.14780      1.99909     4.11548    0.03324     6.14780
      H   49    0.21891      0.00000     0.77773    0.00336     0.78109
      C   50    0.79079      1.99938     3.16995    0.03989     5.20921
      C   51   -0.20180      1.99940     4.18786    0.01454     6.20180
      H   52    0.20861      0.00000     0.78846    0.00293     0.79139
      C   53   -0.25938      1.99925     4.24629    0.01383     6.25938
      H   54    0.18966      0.00000     0.80909    0.00125     0.81034
      H   55    0.19695      0.00000     0.80124    0.00180     0.80305
      H   56    0.18766      0.00000     0.81057    0.00177     0.81234
      O   57   -0.60630      1.99972     6.57927    0.02731     8.60630
      O   58   -0.48576      1.99974     6.46229    0.02374     8.48576
      C   59   -0.59145      1.99943     4.57964    0.01238     6.59145
      H   60    0.20857      0.00000     0.79028    0.00116     0.79143
      H   61    0.21732      0.00000     0.78120    0.00148     0.78268
      H   62    0.19754      0.00000     0.80115    0.00131     0.80246
      C   63   -0.59825      1.99943     4.58728    0.01155     6.59825
      H   64    0.20123      0.00000     0.79735    0.00141     0.79877
      H   65    0.21266      0.00000     0.78618    0.00116     0.78734
      H   66    0.21020      0.00000     0.78865    0.00114     0.78980
 =======================================================================
   * Total *    0.00000     85.96946   177.16506    0.86548   264.00000

 1\1\GINC-G4NODEC3\SP\RB3LYP\def2TZVP\C30H31N1O2P2\ROOT\06-Nov-2024\0\\
 # nmr=giao b3lyp/def2TZVP pop=nbo scfcyc=200\\Ligand 75 SPE NoRh\\0,1\
 P,0,-0.879,1.054,-0.118\P,0,0.872,-0.957,0.306\N,0,0.854,0.777,0.026\C
 ,0,-1.539,2.086,1.265\C,0,-1.741,3.465,1.16\H,0,-1.498,3.986,0.243\C,0
 ,-2.266,4.181,2.23\H,0,-2.419,5.249,2.136\C,0,-2.594,3.53,3.415\H,0,-3
 .003,4.091,4.246\C,0,-2.404,2.157,3.527\H,0,-2.669,1.644,4.443\C,0,-1.
 887,1.438,2.455\H,0,-1.76,0.365,2.536\C,0,-1.305,2.007,-1.633\C,0,-0.4
 02,2.243,-2.668\H,0,0.636,1.958,-2.571\C,0,-0.829,2.879,-3.832\H,0,-0.

 Normal termination of Gaussian 16 at Wed Nov  6 22:28:01 2024.
