 Gaussian 16, Revision B.01,
 Gaussian 16:  ES64L-G16RevB.01 20-Dec-2017

 --------------------------------------------
 # nmr=giao b3lyp/def2TZVP pop=nbo scfcyc=200
 --------------------------------------------

 ------------------
 Ligand 76 SPE NoRh
 ------------------
 Symbolic Z-matrix:
 Charge =  0 Multiplicity = 1

                         Standard orientation:
 ---------------------------------------------------------------------
 Center     Atomic      Atomic             Coordinates (Angstroms)
 Number     Number       Type             X           Y           Z
 ---------------------------------------------------------------------
      1          6           0        1.797526    1.072212    0.940822
      2          6           0        1.510032    2.434520    1.137971
      3          1           0        0.681407    2.702125    1.780012
      4          6           0        2.294041    3.382080    0.539475
      5          1           0        2.094718    4.435648    0.698010
      6          6           0        3.359192    3.003870   -0.312831
      7          6           0        4.121428    3.975262   -1.008408
      8          1           0        3.893216    5.023532   -0.851957
      9          6           0        5.116690    3.602729   -1.873219
     10          1           0        5.688496    4.351661   -2.404620
     11          6           0        5.384420    2.233895   -2.084502
     12          1           0        6.152478    1.941685   -2.788899
     13          6           0        4.677902    1.268747   -1.411847
     14          1           0        4.895650    0.226280   -1.594903
     15          6           0        3.656056    1.615159   -0.491647
     16          6           0        2.891573    0.630278    0.224763
     17          6           0        2.304997   -1.749405   -0.185275
     18          6           0        2.595966   -3.116897   -0.343500
     19          1           0        1.816566   -3.777688   -0.697621
     20          6           0        3.856356   -3.569444   -0.064637
     21          1           0        4.102597   -4.615817   -0.199914
     22          6           0        4.848765   -2.687453    0.427901
     23          6           0        6.132093   -3.163363    0.795635
     24          1           0        6.353552   -4.215379    0.658350
     25          6           0        7.070490   -2.318698    1.327587
     26          1           0        8.046030   -2.692828    1.609644
     27          6           0        6.757615   -0.957603    1.522652
     28          1           0        7.491396   -0.298264    1.968260
     29          6           0        5.531554   -0.459887    1.158799
     30          1           0        5.311471    0.585074    1.321329
     31          6           0        4.543207   -1.297641    0.581434
     32          6           0        3.244967   -0.815046    0.194675
     33          6           0       -3.790755   -0.177323    1.646723
     34          6           0       -3.418172    1.101578    2.064562
     35          1           0       -2.465598    1.513751    1.764590
     36          6           0       -4.278343    1.856692    2.853688
     37          1           0       -3.986555    2.853727    3.158495
     38          6           0       -5.506494    1.337520    3.247325
     39          1           0       -6.174068    1.927966    3.862908
     40          6           0       -5.875594    0.055384    2.850377
     41          1           0       -6.829839   -0.355108    3.156297
     42          6           0       -5.022607   -0.702128    2.057051
     43          1           0       -5.326440   -1.696650    1.756891
     44          6           0       -3.525955   -2.189457   -0.505283
     45          6           0       -4.741436   -1.750526   -1.038686
     46          1           0       -5.192791   -0.832491   -0.688082
     47          6           0       -5.379052   -2.493212   -2.026002
     48          1           0       -6.320546   -2.146858   -2.433543
     49          6           0       -4.812071   -3.676009   -2.489197
     50          1           0       -5.311852   -4.251892   -3.258448
     51          6           0       -3.604162   -4.121902   -1.959821
     52          1           0       -3.162650   -5.044945   -2.314299
     53          6           0       -2.967226   -3.386463   -0.968631
     54          1           0       -2.030082   -3.739118   -0.551958
     55          6           0       -1.279133    0.565197   -1.203101
     56          1           0       -0.280493    1.003429   -1.161249
     57          6           0       -1.354656   -0.262697   -2.488509
     58          1           0       -0.567723   -1.014840   -2.496622
     59          1           0       -1.214156    0.395207   -3.347585
     60          1           0       -2.313313   -0.765376   -2.603635
     61          7           0       -1.326026   -0.307449    0.030617
     62          8           0        0.944475    0.168034    1.587175
     63          8           0        0.993597   -1.342641   -0.467893
     64         15           0        0.027113   -0.971542    0.825208
     65         15           0       -2.596766   -1.268549    0.785136
     66          6           0       -2.260137    1.726810   -1.158450
     67          6           0       -3.555120    1.630415   -1.671201
     68          6           0       -1.844758    2.953301   -0.633413
     69          6           0       -4.419600    2.720602   -1.631283
     70          1           0       -3.892801    0.709498   -2.124065
     71          6           0       -2.703503    4.044683   -0.595414
     72          1           0       -0.830700    3.058400   -0.266300
     73          6           0       -3.999194    3.929560   -1.089119
     74          1           0       -5.418964    2.628093   -2.038340
     75          1           0       -2.357936    4.990155   -0.194346
     76          1           0       -4.670086    4.779338   -1.066902
 ---------------------------------------------------------------------

 SCF Done:  E(RB3LYP) =  -2431.57600864     A.U. after   15 cycles

      1  C    Isotropic =    23.2536   Anisotropy =   130.8595

      2  C    Isotropic =    55.7069   Anisotropy =   151.2099

      3  H    Isotropic =    23.6635   Anisotropy =     6.7141

      4  C    Isotropic =    48.2141   Anisotropy =   158.6739

      5  H    Isotropic =    23.4706   Anisotropy =     7.1940

      6  C    Isotropic =    45.2629   Anisotropy =   212.1242

      7  C    Isotropic =    49.4960   Anisotropy =   161.0645

      8  H    Isotropic =    23.6166   Anisotropy =     7.6283

      9  C    Isotropic =    54.1812   Anisotropy =   177.9637

     10  H    Isotropic =    24.2361   Anisotropy =     4.7423

     11  C    Isotropic =    52.1582   Anisotropy =   180.9666

     12  H    Isotropic =    24.4221   Anisotropy =     7.5764

     13  C    Isotropic =    49.5899   Anisotropy =   179.6808

     14  H    Isotropic =    24.3631   Anisotropy =    14.0033

     15  C    Isotropic =    42.0558   Anisotropy =   206.3266

     16  C    Isotropic =    52.1617   Anisotropy =   140.8737

     17  C    Isotropic =    23.4929   Anisotropy =   113.5772

     18  C    Isotropic =    56.7282   Anisotropy =   147.5137

     19  H    Isotropic =    23.9551   Anisotropy =     8.3998

     20  C    Isotropic =    47.4007   Anisotropy =   158.5350

     21  H    Isotropic =    23.5695   Anisotropy =     7.4617

     22  C    Isotropic =    44.4847   Anisotropy =   211.8964

     23  C    Isotropic =    49.4099   Anisotropy =   160.7158

     24  H    Isotropic =    23.6506   Anisotropy =     7.4410

     25  C    Isotropic =    54.1928   Anisotropy =   177.4142

     26  H    Isotropic =    24.2342   Anisotropy =     4.7344

     27  C    Isotropic =    52.5071   Anisotropy =   180.6443

     28  H    Isotropic =    24.4422   Anisotropy =     7.9519

     29  C    Isotropic =    50.0008   Anisotropy =   178.9777

     30  H    Isotropic =    24.4544   Anisotropy =    15.0994

     31  C    Isotropic =    42.0854   Anisotropy =   205.2076

     32  C    Isotropic =    51.4786   Anisotropy =   137.2932

     33  C    Isotropic =    37.0121   Anisotropy =   180.9865

     34  C    Isotropic =    49.3732   Anisotropy =   193.4135

     35  H    Isotropic =    24.7390   Anisotropy =     7.1096

     36  C    Isotropic =    50.3221   Anisotropy =   185.4948

     37  H    Isotropic =    24.7840   Anisotropy =     7.6858

     38  C    Isotropic =    53.5246   Anisotropy =   180.1010

     39  H    Isotropic =    24.7776   Anisotropy =     4.3809

     40  C    Isotropic =    51.4101   Anisotropy =   182.3064

     41  H    Isotropic =    24.5895   Anisotropy =     5.1542

     42  C    Isotropic =    51.5561   Anisotropy =   182.6039

     43  H    Isotropic =    24.5879   Anisotropy =    11.2698

     44  C    Isotropic =    36.0100   Anisotropy =   198.5518

     45  C    Isotropic =    44.2582   Anisotropy =   192.5998

     46  H    Isotropic =    23.4984   Anisotropy =     9.5711

     47  C    Isotropic =    50.3089   Anisotropy =   182.3767

     48  H    Isotropic =    24.2378   Anisotropy =     6.2691

     49  C    Isotropic =    48.5039   Anisotropy =   187.4597

     50  H    Isotropic =    24.2007   Anisotropy =     4.3895

     51  C    Isotropic =    49.1006   Anisotropy =   184.2868

     52  H    Isotropic =    24.0489   Anisotropy =     5.8852

     53  C    Isotropic =    41.0273   Anisotropy =   186.2164

     54  H    Isotropic =    23.4035   Anisotropy =     9.3065

     55  C    Isotropic =   117.2780   Anisotropy =    23.1309

     56  H    Isotropic =    27.3155   Anisotropy =    10.0251

     57  C    Isotropic =   160.8543   Anisotropy =    25.7218

     58  H    Isotropic =    30.5614   Anisotropy =     5.5421

     59  H    Isotropic =    31.6535   Anisotropy =     8.3658

     60  H    Isotropic =    31.1490   Anisotropy =     9.8529

     61  N    Isotropic =   101.3835   Anisotropy =    73.9426

     62  O    Isotropic =   125.2811   Anisotropy =    81.0688

     63  O    Isotropic =   135.1374   Anisotropy =    67.0524

     64  P    Isotropic =   112.4701   Anisotropy =   214.8279

     65  P    Isotropic =   205.9936   Anisotropy =    78.6455

     66  C    Isotropic =    32.8190   Anisotropy =   199.6379

     67  C    Isotropic =    49.2740   Anisotropy =   191.5331

     68  C    Isotropic =    46.6257   Anisotropy =   167.9202

     69  C    Isotropic =    50.1871   Anisotropy =   185.6904

     70  H    Isotropic =    24.4516   Anisotropy =     7.6123

     71  C    Isotropic =    50.3213   Anisotropy =   182.2884

     72  H    Isotropic =    24.0476   Anisotropy =     7.5478

     73  C    Isotropic =    50.6554   Anisotropy =   185.6317

     74  H    Isotropic =    24.6826   Anisotropy =     5.7771

     75  H    Isotropic =    24.2659   Anisotropy =     6.5694

     76  H    Isotropic =    24.5686   Anisotropy =     3.8462

 The electronic state is 1-A.
 Alpha  occ. eigenvalues --  -77.12084 -77.07201 -19.15295 -19.15277 -14.33335
 Alpha  occ. eigenvalues --  -10.24327 -10.24291 -10.22224 -10.19711 -10.19649
 Alpha  occ. eigenvalues --  -10.19568 -10.19490 -10.19155 -10.18981 -10.18977
 Alpha  occ. eigenvalues --  -10.18741 -10.18553 -10.18535 -10.18512 -10.18511
 Alpha  occ. eigenvalues --  -10.18390 -10.18378 -10.18362 -10.18317 -10.18314
 Alpha  occ. eigenvalues --  -10.18232 -10.18183 -10.17992 -10.17990 -10.17898
 Alpha  occ. eigenvalues --  -10.17820 -10.17803 -10.17782 -10.17773 -10.17729
 Alpha  occ. eigenvalues --  -10.17703 -10.17631 -10.17587 -10.17581 -10.17507
 Alpha  occ. eigenvalues --  -10.17375 -10.17244 -10.17145 -10.17102 -10.15888
 Alpha  occ. eigenvalues --   -6.59459  -6.55461  -4.75728  -4.75615  -4.75052
 Alpha  occ. eigenvalues --   -4.71725  -4.71524  -4.71104  -1.07176  -1.03353
 Alpha  occ. eigenvalues --   -0.90793  -0.89040  -0.87823  -0.86677  -0.86007
 Alpha  occ. eigenvalues --   -0.85536  -0.83477  -0.82587  -0.80449  -0.78469
 Alpha  occ. eigenvalues --   -0.76797  -0.76542  -0.75773  -0.75148  -0.75029
 Alpha  occ. eigenvalues --   -0.74735  -0.74580  -0.74503  -0.74108  -0.72677
 Alpha  occ. eigenvalues --   -0.71530  -0.66737  -0.65449  -0.64056  -0.63267
 Alpha  occ. eigenvalues --   -0.62785  -0.61871  -0.61687  -0.61653  -0.60997
 Alpha  occ. eigenvalues --   -0.60600  -0.60167  -0.59240  -0.58424  -0.58403
 Alpha  occ. eigenvalues --   -0.55667  -0.54540  -0.53509  -0.52852  -0.52572
 Alpha  occ. eigenvalues --   -0.52220  -0.51616  -0.50501  -0.50145  -0.50119
 Alpha  occ. eigenvalues --   -0.47863  -0.47197  -0.46956  -0.46615  -0.46350
 Alpha  occ. eigenvalues --   -0.45985  -0.45777  -0.45747  -0.45238  -0.45142
 Alpha  occ. eigenvalues --   -0.44578  -0.44398  -0.43836  -0.43368  -0.43221
 Alpha  occ. eigenvalues --   -0.43018  -0.42968  -0.42666  -0.42526  -0.42355
 Alpha  occ. eigenvalues --   -0.42266  -0.41635  -0.41058  -0.40189  -0.40081
 Alpha  occ. eigenvalues --   -0.39805  -0.39090  -0.38914  -0.38601  -0.38307
 Alpha  occ. eigenvalues --   -0.37651  -0.36885  -0.36708  -0.36262  -0.35949
 Alpha  occ. eigenvalues --   -0.35715  -0.35619  -0.35257  -0.35211  -0.34677
 Alpha  occ. eigenvalues --   -0.34584  -0.34122  -0.33687  -0.33337  -0.33072
 Alpha  occ. eigenvalues --   -0.32258  -0.31966  -0.30061  -0.28882  -0.28153
 Alpha  occ. eigenvalues --   -0.27886  -0.26862  -0.26544  -0.26338  -0.25902
 Alpha  occ. eigenvalues --   -0.25548  -0.25242  -0.24854  -0.23910  -0.22929
 Alpha  occ. eigenvalues --   -0.21765  -0.19097
 Alpha virt. eigenvalues --   -0.06123  -0.04932  -0.04051  -0.02762  -0.02634
 Alpha virt. eigenvalues --   -0.02262  -0.02034  -0.01641  -0.01595  -0.00996
 Alpha virt. eigenvalues --    0.00475   0.01863   0.02072   0.03223   0.03963

 Mulliken charges:
               1
     1  C    0.167013
     2  C   -0.266175
     3  H    0.133956
     4  C   -0.160614
     5  H    0.103084
     6  C    0.171584
     7  C   -0.166155
     8  H    0.100283
     9  C   -0.105535
    10  H    0.107811
    11  C   -0.105368
    12  H    0.110132
    13  C   -0.173097
    14  H    0.135028
    15  C   -0.117623
    16  C    0.171594
    17  C    0.304738
    18  C   -0.240291
    19  H    0.113517
    20  C   -0.176442
    21  H    0.101947
    22  C    0.158819
    23  C   -0.157436
    24  H    0.100876
    25  C   -0.109371
    26  H    0.107327
    27  C   -0.102359
    28  H    0.109402
    29  C   -0.180150
    30  H    0.134903
    31  C   -0.109329
    32  C    0.126975
    33  C    0.069030
    34  C   -0.144970
    35  H    0.146755
    36  C   -0.128027
    37  H    0.099270
    38  C   -0.105129
    39  H    0.105057
    40  C   -0.110355
    41  H    0.106767
    42  C   -0.219814
    43  H    0.130594
    44  C    0.021523
    45  C   -0.223507
    46  H    0.178261
    47  C   -0.109156
    48  H    0.110386
    49  C   -0.094648
    50  H    0.112432
    51  C   -0.112859
    52  H    0.110610
    53  C   -0.153149
    54  H    0.122481
    55  C   -0.031003
    56  H    0.108425
    57  C   -0.370912
    58  H    0.134252
    59  H    0.114034
    60  H    0.128473
    61  N   -0.257626
    62  O   -0.343139
    63  O   -0.378891
    64  P    0.455589
    65  P    0.204849
    66  C    0.136248
    67  C   -0.179252
    68  C   -0.204827
    69  C   -0.106069
    70  H    0.151730
    71  C   -0.117329
    72  H    0.154491
    73  C   -0.113067
    74  H    0.104172
    75  H    0.102620
    76  H    0.106637
 Sum of Mulliken charges =  -0.00000

 Dipole moment (field-independent basis, Debye):
    X=             -0.2593    Y=              1.0042    Z=             -2.4260  Tot=              2.6384
 Quadrupole moment (field-independent basis, Debye-Ang):
   XX=           -246.3454   YY=           -249.9659   ZZ=           -281.1691
   XY=             -1.6374   XZ=              3.1561   YZ=             11.0928

 Summary of Natural Population Analysis:

                                       Natural Population
                Natural  -----------------------------------------------
    Atom  No    Charge         Core      Valence    Rydberg      Total
 -----------------------------------------------------------------------
      C    1    0.28680      1.99860     3.69135    0.02325     5.71320
      C    2   -0.24363      1.99904     4.22554    0.01904     6.24363
      H    3    0.22376      0.00000     0.77476    0.00148     0.77624
      C    4   -0.15979      1.99913     4.14364    0.01702     6.15979
      H    5    0.20879      0.00000     0.78986    0.00135     0.79121
      C    6   -0.07277      1.99907     4.05472    0.01897     6.07277
      C    7   -0.17310      1.99913     4.15562    0.01836     6.17310
      H    8    0.20614      0.00000     0.79245    0.00140     0.79386
      C    9   -0.21083      1.99918     4.19254    0.01911     6.21083
      H   10    0.20957      0.00000     0.78928    0.00115     0.79043
      C   11   -0.19581      1.99919     4.17833    0.01829     6.19581
      H   12    0.20968      0.00000     0.78913    0.00119     0.79032
      C   13   -0.18826      1.99911     4.17098    0.01818     6.18826
      H   14    0.21891      0.00000     0.77961    0.00148     0.78109
      C   15   -0.02950      1.99902     4.01129    0.01919     6.02950
      C   16   -0.07478      1.99884     4.05396    0.02199     6.07478
      C   17    0.28920      1.99863     3.68755    0.02462     5.71080
      C   18   -0.23383      1.99905     4.21536    0.01942     6.23383
      H   19    0.22352      0.00000     0.77524    0.00124     0.77648
      C   20   -0.15750      1.99914     4.14033    0.01804     6.15750
      H   21    0.20905      0.00000     0.78963    0.00132     0.79095
      C   22   -0.06963      1.99907     4.05166    0.01890     6.06963
      C   23   -0.17271      1.99913     4.15524    0.01835     6.17271
      H   24    0.20618      0.00000     0.79242    0.00140     0.79382
      C   25   -0.21059      1.99918     4.19228    0.01913     6.21059
      H   26    0.20936      0.00000     0.78949    0.00115     0.79064
      C   27   -0.19609      1.99919     4.17860    0.01830     6.19609
      H   28    0.20941      0.00000     0.78940    0.00119     0.79059
      C   29   -0.18758      1.99911     4.17035    0.01813     6.18758
      H   30    0.21815      0.00000     0.78035    0.00150     0.78185
      C   31   -0.02965      1.99902     4.01143    0.01920     6.02965
      C   32   -0.07136      1.99884     4.05092    0.02161     6.07136
      C   33   -0.35205      1.99898     4.32023    0.03285     6.35205
      C   34   -0.19968      1.99908     4.17964    0.02095     6.19968
      H   35    0.21637      0.00000     0.78138    0.00226     0.78363
      C   36   -0.19332      1.99918     4.17541    0.01872     6.19332
      H   37    0.20719      0.00000     0.79153    0.00128     0.79281
      C   38   -0.21432      1.99919     4.19569    0.01945     6.21432
      H   39    0.20673      0.00000     0.79209    0.00118     0.79327
      C   40   -0.19839      1.99919     4.18057    0.01863     6.19839
      H   41    0.20765      0.00000     0.79108    0.00127     0.79235
      C   42   -0.21254      1.99909     4.19406    0.01939     6.21254
      H   43    0.21138      0.00000     0.78685    0.00177     0.78862
      C   44   -0.35984      1.99897     4.32606    0.03481     6.35984
      C   45   -0.20340      1.99908     4.18416    0.02016     6.20340
      H   46    0.22034      0.00000     0.77729    0.00237     0.77966
      C   47   -0.20702      1.99918     4.18898    0.01886     6.20702
      H   48    0.20919      0.00000     0.78946    0.00136     0.79081
      C   49   -0.19761      1.99919     4.17923    0.01919     6.19761
      H   50    0.20967      0.00000     0.78916    0.00117     0.79033
      C   51   -0.20408      1.99918     4.18572    0.01918     6.20408
      H   52    0.21082      0.00000     0.78792    0.00125     0.78918
      C   53   -0.18553      1.99910     4.16657    0.01986     6.18553
      H   54    0.21728      0.00000     0.78125    0.00148     0.78272
      C   55   -0.06275      1.99924     4.03533    0.02818     6.06275
      H   56    0.20675      0.00000     0.79004    0.00321     0.79325
      C   57   -0.60112      1.99941     4.58925    0.01246     6.60112
      H   58    0.22488      0.00000     0.77407    0.00104     0.77512
      H   59    0.21034      0.00000     0.78869    0.00098     0.78966
      H   60    0.20637      0.00000     0.79233    0.00130     0.79363
      N   61   -1.04226      1.99956     6.00708    0.03561     8.04226
      O   62   -0.77166      1.99978     6.74694    0.02494     8.77166
      O   63   -0.78414      1.99978     6.75819    0.02618     8.78414
      P   64    1.53466      9.99820     3.37875    0.08838    13.46534
      P   65    1.03438      9.99778     3.92739    0.04045    13.96562
      C   66   -0.02960      1.99902     4.00825    0.02233     6.02960
      C   67   -0.20344      1.99907     4.18618    0.01819     6.20344
      C   68   -0.20335      1.99908     4.18520    0.01907     6.20335
      C   69   -0.19608      1.99919     4.17843    0.01845     6.19608
      H   70    0.21116      0.00000     0.78693    0.00191     0.78884
      C   71   -0.20122      1.99919     4.18352    0.01852     6.20122
      H   72    0.20920      0.00000     0.78847    0.00233     0.79080
      C   73   -0.20416      1.99919     4.18591    0.01907     6.20416
      H   74    0.20712      0.00000     0.79164    0.00124     0.79288
      H   75    0.20683      0.00000     0.79193    0.00124     0.79317
      H   76    0.20812      0.00000     0.79070    0.00117     0.79188
 =======================================================================
   * Total *   -0.00000    105.95857   216.97282    1.06861   324.00000

 1\1\GINC-G4NODEC1\SP\RB3LYP\def2TZVP\C40H31N1O2P2\ROOT\06-Nov-2024\0\\
 # nmr=giao b3lyp/def2TZVP pop=nbo scfcyc=200\\Ligand 76 SPE NoRh\\0,1\
 C,0,-2.242,1.202,-1.075\C,0,-2.119,2.347,-1.882\H,0,-1.275,2.419,-2.55
 5\C,0,-3.075,3.323,-1.817\H,0,-3.002,4.202,-2.447\C,0,-4.158,3.213,-0.
 912\C,0,-5.105,4.258,-0.772\H,0,-5.003,5.138,-1.397\C,0,-6.121,4.17,0.
 143\H,0,-6.835,4.976,0.247\C,0,-6.225,3.029,0.966\H,0,-7.012,2.974,1.7
 07\C,0,-5.336,1.991,0.842\H,0,-5.431,1.13,1.488\C,0,-4.285,2.035,-0.10
 9\C,0,-3.332,0.969,-0.261\C,0,-2.479,-0.825,1.232\C,0,-2.601,-1.993,2.

 Normal termination of Gaussian 16 at Wed Nov  6 23:20:08 2024.
