 Gaussian 16, Revision B.01,
 Gaussian 16:  ES64L-G16RevB.01 20-Dec-2017

 --------------------------------------------
 # nmr=giao b3lyp/def2TZVP pop=nbo scfcyc=200
 --------------------------------------------

 ------------------
 Ligand 77 SPE NoRh
 ------------------
 Symbolic Z-matrix:
 Charge =  0 Multiplicity = 1

                         Standard orientation:
 ---------------------------------------------------------------------
 Center     Atomic      Atomic             Coordinates (Angstroms)
 Number     Number       Type             X           Y           Z
 ---------------------------------------------------------------------
      1          6           0        0.000015    0.000315    1.195720
      2          1           0        0.340594    0.813203    1.835555
      3          1           0       -0.340555   -0.812315    1.836886
      4          6           0        1.417315   -2.394871    0.280190
      5          1           0        1.748181   -2.595900    1.299228
      6          1           0        2.113987   -2.851504   -0.420723
      7          1           0        0.437995   -2.845210    0.125288
      8          6           0        2.971140    0.184066    0.453661
      9          6           0        4.014635   -0.519856   -0.467206
     10          1           0        3.582558   -0.617752   -1.469183
     11          1           0        4.116917   -1.540853   -0.089002
     12          6           0        3.228948   -0.102817    1.942716
     13          1           0        3.358197   -1.167869    2.140929
     14          1           0        2.419213    0.264883    2.575649
     15          1           0        4.138305    0.398606    2.271608
     16          6           0        2.842209    1.699114    0.234357
     17          1           0        3.754569    2.205532    0.546249
     18          1           0        2.033509    2.117807    0.837279
     19          1           0        2.651379    1.951039   -0.809692
     20          6           0       -1.417300    2.395134    0.279250
     21          1           0       -1.748149    2.597572    1.298212
     22          1           0       -2.114983    2.851486   -0.421836
     23          1           0       -0.437983    2.845411    0.124152
     24          6           0       -2.971122   -0.183734    0.453780
     25          6           0       -3.228907    0.103748    1.942725
     26          1           0       -4.137259   -0.397544    2.271832
     27          1           0       -3.358153    1.168879    2.140512
     28          1           0       -2.419162   -0.263698    2.575792
     29          6           0       -4.014632    0.519819   -0.467353
     30          1           0       -3.582571    0.616313   -1.469376
     31          1           0       -4.116907    1.540968   -0.089557
     32          6           0       -2.842194   -1.698869    0.235084
     33          1           0       -2.033485   -2.117320    0.838161
     34          1           0       -2.651381   -1.951214   -0.808867
     35          1           0       -3.754550   -2.205162    0.547192
     36         15           0        1.284598   -0.576842   -0.043174
     37         15           0       -1.284587    0.576975   -0.044386
     38          6           0       -5.469009   -0.011199   -0.697235
     39          6           0       -6.219235   -0.344408    0.601838
     40          1           0       -5.809850   -1.219596    1.108010
     41          1           0       -6.208637    0.493725    1.301669
     42          1           0       -7.264395   -0.567714    0.376891
     43          6           0       -5.503877   -1.228364   -1.639990
     44          1           0       -4.988733   -1.014917   -2.580037
     45          1           0       -5.056503   -2.119593   -1.202815
     46          1           0       -6.539054   -1.475682   -1.887933
     47          6           0       -6.219200    1.141191   -1.399461
     48          1           0       -7.236417    0.837859   -1.652392
     49          1           0       -6.284571    2.024366   -0.758638
     50          1           0       -5.722000    1.434653   -2.328524
     51          6           0        5.469009    0.010070   -0.697324
     52          6           0        5.503862    1.227856   -1.640569
     53          1           0        4.988704    1.014031   -2.580522
     54          1           0        5.056495    2.118260   -1.203744
     55          1           0        6.539035    1.475074   -1.888626
     56          6           0        6.219189   -1.142602   -1.399098
     57          1           0        7.236401   -0.839372   -1.652167
     58          1           0        6.283570   -2.024519   -0.757922
     59          1           0        5.721975   -1.435437   -2.328036
     60          6           0        6.219255    0.344800    0.601603
     61          1           0        5.809878    1.220191    1.107431
     62          1           0        6.208668   -0.493052    1.301772
     63          1           0        7.264412    0.568016    0.376550
 ---------------------------------------------------------------------

 SCF Done:  E(RB3LYP) =  -1432.34501806     A.U. after   15 cycles

      1  C    Isotropic =   162.5574   Anisotropy =    23.2047

      2  H    Isotropic =    31.0558   Anisotropy =     5.8066

      3  H    Isotropic =    31.0430   Anisotropy =     5.8081

      4  C    Isotropic =   176.5550   Anisotropy =    16.3203

      5  H    Isotropic =    30.8818   Anisotropy =     7.3795

      6  H    Isotropic =    31.2043   Anisotropy =     9.3877

      7  H    Isotropic =    30.9085   Anisotropy =     9.0028

      8  C    Isotropic =   142.6510   Anisotropy =    21.6540

      9  C    Isotropic =   130.4225   Anisotropy =    32.4434

     10  H    Isotropic =    30.5265   Anisotropy =     6.4971

     11  H    Isotropic =    30.8714   Anisotropy =     7.7512

     12  C    Isotropic =   159.4256   Anisotropy =    34.4162

     13  H    Isotropic =    30.7921   Anisotropy =     6.7816

     14  H    Isotropic =    31.0169   Anisotropy =     6.6260

     15  H    Isotropic =    30.3722   Anisotropy =     7.9234

     16  C    Isotropic =   158.3640   Anisotropy =    26.2843

     17  H    Isotropic =    30.6768   Anisotropy =     7.5748

     18  H    Isotropic =    31.1602   Anisotropy =     7.6448

     19  H    Isotropic =    30.7440   Anisotropy =     6.5332

     20  C    Isotropic =   176.4942   Anisotropy =    16.2989

     21  H    Isotropic =    30.8790   Anisotropy =     7.3772

     22  H    Isotropic =    31.1886   Anisotropy =     9.3804

     23  H    Isotropic =    30.9047   Anisotropy =     8.9962

     24  C    Isotropic =   142.6225   Anisotropy =    21.6405

     25  C    Isotropic =   159.4754   Anisotropy =    34.4495

     26  H    Isotropic =    30.3931   Anisotropy =     7.9235

     27  H    Isotropic =    30.7951   Anisotropy =     6.7867

     28  H    Isotropic =    31.0200   Anisotropy =     6.6297

     29  C    Isotropic =   130.3791   Anisotropy =    32.4237

     30  H    Isotropic =    30.5265   Anisotropy =     6.5030

     31  H    Isotropic =    30.8679   Anisotropy =     7.7511

     32  C    Isotropic =   158.3691   Anisotropy =    26.2728

     33  H    Isotropic =    31.1596   Anisotropy =     7.6453

     34  H    Isotropic =    30.7439   Anisotropy =     6.5320

     35  H    Isotropic =    30.6767   Anisotropy =     7.5756

     36  P    Isotropic =   232.4896   Anisotropy =   100.4263

     37  P    Isotropic =   232.2793   Anisotropy =   100.3910

     38  C    Isotropic =   143.2637   Anisotropy =    15.4568

     39  C    Isotropic =   153.5916   Anisotropy =    33.6714

     40  H    Isotropic =    30.6434   Anisotropy =     5.6021

     41  H    Isotropic =    30.9594   Anisotropy =     6.8093

     42  H    Isotropic =    31.0865   Anisotropy =     9.3065

     43  C    Isotropic =   152.0181   Anisotropy =    44.5779

     44  H    Isotropic =    31.0679   Anisotropy =     7.5038

     45  H    Isotropic =    30.4014   Anisotropy =     5.2263

     46  H    Isotropic =    31.1680   Anisotropy =     9.4456

     47  C    Isotropic =   145.5330   Anisotropy =    57.5389

     48  H    Isotropic =    31.2401   Anisotropy =     9.7254

     49  H    Isotropic =    31.0554   Anisotropy =     7.9115

     50  H    Isotropic =    30.8692   Anisotropy =     7.9225

     51  C    Isotropic =   143.2148   Anisotropy =    15.4436

     52  C    Isotropic =   152.0197   Anisotropy =    44.6499

     53  H    Isotropic =    31.0714   Anisotropy =     7.5043

     54  H    Isotropic =    30.4191   Anisotropy =     5.2200

     55  H    Isotropic =    31.1698   Anisotropy =     9.4445

     56  C    Isotropic =   145.6291   Anisotropy =    57.4778

     57  H    Isotropic =    31.2416   Anisotropy =     9.7294

     58  H    Isotropic =    31.0751   Anisotropy =     7.9105

     59  H    Isotropic =    30.8774   Anisotropy =     7.9214

     60  C    Isotropic =   153.5780   Anisotropy =    33.6662

     61  H    Isotropic =    30.6423   Anisotropy =     5.5980

     62  H    Isotropic =    30.9605   Anisotropy =     6.8109

     63  H    Isotropic =    31.0864   Anisotropy =     9.3056

 The electronic state is 1-A.
 Alpha  occ. eigenvalues --  -77.03233 -77.03223 -10.18667 -10.18665 -10.18559
 Alpha  occ. eigenvalues --  -10.18557 -10.17428 -10.16557 -10.16556 -10.16416
 Alpha  occ. eigenvalues --  -10.16408 -10.16127 -10.16127 -10.15708 -10.15699
 Alpha  occ. eigenvalues --  -10.15686 -10.15685 -10.15599 -10.15590 -10.15391
 Alpha  occ. eigenvalues --  -10.15382  -6.51804  -6.51796  -4.67969  -4.67961
 Alpha  occ. eigenvalues --   -4.67902  -4.67894  -4.67418  -4.67410  -0.83142
 Alpha  occ. eigenvalues --   -0.83066  -0.79597  -0.79158  -0.74308  -0.71806
 Alpha  occ. eigenvalues --   -0.69686  -0.69196  -0.69174  -0.69159  -0.68566
 Alpha  occ. eigenvalues --   -0.68007  -0.67993  -0.67711  -0.67533  -0.58875
 Alpha  occ. eigenvalues --   -0.58075  -0.53656  -0.52995  -0.51022  -0.50793
 Alpha  occ. eigenvalues --   -0.46630  -0.46539  -0.46054  -0.45990  -0.45369
 Alpha  occ. eigenvalues --   -0.45008  -0.43701  -0.43321  -0.42972  -0.42668
 Alpha  occ. eigenvalues --   -0.42550  -0.42360  -0.41823  -0.41219  -0.40485
 Alpha  occ. eigenvalues --   -0.40085  -0.39730  -0.39514  -0.39416  -0.38688
 Alpha  occ. eigenvalues --   -0.38318  -0.38121  -0.37650  -0.37250  -0.36573
 Alpha  occ. eigenvalues --   -0.36556  -0.36400  -0.36250  -0.34594  -0.34504
 Alpha  occ. eigenvalues --   -0.34144  -0.33594  -0.33402  -0.33357  -0.32051
 Alpha  occ. eigenvalues --   -0.31999  -0.31568  -0.31205  -0.30844  -0.28529
 Alpha  occ. eigenvalues --   -0.27546  -0.21635  -0.17825
 Alpha virt. eigenvalues --    0.01531   0.01807   0.02518   0.04100   0.04151
 Alpha virt. eigenvalues --    0.04701   0.05973   0.06236   0.06560   0.06880
 Alpha virt. eigenvalues --    0.06966   0.07209   0.07502   0.07858   0.07988

 Mulliken charges:
               1
     1  C   -0.396979
     2  H    0.117817
     3  H    0.117751
     4  C   -0.455700
     5  H    0.112365
     6  H    0.134619
     7  H    0.136700
     8  C    0.188243
     9  C   -0.284961
    10  H    0.104491
    11  H    0.100849
    12  C   -0.393427
    13  H    0.111558
    14  H    0.106425
    15  H    0.111352
    16  C   -0.424801
    17  H    0.109164
    18  H    0.106594
    19  H    0.137318
    20  C   -0.455907
    21  H    0.112402
    22  H    0.134571
    23  H    0.136719
    24  C    0.188193
    25  C   -0.393426
    26  H    0.111490
    27  H    0.111520
    28  H    0.106362
    29  C   -0.284859
    30  H    0.104450
    31  H    0.100904
    32  C   -0.424878
    33  H    0.106625
    34  H    0.137316
    35  H    0.109162
    36  P    0.157681
    37  P    0.158113
    38  C    0.118653
    39  C   -0.366193
    40  H    0.105873
    41  H    0.114284
    42  H    0.108917
    43  C   -0.361596
    44  H    0.111774
    45  H    0.114232
    46  H    0.104450
    47  C   -0.349890
    48  H    0.107391
    49  H    0.104859
    50  H    0.109311
    51  C    0.118604
    52  C   -0.361694
    53  H    0.111716
    54  H    0.114331
    55  H    0.104424
    56  C   -0.349601
    57  H    0.107352
    58  H    0.104903
    59  H    0.109283
    60  C   -0.366308
    61  H    0.105927
    62  H    0.114238
    63  H    0.108943
 Sum of Mulliken charges =  -0.00000

 Dipole moment (field-independent basis, Debye):
    X=             -0.0013    Y=             -0.0010    Z=              1.6636  Tot=              1.6636
 Quadrupole moment (field-independent basis, Debye-Ang):
   XX=           -152.4787   YY=           -154.7136   ZZ=           -160.2401
   XY=             -0.2879   XZ=             -0.0018   YZ=              0.0038

 Summary of Natural Population Analysis:

                                       Natural Population
                Natural  -----------------------------------------------
    Atom  No    Charge         Core      Valence    Rydberg      Total
 -----------------------------------------------------------------------
      C    1   -1.04186      1.99946     5.00969    0.03270     7.04186
      H    2    0.23857      0.00000     0.75858    0.00285     0.76143
      H    3    0.23861      0.00000     0.75854    0.00285     0.76139
      C    4   -0.92429      1.99945     4.90572    0.01912     6.92429
      H    5    0.20311      0.00000     0.79338    0.00351     0.79689
      H    6    0.23003      0.00000     0.76899    0.00098     0.76997
      H    7    0.22909      0.00000     0.76955    0.00135     0.77091
      C    8   -0.26361      1.99946     4.23575    0.02840     6.26361
      C    9   -0.40072      1.99924     4.38351    0.01798     6.40072
      H   10    0.20624      0.00000     0.79011    0.00365     0.79376
      H   11    0.19603      0.00000     0.80104    0.00293     0.80397
      C   12   -0.60839      1.99937     4.59686    0.01217     6.60839
      H   13    0.19897      0.00000     0.79938    0.00164     0.80103
      H   14    0.19851      0.00000     0.79983    0.00167     0.80149
      H   15    0.20125      0.00000     0.79688    0.00188     0.79875
      C   16   -0.60971      1.99936     4.59783    0.01252     6.60971
      H   17    0.20191      0.00000     0.79617    0.00191     0.79809
      H   18    0.19855      0.00000     0.79981    0.00164     0.80145
      H   19    0.21565      0.00000     0.78286    0.00148     0.78435
      C   20   -0.92445      1.99945     4.90589    0.01911     6.92445
      H   21    0.20315      0.00000     0.79335    0.00350     0.79685
      H   22    0.23005      0.00000     0.76897    0.00098     0.76995
      H   23    0.22908      0.00000     0.76957    0.00135     0.77092
      C   24   -0.26350      1.99946     4.23564    0.02840     6.26350
      C   25   -0.60835      1.99937     4.59682    0.01216     6.60835
      H   26    0.20123      0.00000     0.79689    0.00188     0.79877
      H   27    0.19897      0.00000     0.79939    0.00164     0.80103
      H   28    0.19849      0.00000     0.79984    0.00166     0.80151
      C   29   -0.40063      1.99924     4.38342    0.01798     6.40063
      H   30    0.20619      0.00000     0.79015    0.00365     0.79381
      H   31    0.19608      0.00000     0.80099    0.00293     0.80392
      C   32   -0.60975      1.99936     4.59787    0.01251     6.60975
      H   33    0.19856      0.00000     0.79979    0.00164     0.80144
      H   34    0.21563      0.00000     0.78288    0.00148     0.78437
      H   35    0.20190      0.00000     0.79618    0.00192     0.79810
      P   36    0.80821      9.99861     4.15791    0.03528    14.19179
      P   37    0.80829      9.99861     4.15784    0.03526    14.19171
      C   38   -0.03235      1.99946     4.01714    0.01576     6.03235
      C   39   -0.59591      1.99937     4.58359    0.01295     6.59591
      H   40    0.19834      0.00000     0.80007    0.00158     0.80166
      H   41    0.20239      0.00000     0.79640    0.00121     0.79761
      H   42    0.20174      0.00000     0.79693    0.00132     0.79826
      C   43   -0.59503      1.99938     4.58287    0.01278     6.59503
      H   44    0.20255      0.00000     0.79633    0.00112     0.79745
      H   45    0.20378      0.00000     0.79508    0.00115     0.79622
      H   46    0.19927      0.00000     0.79943    0.00131     0.80073
      C   47   -0.58453      1.99939     4.57295    0.01219     6.58453
      H   48    0.20023      0.00000     0.79845    0.00132     0.79977
      H   49    0.19882      0.00000     0.79999    0.00118     0.80118
      H   50    0.20210      0.00000     0.79676    0.00114     0.79790
      C   51   -0.03196      1.99946     4.01676    0.01574     6.03196
      C   52   -0.59501      1.99938     4.58287    0.01276     6.59501
      H   53    0.20246      0.00000     0.79641    0.00112     0.79754
      H   54    0.20373      0.00000     0.79513    0.00115     0.79627
      H   55    0.19921      0.00000     0.79949    0.00130     0.80079
      C   56   -0.58452      1.99939     4.57294    0.01219     6.58452
      H   57    0.20024      0.00000     0.79843    0.00132     0.79976
      H   58    0.19881      0.00000     0.80001    0.00119     0.80119
      H   59    0.20208      0.00000     0.79678    0.00114     0.79792
      C   60   -0.59598      1.99937     4.58366    0.01295     6.59598
      H   61    0.19837      0.00000     0.80005    0.00158     0.80163
      H   62    0.20232      0.00000     0.79647    0.00121     0.79768
      H   63    0.20175      0.00000     0.79692    0.00132     0.79825
 =======================================================================
   * Total *    0.00000     57.98563   127.54982    0.46454   186.00000

 Normal termination of Gaussian 16 at Wed Nov  6 22:01:58 2024.
