 Gaussian 16, Revision B.01,
 Gaussian 16:  ES64L-G16RevB.01 20-Dec-2017

 --------------------------------------------
 # nmr=giao b3lyp/def2TZVP pop=nbo scfcyc=200
 --------------------------------------------

 ------------------
 Ligand 84 SPE NoRh
 ------------------
 Symbolic Z-matrix:
 Charge =  0 Multiplicity = 1

                         Standard orientation:
 ---------------------------------------------------------------------
 Center     Atomic      Atomic             Coordinates (Angstroms)
 Number     Number       Type             X           Y           Z
 ---------------------------------------------------------------------
      1         15           0        4.070217   -0.359245   -0.283233
      2         15           0        1.343279   -0.478627   -0.657123
      3          6           0       -2.535201    1.693873    0.395255
      4          8           0        0.271881    0.331250   -1.608667
      5          6           0       -1.679921    0.733450   -0.246535
      6          8           0        0.425523   -0.890572    0.660631
      7          6           0        2.540923    0.672531    0.133374
      8          1           0        2.360320    0.856644    1.192201
      9          1           0        2.563645    1.624894   -0.397198
     10          6           0       -2.368096    3.086310    0.107100
     11          6           0       -0.651273    1.219900   -1.025048
     12          6           0       -4.174357    3.636926    1.628098
     13          1           0       -4.815098    4.369434    2.103599
     14          6           0       -5.315389   -1.443860   -1.343428
     15          1           0       -6.123499   -0.930056   -1.849418
     16          6           0       -4.162050   -0.763708   -1.042113
     17          1           0       -4.070003    0.277909   -1.312923
     18          6           0       -0.481462    2.582839   -1.321360
     19          1           0        0.316691    2.880663   -1.988499
     20          6           0       -0.815689   -1.498571    0.421334
     21          6           0       -3.218261    4.032707    0.730693
     22          1           0       -3.089013    5.082467    0.491817
     23          6           0       -3.081994   -1.410347   -0.388224
     24          6           0       -3.520201    1.325645    1.347709
     25          1           0       -3.640039    0.284470    1.611136
     26          6           0       -1.857446   -0.734636   -0.062919
     27          6           0       -4.314324    2.270446    1.946631
     28          1           0       -5.053803    1.964894    2.675404
     29          6           0       -3.216295   -2.802680   -0.084168
     30          6           0       -4.429182   -3.467544   -0.392848
     31          1           0       -4.522850   -4.518124   -0.144108
     32          6           0       -1.342136    3.496614   -0.778948
     33          1           0       -1.235447    4.549632   -1.008157
     34          6           0       -0.938202   -2.864548    0.731086
     35          1           0       -0.090649   -3.382793    1.159317
     36          6           0       -5.459575   -2.804839   -1.005976
     37          1           0       -6.379698   -3.323832   -1.242413
     38          6           0       -2.129622   -3.497593    0.501296
     39          1           0       -2.247783   -4.544998    0.750047
     40          6           0        5.244079    0.931552   -1.006564
     41          1           0        4.592381    1.430023   -1.732316
     42          6           0        6.425519    0.341332   -1.782944
     43          1           0        6.095263   -0.320159   -2.582900
     44          1           0        6.994389    1.152013   -2.243235
     45          1           0        7.111440   -0.212551   -1.141644
     46          6           0        5.694577    1.967198    0.029824
     47          1           0        6.217146    2.783358   -0.474469
     48          1           0        4.858772    2.405924    0.577689
     49          1           0        6.388275    1.538569    0.755260
     50          6           0        4.728911   -0.900423    1.395224
     51          1           0        4.847443    0.024925    1.965638
     52          6           0        6.091217   -1.595867    1.293814
     53          1           0        6.868600   -0.945373    0.897952
     54          1           0        6.407687   -1.913088    2.290062
     55          1           0        6.043748   -2.491252    0.670491
     56          6           0        3.707013   -1.792961    2.111597
     57          1           0        2.739835   -1.309966    2.247351
     58          1           0        3.543914   -2.723619    1.564237
     59          1           0        4.087279   -2.049816    3.102934
 ---------------------------------------------------------------------

 SCF Done:  E(RB3LYP) =  -1879.42535166     A.U. after   15 cycles

      1  P    Isotropic =   249.0045   Anisotropy =    47.2453

      2  P    Isotropic =    22.7810   Anisotropy =   300.6257

      3  C    Isotropic =    41.8726   Anisotropy =   206.7388

      4  O    Isotropic =   148.7097   Anisotropy =    52.0593

      5  C    Isotropic =    50.6915   Anisotropy =   139.7848

      6  O    Isotropic =   153.2003   Anisotropy =    68.8646

      7  C    Isotropic =   146.1258   Anisotropy =    23.5597

      8  H    Isotropic =    30.0939   Anisotropy =     4.5800

      9  H    Isotropic =    30.2915   Anisotropy =     8.6100

     10  C    Isotropic =    44.8655   Anisotropy =   212.9757

     11  C    Isotropic =    22.8724   Anisotropy =   132.1736

     12  C    Isotropic =    54.3593   Anisotropy =   177.6886

     13  H    Isotropic =    24.2460   Anisotropy =     4.6989

     14  C    Isotropic =    52.4355   Anisotropy =   180.1969

     15  H    Isotropic =    24.4442   Anisotropy =     7.7018

     16  C    Isotropic =    50.3711   Anisotropy =   178.7411

     17  H    Isotropic =    24.4592   Anisotropy =    14.6286

     18  C    Isotropic =    57.5100   Anisotropy =   148.1813

     19  H    Isotropic =    24.2535   Anisotropy =     7.1245

     20  C    Isotropic =    22.1692   Anisotropy =   120.3101

     21  C    Isotropic =    49.6535   Anisotropy =   160.9506

     22  H    Isotropic =    23.6951   Anisotropy =     7.3039

     23  C    Isotropic =    42.0643   Anisotropy =   205.4836

     24  C    Isotropic =    50.0089   Anisotropy =   179.8008

     25  H    Isotropic =    24.4479   Anisotropy =    14.3889

     26  C    Isotropic =    50.7835   Anisotropy =   136.0109

     27  C    Isotropic =    52.4649   Anisotropy =   180.7548

     28  H    Isotropic =    24.4552   Anisotropy =     7.6605

     29  C    Isotropic =    44.6032   Anisotropy =   212.5931

     30  C    Isotropic =    49.4438   Anisotropy =   161.0150

     31  H    Isotropic =    23.6920   Anisotropy =     7.3401

     32  C    Isotropic =    48.1366   Anisotropy =   159.2341

     33  H    Isotropic =    23.7270   Anisotropy =     7.0736

     34  C    Isotropic =    57.4421   Anisotropy =   150.4802

     35  H    Isotropic =    24.1901   Anisotropy =     7.9667

     36  C    Isotropic =    54.4443   Anisotropy =   177.3040

     37  H    Isotropic =    24.2601   Anisotropy =     4.7040

     38  C    Isotropic =    47.4889   Anisotropy =   159.4651

     39  H    Isotropic =    23.6709   Anisotropy =     7.3111

     40  C    Isotropic =   144.6804   Anisotropy =    17.2640

     41  H    Isotropic =    30.3148   Anisotropy =     5.9671

     42  C    Isotropic =   160.4076   Anisotropy =    34.3953

     43  H    Isotropic =    30.2895   Anisotropy =     8.4356

     44  H    Isotropic =    30.7889   Anisotropy =    10.4546

     45  H    Isotropic =    30.8521   Anisotropy =     6.5899

     46  C    Isotropic =   164.4406   Anisotropy =    28.7471

     47  H    Isotropic =    30.6254   Anisotropy =    10.7617

     48  H    Isotropic =    30.5491   Anisotropy =     6.1809

     49  H    Isotropic =    30.7393   Anisotropy =     6.0363

     50  C    Isotropic =   152.4961   Anisotropy =    22.1179

     51  H    Isotropic =    29.6566   Anisotropy =     3.7282

     52  C    Isotropic =   162.1787   Anisotropy =    33.0933

     53  H    Isotropic =    30.8022   Anisotropy =     8.2350

     54  H    Isotropic =    30.8520   Anisotropy =    10.5436

     55  H    Isotropic =    31.0042   Anisotropy =     7.4170

     56  C    Isotropic =   162.3615   Anisotropy =    32.3900

     57  H    Isotropic =    30.6050   Anisotropy =     9.4781

     58  H    Isotropic =    30.9029   Anisotropy =     7.3831

     59  H    Isotropic =    30.8953   Anisotropy =     9.9406

 The electronic state is 1-A.
 Alpha  occ. eigenvalues --  -77.10592 -77.04109 -19.15366 -19.15142 -10.24158
 Alpha  occ. eigenvalues --  -10.24069 -10.19587 -10.19533 -10.19405 -10.19329
 Alpha  occ. eigenvalues --  -10.19056 -10.18843 -10.18604 -10.18593 -10.18362
 Alpha  occ. eigenvalues --  -10.18341 -10.18335 -10.18080 -10.18073 -10.17887
 Alpha  occ. eigenvalues --  -10.17871 -10.17826 -10.17811 -10.17712 -10.17683
 Alpha  occ. eigenvalues --  -10.17608 -10.17524 -10.16647 -10.16615 -10.16472
 Alpha  occ. eigenvalues --  -10.16341  -6.58275  -6.52689  -4.74629  -4.74395
 Alpha  occ. eigenvalues --   -4.73769  -4.68872  -4.68766  -4.68316  -1.06849
 Alpha  occ. eigenvalues --   -1.03238  -0.89011  -0.87708  -0.83452  -0.82485
 Alpha  occ. eigenvalues --   -0.80824  -0.80303  -0.78615  -0.76692  -0.75663
 Alpha  occ. eigenvalues --   -0.74505  -0.74128  -0.73231  -0.71387  -0.69193
 Alpha  occ. eigenvalues --   -0.68974  -0.65950  -0.63621  -0.63106  -0.62124
 Alpha  occ. eigenvalues --   -0.61679  -0.61511  -0.58950  -0.58285  -0.58088
 Alpha  occ. eigenvalues --   -0.54359  -0.53397  -0.52660  -0.52414  -0.51443
 Alpha  occ. eigenvalues --   -0.50059  -0.48452  -0.47030  -0.46849  -0.46609
 Alpha  occ. eigenvalues --   -0.45966  -0.45658  -0.45149  -0.44837  -0.44567
 Alpha  occ. eigenvalues --   -0.44268  -0.43185  -0.43015  -0.42852  -0.42448
 Alpha  occ. eigenvalues --   -0.42323  -0.41869  -0.41518  -0.40287  -0.40106
 Alpha  occ. eigenvalues --   -0.39953  -0.39647  -0.39419  -0.38910  -0.38824
 Alpha  occ. eigenvalues --   -0.38399  -0.36043  -0.35910  -0.35713  -0.35339
 Alpha  occ. eigenvalues --   -0.35160  -0.34991  -0.34816  -0.34560  -0.33541
 Alpha  occ. eigenvalues --   -0.33515  -0.32312  -0.32175  -0.30751  -0.29862
 Alpha  occ. eigenvalues --   -0.29641  -0.28746  -0.25207  -0.24958  -0.23407
 Alpha  occ. eigenvalues --   -0.22636  -0.21788  -0.19512
 Alpha virt. eigenvalues --   -0.05990  -0.04830  -0.02453  -0.02275  -0.00516
 Alpha virt. eigenvalues --    0.00790   0.01980   0.02150   0.03065   0.04075
 Alpha virt. eigenvalues --    0.04772   0.05020   0.05170   0.05434   0.06123

 Mulliken charges:
               1
     1  P    0.155495
     2  P    0.446417
     3  C   -0.093611
     4  O   -0.348362
     5  C    0.114787
     6  O   -0.375160
     7  C   -0.381724
     8  H    0.131140
     9  H    0.128679
    10  C    0.147731
    11  C    0.222242
    12  C   -0.108184
    13  H    0.107271
    14  C   -0.102234
    15  H    0.108897
    16  C   -0.175733
    17  H    0.133568
    18  C   -0.231550
    19  H    0.111243
    20  C    0.284619
    21  C   -0.162224
    22  H    0.100307
    23  C   -0.097754
    24  C   -0.176185
    25  H    0.136015
    26  C    0.136246
    27  C   -0.103475
    28  H    0.109817
    29  C    0.153528
    30  C   -0.161007
    31  H    0.100518
    32  C   -0.164965
    33  H    0.101995
    34  C   -0.253047
    35  H    0.118016
    36  C   -0.108229
    37  H    0.106837
    38  C   -0.166251
    39  H    0.102404
    40  C   -0.089640
    41  H    0.075065
    42  C   -0.332150
    43  H    0.122992
    44  H    0.107693
    45  H    0.102959
    46  C   -0.347957
    47  H    0.107425
    48  H    0.118900
    49  H    0.108939
    50  C   -0.074527
    51  H    0.081153
    52  C   -0.349561
    53  H    0.106765
    54  H    0.109855
    55  H    0.115158
    56  C   -0.364546
    57  H    0.133341
    58  H    0.113790
    59  H    0.106269
 Sum of Mulliken charges =  -0.00000

 Dipole moment (field-independent basis, Debye):
    X=              0.3344    Y=              1.7654    Z=              1.5619  Tot=              2.3807
 Quadrupole moment (field-independent basis, Debye-Ang):
   XX=           -180.3326   YY=           -183.8152   ZZ=           -202.6939
   XY=              5.4836   XZ=              1.5082   YZ=             -6.9925

 Summary of Natural Population Analysis:

                                       Natural Population
                Natural  -----------------------------------------------
    Atom  No    Charge         Core      Valence    Rydberg      Total
 -----------------------------------------------------------------------
      P    1    0.76845      9.99861     4.19930    0.03364    14.23155
      P    2    1.37543      9.99845     3.54791    0.07821    13.62457
      C    3   -0.02966      1.99902     4.01130    0.01934     6.02966
      O    4   -0.76013      1.99980     6.73497    0.02536     8.76013
      C    5   -0.07119      1.99883     4.04971    0.02265     6.07119
      O    6   -0.77440      1.99979     6.74810    0.02651     8.77440
      C    7   -1.09814      1.99948     5.06692    0.03174     7.09814
      H    8    0.25493      0.00000     0.74252    0.00255     0.74507
      H    9    0.25570      0.00000     0.74251    0.00179     0.74430
      C   10   -0.07082      1.99907     4.05276    0.01899     6.07082
      C   11    0.28237      1.99861     3.69579    0.02324     5.71763
      C   12   -0.21104      1.99918     4.19269    0.01917     6.21104
      H   13    0.20930      0.00000     0.78955    0.00115     0.79070
      C   14   -0.19664      1.99919     4.17908    0.01838     6.19664
      H   15    0.20910      0.00000     0.78970    0.00119     0.79090
      C   16   -0.18834      1.99911     4.17088    0.01835     6.18834
      H   17    0.21787      0.00000     0.78064    0.00149     0.78213
      C   18   -0.23950      1.99905     4.22081    0.01964     6.23950
      H   19    0.22146      0.00000     0.77730    0.00124     0.77854
      C   20    0.29160      1.99862     3.68528    0.02449     5.70840
      C   21   -0.17350      1.99913     4.15598    0.01840     6.17350
      H   22    0.20587      0.00000     0.79273    0.00141     0.79413
      C   23   -0.03126      1.99902     4.01304    0.01921     6.03126
      C   24   -0.18786      1.99911     4.17058    0.01817     6.18786
      H   25    0.21917      0.00000     0.77934    0.00149     0.78083
      C   26   -0.07002      1.99884     4.04916    0.02203     6.07002
      C   27   -0.19635      1.99919     4.17885    0.01831     6.19635
      H   28    0.20945      0.00000     0.78936    0.00119     0.79055
      C   29   -0.06885      1.99908     4.04943    0.02035     6.06885
      C   30   -0.17213      1.99912     4.15505    0.01795     6.17213
      H   31    0.20602      0.00000     0.79261    0.00137     0.79398
      C   32   -0.15915      1.99914     4.14185    0.01816     6.15915
      H   33    0.20820      0.00000     0.79047    0.00134     0.79180
      C   34   -0.23371      1.99905     4.21508    0.01958     6.23371
      H   35    0.22495      0.00000     0.77378    0.00127     0.77505
      C   36   -0.21160      1.99918     4.19316    0.01926     6.21160
      H   37    0.20911      0.00000     0.78973    0.00116     0.79089
      C   38   -0.15741      1.99914     4.14062    0.01765     6.15741
      H   39    0.20887      0.00000     0.78981    0.00132     0.79113
      C   40   -0.46383      1.99944     4.44222    0.02216     6.46383
      H   41    0.20720      0.00000     0.79093    0.00186     0.79280
      C   42   -0.59366      1.99942     4.58239    0.01184     6.59366
      H   43    0.21490      0.00000     0.78376    0.00133     0.78510
      H   44    0.20210      0.00000     0.79632    0.00158     0.79790
      H   45    0.19789      0.00000     0.80064    0.00146     0.80211
      C   46   -0.60197      1.99943     4.59060    0.01195     6.60197
      H   47    0.20065      0.00000     0.79749    0.00186     0.79935
      H   48    0.20327      0.00000     0.79534    0.00139     0.79673
      H   49    0.19794      0.00000     0.80058    0.00148     0.80206
      C   50   -0.47500      1.99945     4.45261    0.02294     6.47500
      H   51    0.19559      0.00000     0.80103    0.00338     0.80441
      C   52   -0.59600      1.99943     4.58495    0.01162     6.59600
      H   53    0.20112      0.00000     0.79732    0.00157     0.79888
      H   54    0.20502      0.00000     0.79338    0.00160     0.79498
      H   55    0.20589      0.00000     0.79224    0.00187     0.79411
      C   56   -0.59905      1.99943     4.58814    0.01148     6.59905
      H   57    0.21238      0.00000     0.78630    0.00132     0.78762
      H   58    0.20519      0.00000     0.79315    0.00166     0.79481
      H   59    0.20420      0.00000     0.79420    0.00160     0.79580
 =======================================================================
   * Total *    0.00000     77.97338   157.30194    0.72468   236.00000

 Normal termination of Gaussian 16 at Tue Nov 19 12:25:24 2024.
