 Gaussian 16, Revision B.01,
 Gaussian 16:  ES64L-G16RevB.01 20-Dec-2017

 --------------------------------------------
 # nmr=giao b3lyp/def2TZVP pop=nbo scfcyc=200
 --------------------------------------------

 ------------------
 Ligand 89 SPE NoRh
 ------------------
 Symbolic Z-matrix:
 Charge =  0 Multiplicity = 1

                         Standard orientation:
 ---------------------------------------------------------------------
 Center     Atomic      Atomic             Coordinates (Angstroms)
 Number     Number       Type             X           Y           Z
 ---------------------------------------------------------------------
      1         15           0       -0.361626   -1.368588   -0.310124
      2         15           0        0.410980    1.313277   -0.523987
      3          6           0       -3.250273   -1.557838    0.009674
      4          6           0       -3.821471   -2.333829   -1.003408
      5          1           0       -3.321716   -3.228244   -1.355721
      6          6           0       -5.046637   -1.988673   -1.563662
      7          1           0       -5.476498   -2.611368   -2.339024
      8          6           0       -5.727130   -0.859054   -1.121687
      9          1           0       -6.686385   -0.597382   -1.550170
     10          6           0       -5.172798   -0.079019   -0.112236
     11          1           0       -5.700043    0.794018    0.251963
     12          6           0       -3.947477   -0.427011    0.445797
     13          1           0       -3.534642    0.182851    1.241320
     14          6           0       -1.928384   -1.908756    0.650169
     15          1           0       -1.853471   -1.353868    1.587478
     16          6           0       -1.693889   -3.403571    0.958771
     17          1           0       -2.288389   -3.698679    1.826128
     18          1           0       -2.028306   -4.021285    0.123778
     19          6           0       -0.199943   -3.630014    1.187509
     20          1           0        0.039374   -4.691622    1.276917
     21          1           0        0.107342   -3.153722    2.121511
     22          6           0        0.548873   -3.013505   -0.007960
     23          1           0        0.297278   -3.601824   -0.896361
     24          6           0        2.051746   -2.920608    0.074325
     25          6           0        2.722930   -2.691637    1.280443
     26          1           0        2.170237   -2.592309    2.204889
     27          6           0        4.112111   -2.614251    1.321081
     28          1           0        4.611224   -2.450070    2.267540
     29          6           0        4.858045   -2.760487    0.156556
     30          1           0        5.939361   -2.711207    0.191045
     31          6           0        4.203918   -2.991200   -1.049759
     32          1           0        4.776220   -3.123385   -1.960607
     33          6           0        2.817582   -3.069784   -1.087319
     34          1           0        2.321670   -3.267221   -2.031164
     35          6           0        0.478301   -0.062128    0.742989
     36          1           0        1.508588   -0.352567    0.946137
     37          1           0       -0.015709    0.174101    1.685342
     38          6           0        2.033809    2.184475   -0.509163
     39          6           0        3.221174    1.443529   -0.469980
     40          6           0        2.099408    3.574372   -0.648604
     41          6           0        4.450371    2.088702   -0.538696
     42          1           0        3.199747    0.363736   -0.389372
     43          6           0        3.334030    4.213082   -0.723549
     44          1           0        1.193018    4.163897   -0.687038
     45          6           0        4.509267    3.473466   -0.664843
     46          1           0        5.362415    1.506905   -0.495330
     47          1           0        3.372659    5.289680   -0.824550
     48          1           0        5.468743    3.973189   -0.719599
     49          6           0       -0.818636    2.518424    0.122534
     50          6           0       -0.631339    3.131574    1.366927
     51          6           0       -1.961798    2.810761   -0.622128
     52          6           0       -1.574307    4.028298    1.852626
     53          1           0        0.255304    2.922744    1.955226
     54          6           0       -2.903951    3.712326   -0.133998
     55          1           0       -2.120606    2.326188   -1.576691
     56          6           0       -2.711079    4.320242    1.101255
     57          1           0       -1.422768    4.501214    2.813916
     58          1           0       -3.786984    3.935919   -0.717936
     59          1           0       -3.442716    5.022655    1.480063
 ---------------------------------------------------------------------

 SCF Done:  E(RB3LYP) =  -1805.09919003     A.U. after   14 cycles

      1  P    Isotropic =   201.7741   Anisotropy =   104.1525

      2  P    Isotropic =   236.5086   Anisotropy =   109.8764

      3  C    Isotropic =    31.9634   Anisotropy =   201.2231

      4  C    Isotropic =    52.4181   Anisotropy =   182.1075

      5  H    Isotropic =    24.2946   Anisotropy =    11.1139

      6  C    Isotropic =    49.3506   Anisotropy =   183.0774

      7  H    Isotropic =    24.2682   Anisotropy =     5.6432

      8  C    Isotropic =    52.6045   Anisotropy =   180.6321

      9  H    Isotropic =    24.4981   Anisotropy =     4.5886

     10  C    Isotropic =    49.8707   Anisotropy =   182.4711

     11  H    Isotropic =    24.6599   Anisotropy =     6.2293

     12  C    Isotropic =    48.1924   Anisotropy =   161.9205

     13  H    Isotropic =    25.3994   Anisotropy =     6.9566

     14  C    Isotropic =   121.3925   Anisotropy =    20.8430

     15  H    Isotropic =    28.6148   Anisotropy =     5.0707

     16  C    Isotropic =   144.7138   Anisotropy =    32.1249

     17  H    Isotropic =    29.6245   Anisotropy =     8.9002

     18  H    Isotropic =    29.7785   Anisotropy =     8.6516

     19  C    Isotropic =   143.7253   Anisotropy =    25.6666

     20  H    Isotropic =    29.6266   Anisotropy =     9.7189

     21  H    Isotropic =    29.6844   Anisotropy =     6.6613

     22  C    Isotropic =   123.3182   Anisotropy =    24.9111

     23  H    Isotropic =    28.2598   Anisotropy =     7.1400

     24  C    Isotropic =    35.9847   Anisotropy =   198.1175

     25  C    Isotropic =    51.2046   Anisotropy =   184.6829

     26  H    Isotropic =    24.3217   Anisotropy =    10.1123

     27  C    Isotropic =    49.4574   Anisotropy =   185.2940

     28  H    Isotropic =    24.1290   Anisotropy =     5.5659

     29  C    Isotropic =    52.4028   Anisotropy =   181.8298

     30  H    Isotropic =    24.2803   Anisotropy =     3.4015

     31  C    Isotropic =    48.8352   Anisotropy =   184.9401

     32  H    Isotropic =    24.1897   Anisotropy =     4.9204

     33  C    Isotropic =    47.6695   Anisotropy =   163.9610

     34  H    Isotropic =    24.1476   Anisotropy =     8.6860

     35  C    Isotropic =   150.5631   Anisotropy =    21.3406

     36  H    Isotropic =    29.7601   Anisotropy =    10.4987

     37  H    Isotropic =    30.0158   Anisotropy =     5.0317

     38  C    Isotropic =    29.2886   Anisotropy =   196.7907

     39  C    Isotropic =    50.8569   Anisotropy =   182.6271

     40  C    Isotropic =    51.0186   Anisotropy =   180.7282

     41  C    Isotropic =    50.5238   Anisotropy =   181.2641

     42  H    Isotropic =    25.6842   Anisotropy =     7.4179

     43  C    Isotropic =    50.2257   Anisotropy =   181.8720

     44  H    Isotropic =    25.3080   Anisotropy =    13.0758

     45  C    Isotropic =    54.0866   Anisotropy =   178.1009

     46  H    Isotropic =    24.8022   Anisotropy =     8.0354

     47  H    Isotropic =    24.7768   Anisotropy =     6.1097

     48  H    Isotropic =    24.8162   Anisotropy =     4.5639

     49  C    Isotropic =    35.5961   Anisotropy =   205.4296

     50  C    Isotropic =    39.6753   Anisotropy =   186.0856

     51  C    Isotropic =    38.5319   Anisotropy =   185.8879

     52  C    Isotropic =    48.4354   Anisotropy =   186.0823

     53  H    Isotropic =    23.9767   Anisotropy =    10.9506

     54  C    Isotropic =    50.2796   Anisotropy =   184.6477

     55  H    Isotropic =    24.1545   Anisotropy =     7.1874

     56  C    Isotropic =    48.3790   Anisotropy =   189.8708

     57  H    Isotropic =    24.1979   Anisotropy =     6.0560

     58  H    Isotropic =    24.3205   Anisotropy =     4.8853

     59  H    Isotropic =    24.1909   Anisotropy =     4.2990

 The electronic state is 1-A.
 Alpha  occ. eigenvalues --  -77.04529 -77.04308 -10.19115 -10.18599 -10.18523
 Alpha  occ. eigenvalues --  -10.18434 -10.18430 -10.18342 -10.18237 -10.18153
 Alpha  occ. eigenvalues --  -10.18092 -10.18082 -10.18043 -10.18015 -10.17973
 Alpha  occ. eigenvalues --  -10.17890 -10.17819 -10.17696 -10.17691 -10.17661
 Alpha  occ. eigenvalues --  -10.17648 -10.17327 -10.17290 -10.17175 -10.17167
 Alpha  occ. eigenvalues --  -10.17116 -10.17110 -10.17109 -10.17098 -10.17022
 Alpha  occ. eigenvalues --  -10.16878  -6.53107  -6.52855  -4.69259  -4.69226
 Alpha  occ. eigenvalues --   -4.68992  -4.68963  -4.68739  -4.68481  -0.86784
 Alpha  occ. eigenvalues --   -0.86427  -0.86047  -0.85292  -0.82828  -0.78009
 Alpha  occ. eigenvalues --   -0.77169  -0.75445  -0.75349  -0.75142  -0.74625
 Alpha  occ. eigenvalues --   -0.74566  -0.74266  -0.72900  -0.69901  -0.66725
 Alpha  occ. eigenvalues --   -0.62939  -0.61844  -0.61225  -0.60871  -0.60422
 Alpha  occ. eigenvalues --   -0.60071  -0.59843  -0.59500  -0.56747  -0.55633
 Alpha  occ. eigenvalues --   -0.53992  -0.52156  -0.51971  -0.50546  -0.50101
 Alpha  occ. eigenvalues --   -0.47503  -0.47116  -0.46542  -0.45952  -0.45898
 Alpha  occ. eigenvalues --   -0.45545  -0.45337  -0.45023  -0.44668  -0.44332
 Alpha  occ. eigenvalues --   -0.43643  -0.42965  -0.42796  -0.42220  -0.41996
 Alpha  occ. eigenvalues --   -0.41306  -0.40727  -0.40193  -0.39561  -0.38612
 Alpha  occ. eigenvalues --   -0.38146  -0.37481  -0.37292  -0.37068  -0.36829
 Alpha  occ. eigenvalues --   -0.35664  -0.35409  -0.35311  -0.34663  -0.34493
 Alpha  occ. eigenvalues --   -0.34025  -0.33678  -0.33194  -0.32503  -0.32153
 Alpha  occ. eigenvalues --   -0.31209  -0.27129  -0.26580  -0.26323  -0.26010
 Alpha  occ. eigenvalues --   -0.25534  -0.25398  -0.25305  -0.23811  -0.22252
 Alpha  occ. eigenvalues --   -0.18817
 Alpha virt. eigenvalues --   -0.03629  -0.02385  -0.02219  -0.02122  -0.01535
 Alpha virt. eigenvalues --   -0.01463  -0.01164  -0.00732   0.01354   0.02867
 Alpha virt. eigenvalues --    0.03471   0.03786   0.04232   0.04901   0.05464

 Mulliken charges:
               1
     1  P    0.138153
     2  P    0.174919
     3  C    0.263403
     4  C   -0.217299
     5  H    0.094010
     6  C   -0.108841
     7  H    0.104912
     8  C   -0.117773
     9  H    0.105305
    10  C   -0.108187
    11  H    0.104704
    12  C   -0.219366
    13  H    0.111512
    14  C   -0.155561
    15  H    0.075072
    16  C   -0.168447
    17  H    0.104868
    18  H    0.092440
    19  C   -0.145102
    20  H    0.098371
    21  H    0.082748
    22  C   -0.100013
    23  H    0.080167
    24  C    0.158768
    25  C   -0.238621
    26  H    0.107248
    27  C   -0.089148
    28  H    0.108443
    29  C   -0.125902
    30  H    0.108650
    31  C   -0.107683
    32  H    0.109305
    33  C   -0.191036
    34  H    0.105549
    35  C   -0.393705
    36  H    0.149984
    37  H    0.123547
    38  C    0.022003
    39  C   -0.183661
    40  C   -0.146016
    41  C   -0.166550
    42  H    0.182500
    43  C   -0.134745
    44  H    0.133593
    45  C   -0.091941
    46  H    0.102396
    47  H    0.105243
    48  H    0.103975
    49  C    0.017765
    50  C   -0.195024
    51  C   -0.137755
    52  C   -0.099526
    53  H    0.126124
    54  C   -0.112624
    55  H    0.121271
    56  C   -0.096059
    57  H    0.109664
    58  H    0.111707
    59  H    0.112262
 Sum of Mulliken charges =  -0.00000

 Dipole moment (field-independent basis, Debye):
    X=             -0.2465    Y=             -0.2904    Z=              2.1542  Tot=              2.1876
 Quadrupole moment (field-independent basis, Debye-Ang):
   XX=           -186.7169   YY=           -189.7535   ZZ=           -196.8498
   XY=             -6.1110   XZ=              2.2533   YZ=              5.6253

 Summary of Natural Population Analysis:

                                       Natural Population
                Natural  -----------------------------------------------
    Atom  No    Charge         Core      Valence    Rydberg      Total
 -----------------------------------------------------------------------
      P    1    0.78465      9.99864     4.18589    0.03082    14.21535
      P    2    0.83334      9.99816     4.13488    0.03363    14.16666
      C    3   -0.01878      1.99906     3.99668    0.02305     6.01878
      C    4   -0.20703      1.99906     4.18965    0.01831     6.20703
      H    5    0.20029      0.00000     0.79756    0.00215     0.79971
      C    6   -0.19544      1.99920     4.17750    0.01875     6.19544
      H    7    0.20647      0.00000     0.79228    0.00125     0.79353
      C    8   -0.21602      1.99918     4.19758    0.01925     6.21602
      H    9    0.20674      0.00000     0.79204    0.00121     0.79326
      C   10   -0.19730      1.99919     4.17954    0.01858     6.19730
      H   11    0.20701      0.00000     0.79171    0.00128     0.79299
      C   12   -0.20250      1.99908     4.18457    0.01885     6.20250
      H   13    0.20422      0.00000     0.79403    0.00175     0.79578
      C   14   -0.47577      1.99931     4.45141    0.02504     6.47577
      H   15    0.21233      0.00000     0.78440    0.00327     0.78767
      C   16   -0.38408      1.99940     4.36917    0.01552     6.38408
      H   17    0.21334      0.00000     0.78505    0.00161     0.78666
      H   18    0.19518      0.00000     0.80321    0.00161     0.80482
      C   19   -0.38453      1.99939     4.36997    0.01516     6.38453
      H   20    0.20846      0.00000     0.78958    0.00196     0.79154
      H   21    0.18874      0.00000     0.80964    0.00162     0.81126
      C   22   -0.47801      1.99932     4.45399    0.02470     6.47801
      H   23    0.21996      0.00000     0.77755    0.00249     0.78004
      C   24   -0.02268      1.99906     3.99906    0.02457     6.02268
      C   25   -0.22278      1.99907     4.20543    0.01828     6.22278
      H   26    0.20466      0.00000     0.79357    0.00177     0.79534
      C   27   -0.19759      1.99919     4.17961    0.01879     6.19759
      H   28    0.20819      0.00000     0.79054    0.00127     0.79181
      C   29   -0.21821      1.99918     4.19973    0.01929     6.21821
      H   30    0.20883      0.00000     0.78999    0.00118     0.79117
      C   31   -0.19642      1.99919     4.17811    0.01912     6.19642
      H   32    0.20984      0.00000     0.78894    0.00122     0.79016
      C   33   -0.20365      1.99910     4.18611    0.01844     6.20365
      H   34    0.20923      0.00000     0.78941    0.00136     0.79077
      C   35   -1.01873      1.99945     4.98782    0.03146     7.01873
      H   36    0.25928      0.00000     0.73867    0.00205     0.74072
      H   37    0.23899      0.00000     0.75864    0.00237     0.76101
      C   38   -0.31581      1.99899     4.28742    0.02939     6.31581
      C   39   -0.21498      1.99908     4.19551    0.02039     6.21498
      C   40   -0.21339      1.99908     4.19420    0.02010     6.21339
      C   41   -0.19566      1.99919     4.17746    0.01901     6.19566
      H   42    0.20938      0.00000     0.78847    0.00215     0.79062
      C   43   -0.19641      1.99919     4.17827    0.01896     6.19641
      H   44    0.21251      0.00000     0.78566    0.00183     0.78749
      C   45   -0.21903      1.99919     4.20006    0.01979     6.21903
      H   46    0.20732      0.00000     0.79133    0.00135     0.79268
      H   47    0.20640      0.00000     0.79227    0.00132     0.79360
      H   48    0.20624      0.00000     0.79255    0.00122     0.79376
      C   49   -0.33671      1.99901     4.30432    0.03338     6.33671
      C   50   -0.19457      1.99908     4.17528    0.02021     6.19457
      C   51   -0.18447      1.99910     4.16447    0.02090     6.18447
      C   52   -0.20830      1.99919     4.18996    0.01915     6.20830
      H   53    0.21051      0.00000     0.78710    0.00239     0.78949
      C   54   -0.20706      1.99918     4.18839    0.01949     6.20706
      H   55    0.22343      0.00000     0.77499    0.00158     0.77657
      C   56   -0.19733      1.99919     4.17910    0.01903     6.19733
      H   57    0.20842      0.00000     0.79019    0.00138     0.79158
      H   58    0.21068      0.00000     0.78805    0.00128     0.78932
      H   59    0.20860      0.00000     0.79023    0.00117     0.79140
 =======================================================================
   * Total *    0.00000     77.97272   153.30877    0.71852   232.00000

 Normal termination of Gaussian 16 at Tue Nov 19 12:39:10 2024.
