 Gaussian 16, Revision B.01,
 Gaussian 16:  ES64L-G16RevB.01 20-Dec-2017

 --------------------------------------------
 # nmr=giao b3lyp/def2TZVP pop=nbo scfcyc=200
 --------------------------------------------

 ---------------
 adPAMP SPE NoRh
 ---------------
 Symbolic Z-matrix:
 Charge =  0 Multiplicity = 1

                         Standard orientation:
 ---------------------------------------------------------------------
 Center     Atomic      Atomic             Coordinates (Angstroms)
 Number     Number       Type             X           Y           Z
 ---------------------------------------------------------------------
      1         15           0       -1.850566   -0.147033   -0.393351
      2         15           0        0.994799    0.067432   -0.559888
      3          8           0       -4.503484    0.281779   -1.487381
      4          6           0       -3.078885    1.106147    0.187304
      5          6           0       -4.325319    1.166973   -0.469720
      6          6           0       -5.290712    2.085839   -0.063885
      7          1           0       -6.248826    2.131474   -0.561835
      8          6           0       -5.022177    2.956013    0.987297
      9          1           0       -5.778740    3.667295    1.291827
     10          6           0       -3.800732    2.911481    1.644173
     11          1           0       -3.593668    3.582089    2.467485
     12          6           0       -2.841724    1.987693    1.240576
     13          1           0       -1.903148    1.958331    1.775341
     14          6           0       -5.784471    0.189032   -2.116069
     15          1           0       -5.698339   -0.610908   -2.845908
     16          1           0       -6.042395    1.120508   -2.626513
     17          1           0       -6.558721   -0.063038   -1.388913
     18          6           0       -2.635223   -1.767447    0.024740
     19          6           0       -2.491662   -2.855238   -0.836222
     20          1           0       -1.943960   -2.736761   -1.762699
     21          6           0       -3.046019   -4.089432   -0.507245
     22          1           0       -2.931950   -4.928637   -1.182086
     23          6           0       -3.749091   -4.241774    0.683071
     24          1           0       -4.184101   -5.200436    0.937561
     25          6           0       -3.896927   -3.158931    1.545526
     26          1           0       -4.445575   -3.273397    2.471874
     27          6           0       -3.344071   -1.925715    1.220396
     28          1           0       -3.476147   -1.088301    1.893996
     29          6           0       -0.363766   -0.045091    0.741791
     30          1           0       -0.363879    0.811771    1.409681
     31          1           0       -0.286424   -0.941326    1.353503
     32          6           0        2.129087   -1.437520   -0.187170
     33          6           0        2.588423   -1.533142    1.287539
     34          6           0        3.386090   -1.433336   -1.090085
     35          6           0        1.287617   -2.698147   -0.521915
     36          1           0        3.204029   -0.673978    1.553770
     37          1           0        1.729672   -1.534265    1.964147
     38          6           0        3.412053   -2.822624    1.504908
     39          1           0        4.017665   -0.577398   -0.855106
     40          1           0        3.106820   -1.346322   -2.144156
     41          6           0        4.205752   -2.722773   -0.873214
     42          1           0        0.394150   -2.740924    0.106115
     43          1           0        0.943111   -2.652348   -1.557836
     44          6           0        2.115817   -3.978677   -0.299967
     45          1           0        3.720932   -2.859990    2.552473
     46          6           0        4.651827   -2.796243    0.596754
     47          6           0        2.554687   -4.053061    1.171116
     48          1           0        5.082869   -2.688832   -1.524430
     49          6           0        3.350259   -3.952240   -1.213828
     50          1           0        1.490363   -4.841699   -0.544240
     51          1           0        5.255796   -3.693187    0.761400
     52          1           0        5.286028   -1.938321    0.843143
     53          1           0        1.678095   -4.095004    1.825444
     54          1           0        3.126693   -4.967616    1.347934
     55          1           0        3.043767   -3.922907   -2.265104
     56          1           0        3.937043   -4.866023   -1.082530
     57          6           0        1.791121    1.793582   -0.256221
     58          6           0        0.674832    2.835406   -0.533741
     59          6           0        2.951106    2.059818   -1.245546
     60          6           0        2.319995    2.000123    1.182041
     61          1           0        0.286144    2.699736   -1.547496
     62          1           0       -0.166100    2.693071    0.148496
     63          6           0        1.213823    4.268397   -0.359253
     64          1           0        2.613721    1.919527   -2.275041
     65          1           0        3.769493    1.359380   -1.076763
     66          6           0        3.486187    3.497855   -1.071561
     67          1           0        1.535036    1.808196    1.919790
     68          1           0        3.132345    1.303805    1.391378
     69          6           0        2.846441    3.442258    1.352919
     70          1           0        0.400189    4.971744   -0.557683
     71          6           0        2.363582    4.508749   -1.349788
     72          6           0        1.718951    4.449217    1.081146
     73          1           0        4.305264    3.648415   -1.779734
     74          6           0        4.000764    3.680561    0.365984
     75          1           0        3.207223    3.557268    2.378355
     76          1           0        2.741706    5.529509   -1.248754
     77          1           0        2.004417    4.404717   -2.379082
     78          1           0        0.898692    4.303673    1.791174
     79          1           0        2.084418    5.470179    1.226955
     80          1           0        4.821313    2.985135    0.566266
     81          1           0        4.403549    4.689064    0.494325
 ---------------------------------------------------------------------

 SCF Done:  E(RB3LYP) =  -2080.59380488     A.U. after   14 cycles

      1  P    Isotropic =   252.2613   Anisotropy =   111.0830

      2  P    Isotropic =   193.1405   Anisotropy =   114.6591

      3  O    Isotropic =   211.2040   Anisotropy =   111.5032

      4  C    Isotropic =    47.4368   Anisotropy =   169.0786

      5  C    Isotropic =    16.0111   Anisotropy =   136.1896

      6  C    Isotropic =    70.9573   Anisotropy =   157.0511

      7  H    Isotropic =    25.1680   Anisotropy =     7.6547

      8  C    Isotropic =    50.4703   Anisotropy =   179.6164

      9  H    Isotropic =    24.4770   Anisotropy =     4.2927

     10  C    Isotropic =    59.7165   Anisotropy =   168.9825

     11  H    Isotropic =    24.6866   Anisotropy =     6.2700

     12  C    Isotropic =    47.9587   Anisotropy =   180.9441

     13  H    Isotropic =    23.9274   Anisotropy =    10.4850

     14  C    Isotropic =   126.9143   Anisotropy =    77.7035

     15  H    Isotropic =    28.3001   Anisotropy =     8.7769

     16  H    Isotropic =    28.3491   Anisotropy =    10.1053

     17  H    Isotropic =    28.8082   Anisotropy =     9.2776

     18  C    Isotropic =    31.4586   Anisotropy =   211.3948

     19  C    Isotropic =    41.6839   Anisotropy =   182.1340

     20  H    Isotropic =    23.7630   Anisotropy =     7.6964

     21  C    Isotropic =    51.4546   Anisotropy =   181.5636

     22  H    Isotropic =    24.3865   Anisotropy =     5.4638

     23  C    Isotropic =    50.2689   Anisotropy =   186.6977

     24  H    Isotropic =    24.4439   Anisotropy =     3.8278

     25  C    Isotropic =    49.5192   Anisotropy =   183.5702

     26  H    Isotropic =    24.5485   Anisotropy =     6.3741

     27  C    Isotropic =    43.1431   Anisotropy =   185.9026

     28  H    Isotropic =    24.4830   Anisotropy =    12.0921

     29  C    Isotropic =   166.9983   Anisotropy =    21.4848

     30  H    Isotropic =    29.6693   Anisotropy =     6.2969

     31  H    Isotropic =    30.6857   Anisotropy =     4.4511

     32  C    Isotropic =   135.2848   Anisotropy =    29.5956

     33  C    Isotropic =   138.1404   Anisotropy =    10.4946

     34  C    Isotropic =   137.7192   Anisotropy =     8.9076

     35  C    Isotropic =   138.0351   Anisotropy =     7.7198

     36  H    Isotropic =    29.7893   Anisotropy =     8.5410

     37  H    Isotropic =    30.1317   Anisotropy =     5.3318

     38  C    Isotropic =   147.9291   Anisotropy =     8.7726

     39  H    Isotropic =    29.8913   Anisotropy =     9.0385

     40  H    Isotropic =    29.9180   Anisotropy =     4.3905

     41  C    Isotropic =   147.8324   Anisotropy =     9.4189

     42  H    Isotropic =    30.8407   Anisotropy =    10.9856

     43  H    Isotropic =    30.2044   Anisotropy =     5.4571

     44  C    Isotropic =   148.2708   Anisotropy =     8.4004

     45  H    Isotropic =    30.2453   Anisotropy =     9.8507

     46  C    Isotropic =   141.1061   Anisotropy =     7.6259

     47  C    Isotropic =   142.2913   Anisotropy =     8.3617

     48  H    Isotropic =    30.0619   Anisotropy =    10.2555

     49  C    Isotropic =   142.1189   Anisotropy =     6.4723

     50  H    Isotropic =    30.2454   Anisotropy =     9.5715

     51  H    Isotropic =    30.2190   Anisotropy =     9.6086

     52  H    Isotropic =    30.2027   Anisotropy =     8.0591

     53  H    Isotropic =    30.5828   Anisotropy =     6.7607

     54  H    Isotropic =    30.3962   Anisotropy =     9.3239

     55  H    Isotropic =    30.0767   Anisotropy =     8.1608

     56  H    Isotropic =    30.2235   Anisotropy =     9.6326

     57  C    Isotropic =   133.8499   Anisotropy =    31.9727

     58  C    Isotropic =   138.9608   Anisotropy =     9.9375

     59  C    Isotropic =   137.2569   Anisotropy =    10.5866

     60  C    Isotropic =   137.7771   Anisotropy =    11.4350

     61  H    Isotropic =    30.2445   Anisotropy =     4.8492

     62  H    Isotropic =    30.3591   Anisotropy =    10.6148

     63  C    Isotropic =   148.3694   Anisotropy =     8.4811

     64  H    Isotropic =    29.9243   Anisotropy =     4.8237

     65  H    Isotropic =    29.7998   Anisotropy =     8.9928

     66  C    Isotropic =   147.9138   Anisotropy =     9.1049

     67  H    Isotropic =    29.7456   Anisotropy =     4.8970

     68  H    Isotropic =    29.7084   Anisotropy =     8.4822

     69  C    Isotropic =   147.8439   Anisotropy =     7.9518

     70  H    Isotropic =    30.2048   Anisotropy =     9.2913

     71  C    Isotropic =   142.2477   Anisotropy =     6.7111

     72  C    Isotropic =   141.9473   Anisotropy =     8.5903

     73  H    Isotropic =    30.0631   Anisotropy =    10.3724

     74  C    Isotropic =   141.2162   Anisotropy =     7.4053

     75  H    Isotropic =    30.0491   Anisotropy =     9.6806

     76  H    Isotropic =    30.2455   Anisotropy =     9.6499

     77  H    Isotropic =    30.1406   Anisotropy =     8.2109

     78  H    Isotropic =    30.1353   Anisotropy =     7.5504

     79  H    Isotropic =    30.1670   Anisotropy =     9.3957

     80  H    Isotropic =    30.1840   Anisotropy =     7.8806

     81  H    Isotropic =    30.1661   Anisotropy =     9.5509

 The electronic state is 1-A.
 Alpha  occ. eigenvalues --  -77.04019 -77.02809 -19.15741 -10.23530 -10.22607
 Alpha  occ. eigenvalues --  -10.18106 -10.18016 -10.17699 -10.17697 -10.17574
 Alpha  occ. eigenvalues --  -10.17492 -10.17459 -10.17416 -10.17397 -10.17377
 Alpha  occ. eigenvalues --  -10.17300 -10.17277 -10.17206 -10.16665 -10.16606
 Alpha  occ. eigenvalues --  -10.16596 -10.16552 -10.16549 -10.16548 -10.16465
 Alpha  occ. eigenvalues --  -10.15982 -10.15976 -10.15913 -10.15852 -10.15830
 Alpha  occ. eigenvalues --  -10.15824 -10.15769 -10.15767 -10.15746 -10.15692
 Alpha  occ. eigenvalues --  -10.15667 -10.15647  -6.52534  -6.51346  -4.68693
 Alpha  occ. eigenvalues --   -4.68653  -4.68160  -4.67518  -4.67432  -4.66975
 Alpha  occ. eigenvalues --   -1.06616  -0.86874  -0.86629  -0.85721  -0.85298
 Alpha  occ. eigenvalues --   -0.77975  -0.76812  -0.76618  -0.76589  -0.76556
 Alpha  occ. eigenvalues --   -0.76481  -0.76122  -0.75319  -0.74713  -0.74507
 Alpha  occ. eigenvalues --   -0.71798  -0.69703  -0.66803  -0.66569  -0.66360
 Alpha  occ. eigenvalues --   -0.66287  -0.63210  -0.60692  -0.60497  -0.59838
 Alpha  occ. eigenvalues --   -0.59176  -0.58290  -0.58167  -0.57982  -0.57864
 Alpha  occ. eigenvalues --   -0.57105  -0.55464  -0.53269  -0.53191  -0.51817
 Alpha  occ. eigenvalues --   -0.50675  -0.50349  -0.48486  -0.47448  -0.47235
 Alpha  occ. eigenvalues --   -0.45602  -0.45477  -0.45360  -0.45218  -0.45187
 Alpha  occ. eigenvalues --   -0.44986  -0.44845  -0.44686  -0.44498  -0.44371
 Alpha  occ. eigenvalues --   -0.43373  -0.43035  -0.42267  -0.41922  -0.41228
 Alpha  occ. eigenvalues --   -0.41046  -0.40766  -0.40530  -0.40490  -0.40268
 Alpha  occ. eigenvalues --   -0.40265  -0.39528  -0.39317  -0.38942  -0.38697
 Alpha  occ. eigenvalues --   -0.38365  -0.38079  -0.37330  -0.37009  -0.36090
 Alpha  occ. eigenvalues --   -0.35839  -0.34635  -0.34411  -0.33556  -0.33298
 Alpha  occ. eigenvalues --   -0.33133  -0.32800  -0.32776  -0.32713  -0.32597
 Alpha  occ. eigenvalues --   -0.32564  -0.32494  -0.32359  -0.32031  -0.31670
 Alpha  occ. eigenvalues --   -0.31634  -0.28951  -0.28370  -0.28033  -0.27941
 Alpha  occ. eigenvalues --   -0.27858  -0.26554  -0.25685  -0.25350  -0.25212
 Alpha  occ. eigenvalues --   -0.23207  -0.20819  -0.17744
 Alpha virt. eigenvalues --   -0.02596  -0.01999  -0.01091  -0.00122   0.01226
 Alpha virt. eigenvalues --    0.02451   0.02995   0.03465   0.04142   0.04801
 Alpha virt. eigenvalues --    0.05052   0.05559   0.05618   0.06004   0.06366

 Mulliken charges:
               1
     1  P    0.165236
     2  P    0.021299
     3  O   -0.281368
     4  C   -0.075447
     5  C    0.338355
     6  C   -0.269232
     7  H    0.113631
     8  C   -0.096687
     9  H    0.105654
    10  C   -0.180684
    11  H    0.099973
    12  C   -0.113853
    13  H    0.107255
    14  C   -0.205779
    15  H    0.137142
    16  H    0.120569
    17  H    0.121306
    18  C    0.080340
    19  C   -0.179680
    20  H    0.112731
    21  C   -0.105029
    22  H    0.106886
    23  C   -0.097344
    24  H    0.107763
    25  C   -0.121761
    26  H    0.104773
    27  C   -0.178696
    28  H    0.135442
    29  C   -0.371479
    30  H    0.101974
    31  H    0.125148
    32  C    0.294694
    33  C   -0.336740
    34  C   -0.332494
    35  C   -0.397412
    36  H    0.088267
    37  H    0.088107
    38  C    0.114990
    39  H    0.075938
    40  H    0.098953
    41  C    0.108650
    42  H    0.114974
    43  H    0.100615
    44  C    0.121967
    45  H    0.050257
    46  C   -0.246790
    47  C   -0.245792
    48  H    0.052954
    49  C   -0.248051
    50  H    0.053095
    51  H    0.081589
    52  H    0.077061
    53  H    0.080787
    54  H    0.080983
    55  H    0.080426
    56  H    0.081702
    57  C    0.253151
    58  C   -0.336451
    59  C   -0.335554
    60  C   -0.333653
    61  H    0.113592
    62  H    0.074686
    63  C    0.117542
    64  H    0.095647
    65  H    0.088329
    66  C    0.103901
    67  H    0.093540
    68  H    0.076248
    69  C    0.121615
    70  H    0.057515
    71  C   -0.244564
    72  C   -0.253736
    73  H    0.053447
    74  C   -0.245692
    75  H    0.050233
    76  H    0.081570
    77  H    0.082174
    78  H    0.077985
    79  H    0.081969
    80  H    0.077161
    81  H    0.082176
 Sum of Mulliken charges =  -0.00000

 Dipole moment (field-independent basis, Debye):
    X=             -0.9536    Y=             -0.3000    Z=              0.9665  Tot=              1.3904
 Quadrupole moment (field-independent basis, Debye-Ang):
   XX=           -221.0775   YY=           -233.1707   ZZ=           -239.0280
   XY=              0.9118   XZ=              3.2613   YZ=              2.6603

 Summary of Natural Population Analysis:

                                       Natural Population
                Natural  -----------------------------------------------
    Atom  No    Charge         Core      Valence    Rydberg      Total
 -----------------------------------------------------------------------
      P    1    0.84469      9.99817     4.12519    0.03196    14.15531
      P    2    0.82746      9.99827     4.14356    0.03071    14.17254
      O    3   -0.45507      1.99975     6.43811    0.01721     8.45507
      C    4   -0.35832      1.99890     4.32819    0.03123     6.35832
      C    5    0.29181      1.99868     3.68507    0.02444     5.70819
      C    6   -0.29211      1.99905     4.27398    0.01907     6.29211
      H    7    0.21228      0.00000     0.78604    0.00168     0.78772
      C    8   -0.19012      1.99920     4.17102    0.01989     6.19012
      H    9    0.20675      0.00000     0.79204    0.00121     0.79325
      C   10   -0.23434      1.99917     4.21562    0.01955     6.23434
      H   11    0.20731      0.00000     0.79145    0.00124     0.79269
      C   12   -0.19587      1.99909     4.17770    0.01908     6.19587
      H   13    0.19738      0.00000     0.79994    0.00268     0.80262
      C   14   -0.24700      1.99926     4.23414    0.01360     6.24700
      H   15    0.19649      0.00000     0.80221    0.00130     0.80351
      H   16    0.17008      0.00000     0.82762    0.00230     0.82992
      H   17    0.17254      0.00000     0.82515    0.00231     0.82746
      C   18   -0.31012      1.99899     4.27813    0.03300     6.31012
      C   19   -0.19589      1.99908     4.17651    0.02030     6.19589
      H   20    0.21552      0.00000     0.78252    0.00196     0.78448
      C   21   -0.20688      1.99918     4.18890    0.01880     6.20688
      H   22    0.20763      0.00000     0.79109    0.00128     0.79237
      C   23   -0.20426      1.99919     4.18585    0.01923     6.20426
      H   24    0.20692      0.00000     0.79190    0.00118     0.79308
      C   25   -0.20578      1.99919     4.18765    0.01895     6.20578
      H   26    0.20626      0.00000     0.79239    0.00135     0.79374
      C   27   -0.19903      1.99908     4.18029    0.01966     6.19903
      H   28    0.21112      0.00000     0.78663    0.00225     0.78888
      C   29   -1.02324      1.99943     4.99236    0.03144     7.02324
      H   30    0.23433      0.00000     0.76294    0.00273     0.76567
      H   31    0.24446      0.00000     0.75284    0.00271     0.75554
      C   32   -0.25605      1.99937     4.22692    0.02976     6.25605
      C   33   -0.40643      1.99929     4.39230    0.01484     6.40643
      C   34   -0.40507      1.99929     4.39068    0.01510     6.40507
      C   35   -0.41238      1.99930     4.39732    0.01577     6.41238
      H   36    0.19523      0.00000     0.80250    0.00227     0.80477
      H   37    0.19457      0.00000     0.80324    0.00219     0.80543
      C   38   -0.20610      1.99939     4.19064    0.01607     6.20610
      H   39    0.19424      0.00000     0.80350    0.00226     0.80576
      H   40    0.20622      0.00000     0.79151    0.00227     0.79378
      C   41   -0.20347      1.99938     4.18804    0.01604     6.20347
      H   42    0.20324      0.00000     0.79453    0.00223     0.79676
      H   43    0.20894      0.00000     0.78891    0.00215     0.79106
      C   44   -0.20446      1.99938     4.18895    0.01613     6.20446
      H   45    0.19792      0.00000     0.80040    0.00168     0.80208
      C   46   -0.38796      1.99936     4.37474    0.01385     6.38796
      C   47   -0.38822      1.99936     4.37499    0.01387     6.38822
      H   48    0.19991      0.00000     0.79849    0.00160     0.80009
      C   49   -0.38792      1.99936     4.37465    0.01390     6.38792
      H   50    0.20112      0.00000     0.79721    0.00168     0.79888
      H   51    0.19781      0.00000     0.80040    0.00179     0.80219
      H   52    0.19629      0.00000     0.80217    0.00155     0.80371
      H   53    0.19857      0.00000     0.79991    0.00153     0.80143
      H   54    0.19754      0.00000     0.80068    0.00177     0.80246
      H   55    0.19914      0.00000     0.79934    0.00152     0.80086
      H   56    0.19730      0.00000     0.80093    0.00177     0.80270
      C   57   -0.25147      1.99937     4.22214    0.02996     6.25147
      C   58   -0.41227      1.99930     4.39756    0.01541     6.41227
      C   59   -0.40657      1.99929     4.39170    0.01558     6.40657
      C   60   -0.40640      1.99929     4.39203    0.01508     6.40640
      H   61    0.21335      0.00000     0.78468    0.00198     0.78665
      H   62    0.19896      0.00000     0.79865    0.00239     0.80104
      C   63   -0.20430      1.99938     4.18856    0.01636     6.20430
      H   64    0.20672      0.00000     0.79096    0.00231     0.79328
      H   65    0.19584      0.00000     0.80196    0.00220     0.80416
      C   66   -0.20549      1.99939     4.18916    0.01694     6.20549
      H   67    0.19262      0.00000     0.80490    0.00248     0.80738
      H   68    0.19466      0.00000     0.80299    0.00235     0.80534
      C   69   -0.20669      1.99939     4.19097    0.01634     6.20669
      H   70    0.20247      0.00000     0.79593    0.00159     0.79753
      C   71   -0.38826      1.99936     4.37468    0.01421     6.38826
      C   72   -0.38788      1.99936     4.37459    0.01393     6.38788
      H   73    0.20420      0.00000     0.79397    0.00183     0.79580
      C   74   -0.38845      1.99936     4.37492    0.01417     6.38845
      H   75    0.19787      0.00000     0.80046    0.00167     0.80213
      H   76    0.19711      0.00000     0.80111    0.00178     0.80289
      H   77    0.20007      0.00000     0.79842    0.00152     0.79993
      H   78    0.19636      0.00000     0.80208    0.00155     0.80364
      H   79    0.19818      0.00000     0.80006    0.00177     0.80182
      H   80    0.19643      0.00000     0.80203    0.00155     0.80357
      H   81    0.19796      0.00000     0.80025    0.00179     0.80204
 =======================================================================
   * Total *    0.00000     89.97067   195.22475    0.80457   286.00000

 Normal termination of Gaussian 16 at Thu Jan 30 17:42:36 2025.
