 Gaussian 16, Revision B.01,
 Gaussian 16:  ES64L-G16RevB.01 20-Dec-2017

 --------------------------------------------
 # nmr=giao b3lyp/def2TZVP pop=nbo scfcyc=200
 --------------------------------------------

 -------------
 dcpa SPE NoRh
 -------------
 Symbolic Z-matrix:
 Charge =  0 Multiplicity = 1

                         Standard orientation:
 ---------------------------------------------------------------------
 Center     Atomic      Atomic             Coordinates (Angstroms)
 Number     Number       Type             X           Y           Z
 ---------------------------------------------------------------------
      1         15           0       -1.462576   -0.026204   -0.569091
      2         15           0        1.271922    0.058834   -0.510082
      3          7           0       -0.129222    0.150768    0.525706
      4          6           0       -0.142517    0.054354    1.986659
      5          1           0       -1.128456    0.313877    2.367324
      6          1           0        0.569782    0.756507    2.422037
      7          1           0        0.101104   -0.952614    2.339287
      8          6           0       -2.690588    1.377963   -0.330024
      9          1           0       -3.419629    1.166296   -1.124016
     10          6           0       -2.069410    2.752311   -0.629211
     11          1           0       -1.530096    2.728140   -1.578707
     12          1           0       -1.332279    2.985089    0.142244
     13          6           0       -3.141087    3.851189   -0.648885
     14          1           0       -2.668346    4.819355   -0.830376
     15          1           0       -3.823014    3.676719   -1.489895
     16          6           0       -3.940782    3.885014    0.656361
     17          1           0       -3.283689    4.199909    1.474854
     18          1           0       -4.735408    4.631735    0.593911
     19          6           0       -4.533586    2.512087    0.984147
     20          1           0       -5.293029    2.252816    0.238348
     21          1           0       -5.044238    2.537745    1.950204
     22          6           0       -3.456900    1.415229    1.005780
     23          1           0       -3.922411    0.452873    1.226103
     24          1           0       -2.758346    1.628386    1.821063
     25          6           0       -2.417126   -1.562832   -0.061871
     26          1           0       -2.709057   -1.404804    0.981914
     27          6           0       -3.701382   -1.732318   -0.899345
     28          1           0       -3.435991   -1.809563   -1.959030
     29          1           0       -4.349507   -0.859760   -0.799854
     30          6           0       -4.479307   -2.991384   -0.489153
     31          1           0       -4.853597   -2.864829    0.533216
     32          1           0       -5.358325   -3.096752   -1.130160
     33          6           0       -3.608652   -4.247263   -0.560955
     34          1           0       -3.336718   -4.442825   -1.604258
     35          1           0       -4.172709   -5.117250   -0.219550
     36          6           0       -2.336456   -4.081608    0.274548
     37          1           0       -1.696504   -4.962086    0.173489
     38          1           0       -2.605044   -4.012335    1.333781
     39          6           0       -1.546812   -2.828445   -0.129912
     40          1           0       -1.163455   -2.950017   -1.149462
     41          1           0       -0.679076   -2.722856    0.522871
     42          6           0        2.404901    1.474257   -0.028795
     43          1           0        2.718415    1.275213    1.000824
     44          6           0        1.691496    2.834192   -0.059991
     45          1           0        0.831651    2.821708    0.611480
     46          1           0        1.300953    3.017139   -1.065958
     47          6           0        2.643200    3.972109    0.335624
     48          1           0        2.116305    4.926541    0.265840
     49          1           0        2.929285    3.853730    1.386453
     50          6           0        3.902219    3.992258   -0.534415
     51          1           0        4.581991    4.778080   -0.196559
     52          1           0        3.628051    4.241299   -1.565065
     53          6           0        4.611911    2.635792   -0.511597
     54          1           0        5.000206    2.443927    0.495016
     55          1           0        5.475626    2.645337   -1.180748
     56          6           0        3.667321    1.495079   -0.914865
     57          1           0        4.200677    0.544310   -0.860275
     58          1           0        3.374525    1.629055   -1.961036
     59          6           0        2.170930   -1.526247    0.011225
     60          1           0        1.329031   -2.166158    0.295542
     61          6           0        2.889770   -2.233310   -1.154049
     62          1           0        3.711203   -1.610313   -1.521769
     63          1           0        2.195538   -2.371550   -1.985107
     64          6           0        3.449373   -3.594705   -0.716760
     65          1           0        2.614916   -4.265977   -0.485017
     66          1           0        3.989755   -4.049429   -1.550424
     67          6           0        4.358864   -3.475111    0.508707
     68          1           0        4.696869   -4.464443    0.824898
     69          1           0        5.259451   -2.910832    0.240591
     70          6           0        3.641306   -2.769084    1.661047
     71          1           0        4.316797   -2.641935    2.510619
     72          1           0        2.813175   -3.394060    2.013727
     73          6           0        3.097759   -1.396287    1.234256
     74          1           0        3.943893   -0.746113    0.993375
     75          1           0        2.577433   -0.933565    2.074758
 ---------------------------------------------------------------------

 SCF Done:  E(RB3LYP) =  -1718.88833949     A.U. after   19 cycles

      1  P    Isotropic =   151.4276   Anisotropy =   196.8524

      2  P    Isotropic =   152.0634   Anisotropy =   194.5931

      3  N    Isotropic =   202.1937   Anisotropy =    25.1761

      4  C    Isotropic =   148.9422   Anisotropy =    49.8284

      5  H    Isotropic =    29.0860   Anisotropy =     6.5006

      6  H    Isotropic =    29.2460   Anisotropy =     6.7873

      7  H    Isotropic =    29.2165   Anisotropy =     6.8553

      8  C    Isotropic =   132.9008   Anisotropy =    33.6880

      9  H    Isotropic =    30.7865   Anisotropy =     4.3986

     10  C    Isotropic =   148.1153   Anisotropy =     4.7408

     11  H    Isotropic =    29.9078   Anisotropy =     6.4391

     12  H    Isotropic =    30.4421   Anisotropy =     9.8933

     13  C    Isotropic =   151.1688   Anisotropy =     7.4977

     14  H    Isotropic =    30.0883   Anisotropy =     9.1222

     15  H    Isotropic =    30.6137   Anisotropy =     8.2435

     16  C    Isotropic =   152.2320   Anisotropy =     4.0615

     17  H    Isotropic =    30.6658   Anisotropy =     7.3597

     18  H    Isotropic =    30.2385   Anisotropy =    10.6455

     19  C    Isotropic =   150.6377   Anisotropy =     8.5117

     20  H    Isotropic =    30.8902   Anisotropy =     7.9543

     21  H    Isotropic =    30.2011   Anisotropy =     9.6567

     22  C    Isotropic =   150.9494   Anisotropy =    10.0220

     23  H    Isotropic =    29.8922   Anisotropy =     7.8961

     24  H    Isotropic =    30.5746   Anisotropy =     5.5285

     25  C    Isotropic =   143.9057   Anisotropy =    21.8845

     26  H    Isotropic =    29.7228   Anisotropy =     4.8067

     27  C    Isotropic =   152.4766   Anisotropy =    10.0711

     28  H    Isotropic =    30.9275   Anisotropy =     5.6845

     29  H    Isotropic =    30.6839   Anisotropy =     8.1731

     30  C    Isotropic =   151.8521   Anisotropy =     6.4981

     31  H    Isotropic =    30.5733   Anisotropy =     7.5913

     32  H    Isotropic =    30.1551   Anisotropy =    10.1622

     33  C    Isotropic =   153.0054   Anisotropy =     3.6146

     34  H    Isotropic =    30.6266   Anisotropy =     8.2832

     35  H    Isotropic =    30.2268   Anisotropy =    10.5993

     36  C    Isotropic =   151.8471   Anisotropy =     7.1417

     37  H    Isotropic =    30.0296   Anisotropy =     8.9356

     38  H    Isotropic =    30.5522   Anisotropy =     7.0954

     39  C    Isotropic =   149.3290   Anisotropy =     7.1166

     40  H    Isotropic =    30.5089   Anisotropy =     6.1076

     41  H    Isotropic =    30.0608   Anisotropy =    10.8880

     42  C    Isotropic =   144.8295   Anisotropy =    24.4462

     43  H    Isotropic =    29.7581   Anisotropy =     5.6684

     44  C    Isotropic =   149.7104   Anisotropy =     5.4953

     45  H    Isotropic =    30.0552   Anisotropy =     9.8719

     46  H    Isotropic =    30.6644   Anisotropy =     6.5881

     47  C    Isotropic =   151.7228   Anisotropy =     7.6258

     48  H    Isotropic =    30.0619   Anisotropy =     9.0459

     49  H    Isotropic =    30.5864   Anisotropy =     7.2239

     50  C    Isotropic =   152.7916   Anisotropy =     3.8897

     51  H    Isotropic =    30.2150   Anisotropy =    10.6613

     52  H    Isotropic =    30.6385   Anisotropy =     8.3123

     53  C    Isotropic =   152.2284   Anisotropy =     6.5936

     54  H    Isotropic =    30.5733   Anisotropy =     7.4485

     55  H    Isotropic =    30.2000   Anisotropy =    10.1031

     56  C    Isotropic =   151.7001   Anisotropy =    10.0411

     57  H    Isotropic =    30.6786   Anisotropy =     8.8721

     58  H    Isotropic =    30.9081   Anisotropy =     5.2415

     59  C    Isotropic =   138.6453   Anisotropy =    20.3732

     60  H    Isotropic =    30.0934   Anisotropy =     9.7097

     61  C    Isotropic =   147.1105   Anisotropy =    16.6024

     62  H    Isotropic =    30.9409   Anisotropy =     5.6782

     63  H    Isotropic =    29.9285   Anisotropy =     5.9378

     64  C    Isotropic =   150.4512   Anisotropy =     7.1770

     65  H    Isotropic =    30.6016   Anisotropy =     7.1595

     66  H    Isotropic =    30.1660   Anisotropy =    10.0457

     67  C    Isotropic =   152.8596   Anisotropy =     2.9960

     68  H    Isotropic =    30.2701   Anisotropy =    10.5742

     69  H    Isotropic =    30.7622   Anisotropy =     8.4412

     70  C    Isotropic =   151.2222   Anisotropy =     7.2278

     71  H    Isotropic =    30.1896   Anisotropy =     9.7462

     72  H    Isotropic =    30.6294   Anisotropy =     6.7649

     73  C    Isotropic =   149.7543   Anisotropy =    10.4591

     74  H    Isotropic =    30.6100   Anisotropy =     6.9415

     75  H    Isotropic =    30.0378   Anisotropy =     5.9012

 The electronic state is 1-A.
 Alpha  occ. eigenvalues --  -77.04284 -77.04209 -14.31243 -10.19846 -10.16858
 Alpha  occ. eigenvalues --  -10.16823 -10.16774 -10.16602 -10.16547 -10.16398
 Alpha  occ. eigenvalues --  -10.16387 -10.16374 -10.16358 -10.16295 -10.16276
 Alpha  occ. eigenvalues --  -10.16189 -10.16176 -10.16168 -10.16159 -10.16127
 Alpha  occ. eigenvalues --  -10.16121 -10.16112 -10.16083 -10.16082 -10.16077
 Alpha  occ. eigenvalues --  -10.16059 -10.16029 -10.16022  -6.52565  -6.52502
 Alpha  occ. eigenvalues --   -4.68818  -4.68759  -4.68609  -4.68546  -4.68203
 Alpha  occ. eigenvalues --   -4.68139  -0.88654  -0.83250  -0.82985  -0.82753
 Alpha  occ. eigenvalues --   -0.82629  -0.75302  -0.74915  -0.74163  -0.74038
 Alpha  occ. eigenvalues --   -0.73981  -0.73898  -0.73441  -0.73338  -0.69235
 Alpha  occ. eigenvalues --   -0.63719  -0.61688  -0.60997  -0.60872  -0.60810
 Alpha  occ. eigenvalues --   -0.60685  -0.59970  -0.59888  -0.56201  -0.55610
 Alpha  occ. eigenvalues --   -0.55291  -0.55199  -0.53664  -0.51829  -0.47950
 Alpha  occ. eigenvalues --   -0.47797  -0.47262  -0.46925  -0.45287  -0.44743
 Alpha  occ. eigenvalues --   -0.44366  -0.44158  -0.44038  -0.44002  -0.43918
 Alpha  occ. eigenvalues --   -0.43704  -0.43648  -0.43514  -0.43276  -0.42920
 Alpha  occ. eigenvalues --   -0.42245  -0.40637  -0.39703  -0.38287  -0.38032
 Alpha  occ. eigenvalues --   -0.37980  -0.37870  -0.37785  -0.37726  -0.37692
 Alpha  occ. eigenvalues --   -0.37526  -0.36342  -0.35711  -0.35644  -0.34850
 Alpha  occ. eigenvalues --   -0.34697  -0.34435  -0.34334  -0.34235  -0.34073
 Alpha  occ. eigenvalues --   -0.34012  -0.33616  -0.32250  -0.32062  -0.31891
 Alpha  occ. eigenvalues --   -0.31651  -0.31157  -0.30652  -0.30264  -0.30247
 Alpha  occ. eigenvalues --   -0.30149  -0.29377  -0.29159  -0.27303  -0.23078
 Alpha  occ. eigenvalues --   -0.22477  -0.17352
 Alpha virt. eigenvalues --    0.01321   0.02294   0.02886   0.03473   0.03635
 Alpha virt. eigenvalues --    0.04080   0.04477   0.04753   0.04871   0.05471
 Alpha virt. eigenvalues --    0.06057   0.06256   0.06385   0.06629   0.07322

 Mulliken charges:
               1
     1  P    0.176691
     2  P    0.201074
     3  N   -0.299476
     4  C   -0.327915
     5  H    0.130356
     6  H    0.127071
     7  H    0.117522
     8  C   -0.044548
     9  H    0.069647
    10  C   -0.206098
    11  H    0.103115
    12  H    0.074705
    13  C   -0.154250
    14  H    0.090951
    15  H    0.079710
    16  C   -0.158271
    17  H    0.074551
    18  H    0.090548
    19  C   -0.164820
    20  H    0.079741
    21  H    0.088794
    22  C   -0.236454
    23  H    0.105414
    24  H    0.074372
    25  C   -0.046113
    26  H    0.060760
    27  C   -0.223188
    28  H    0.091697
    29  H    0.103062
    30  C   -0.156195
    31  H    0.076095
    32  H    0.092588
    33  C   -0.153896
    34  H    0.078320
    35  H    0.090738
    36  C   -0.154963
    37  H    0.091578
    38  H    0.076527
    39  C   -0.240825
    40  H    0.094258
    41  H    0.098007
    42  C   -0.063430
    43  H    0.063634
    44  C   -0.227270
    45  H    0.098395
    46  H    0.090536
    47  C   -0.145820
    48  H    0.091073
    49  H    0.075241
    50  C   -0.154932
    51  H    0.089937
    52  H    0.077915
    53  C   -0.157442
    54  H    0.077218
    55  H    0.091679
    56  C   -0.216121
    57  H    0.093610
    58  H    0.091180
    59  C   -0.055714
    60  H    0.032636
    61  C   -0.195118
    62  H    0.085573
    63  H    0.103141
    64  C   -0.165243
    65  H    0.080633
    66  H    0.091362
    67  C   -0.153255
    68  H    0.091293
    69  H    0.074872
    70  C   -0.158716
    71  H    0.087866
    72  H    0.078538
    73  C   -0.240470
    74  H    0.090986
    75  H    0.105331
 Sum of Mulliken charges =  -0.00000

 Dipole moment (field-independent basis, Debye):
    X=             -0.1776    Y=             -0.1477    Z=              2.0314  Tot=              2.0445
 Quadrupole moment (field-independent basis, Debye-Ang):
   XX=           -190.7697   YY=           -193.2863   ZZ=           -197.7906
   XY=              0.5791   XZ=              0.0859   YZ=              0.1321

 Summary of Natural Population Analysis:

                                       Natural Population
                Natural  -----------------------------------------------
    Atom  No    Charge         Core      Valence    Rydberg      Total
 -----------------------------------------------------------------------
      P    1    1.02645      9.99825     3.93480    0.04051    13.97355
      P    2    1.02137      9.99827     3.94125    0.03911    13.97863
      N    3   -1.03180      1.99961     5.99614    0.03606     8.03180
      C    4   -0.41094      1.99937     4.39025    0.02132     6.41094
      H    5    0.19802      0.00000     0.80022    0.00177     0.80198
      H    6    0.19106      0.00000     0.80693    0.00201     0.80894
      H    7    0.17848      0.00000     0.81922    0.00229     0.82152
      C    8   -0.50781      1.99937     4.48110    0.02733     6.50781
      H    9    0.21104      0.00000     0.78660    0.00236     0.78896
      C   10   -0.39013      1.99938     4.37582    0.01493     6.39013
      H   11    0.21352      0.00000     0.78477    0.00171     0.78648
      H   12    0.18948      0.00000     0.80819    0.00234     0.81052
      C   13   -0.38104      1.99943     4.36815    0.01346     6.38104
      H   14    0.20103      0.00000     0.79759    0.00137     0.79897
      H   15    0.18702      0.00000     0.81118    0.00179     0.81298
      C   16   -0.38591      1.99942     4.37312    0.01336     6.38591
      H   17    0.18614      0.00000     0.81202    0.00184     0.81386
      H   18    0.20101      0.00000     0.79764    0.00135     0.79899
      C   19   -0.38278      1.99943     4.36976    0.01359     6.38278
      H   20    0.18628      0.00000     0.81190    0.00183     0.81372
      H   21    0.19877      0.00000     0.79972    0.00151     0.80123
      C   22   -0.39451      1.99938     4.38060    0.01453     6.39451
      H   23    0.19697      0.00000     0.80095    0.00207     0.80303
      H   24    0.18274      0.00000     0.81464    0.00262     0.81726
      C   25   -0.51308      1.99938     4.48678    0.02692     6.51308
      H   26    0.18972      0.00000     0.80636    0.00392     0.81028
      C   27   -0.39019      1.99938     4.37660    0.01421     6.39019
      H   28    0.19480      0.00000     0.80266    0.00254     0.80520
      H   29    0.19957      0.00000     0.79860    0.00183     0.80043
      C   30   -0.37976      1.99942     4.36685    0.01349     6.37976
      H   31    0.18601      0.00000     0.81213    0.00185     0.81399
      H   32    0.20105      0.00000     0.79755    0.00140     0.79895
      C   33   -0.38597      1.99942     4.37334    0.01321     6.38597
      H   34    0.18860      0.00000     0.80955    0.00184     0.81140
      H   35    0.20073      0.00000     0.79792    0.00136     0.79927
      C   36   -0.38029      1.99942     4.36748    0.01338     6.38029
      H   37    0.20067      0.00000     0.79793    0.00140     0.79933
      H   38    0.18608      0.00000     0.81206    0.00186     0.81392
      C   39   -0.38833      1.99938     4.37444    0.01450     6.38833
      H   40    0.19546      0.00000     0.80205    0.00249     0.80454
      H   41    0.19709      0.00000     0.80073    0.00218     0.80291
      C   42   -0.51665      1.99938     4.48995    0.02732     6.51665
      H   43    0.19173      0.00000     0.80420    0.00407     0.80827
      C   44   -0.38798      1.99938     4.37414    0.01446     6.38798
      H   45    0.20280      0.00000     0.79513    0.00207     0.79720
      H   46    0.19390      0.00000     0.80338    0.00272     0.80610
      C   47   -0.38043      1.99942     4.36766    0.01334     6.38043
      H   48    0.20025      0.00000     0.79835    0.00140     0.79975
      H   49    0.18550      0.00000     0.81265    0.00185     0.81450
      C   50   -0.38570      1.99942     4.37306    0.01322     6.38570
      H   51    0.20020      0.00000     0.79843    0.00137     0.79980
      H   52    0.18839      0.00000     0.80976    0.00185     0.81161
      C   53   -0.37992      1.99942     4.36711    0.01339     6.37992
      H   54    0.18602      0.00000     0.81214    0.00185     0.81398
      H   55    0.20075      0.00000     0.79785    0.00140     0.79925
      C   56   -0.39026      1.99938     4.37662    0.01426     6.39026
      H   57    0.19857      0.00000     0.79943    0.00200     0.80143
      H   58    0.19562      0.00000     0.80185    0.00253     0.80438
      C   59   -0.50744      1.99937     4.48093    0.02714     6.50744
      H   60    0.20974      0.00000     0.78731    0.00295     0.79026
      C   61   -0.38843      1.99938     4.37402    0.01503     6.38843
      H   62    0.18666      0.00000     0.81117    0.00217     0.81334
      H   63    0.21267      0.00000     0.78556    0.00178     0.78733
      C   64   -0.38276      1.99942     4.36969    0.01365     6.38276
      H   65    0.18644      0.00000     0.81176    0.00180     0.81356
      H   66    0.20160      0.00000     0.79704    0.00136     0.79840
      C   67   -0.38638      1.99942     4.37358    0.01337     6.38638
      H   68    0.20086      0.00000     0.79779    0.00135     0.79914
      H   69    0.18668      0.00000     0.81148    0.00184     0.81332
      C   70   -0.38226      1.99943     4.36924    0.01359     6.38226
      H   71    0.19863      0.00000     0.79988    0.00150     0.80137
      H   72    0.18512      0.00000     0.81301    0.00187     0.81488
      C   73   -0.39471      1.99938     4.38079    0.01453     6.39471
      H   74    0.18750      0.00000     0.81007    0.00243     0.81250
      H   75    0.19667      0.00000     0.80111    0.00222     0.80333
 =======================================================================
   * Total *    0.00000     71.98116   161.40174    0.61710   234.00000

 Normal termination of Gaussian 16 at Thu Jan 23 00:40:39 2025.
