 Gaussian 16, Revision B.01,
 Gaussian 16:  ES64L-G16RevB.01 20-Dec-2017

 --------------------------------------------
 # nmr=giao b3lyp/def2TZVP pop=nbo scfcyc=200
 --------------------------------------------

 ---------------
 diprpa SPE NoRh
 ---------------
 Symbolic Z-matrix:
 Charge =  0 Multiplicity = 1

                         Standard orientation:
 ---------------------------------------------------------------------
 Center     Atomic      Atomic             Coordinates (Angstroms)
 Number     Number       Type             X           Y           Z
 ---------------------------------------------------------------------
      1         15           0        1.298500    0.027747   -0.436199
      2         15           0       -1.431121   -0.054967   -0.524061
      3          7           0       -0.111606    0.146044    0.582407
      4          6           0       -0.144397    0.086647    2.046211
      5          1           0        0.565769    0.796723    2.473548
      6          1           0        0.089827   -0.911380    2.428669
      7          1           0       -1.133223    0.360448    2.407728
      8          6           0        2.430423    1.454154    0.026242
      9          1           0        2.717410    1.283710    1.067541
     10          6           0        1.718368    2.803990   -0.067288
     11          1           0        2.412541    3.600552    0.209998
     12          1           0        0.863549    2.861639    0.604606
     13          1           0        1.366925    3.005225   -1.080830
     14          6           0        3.704155    1.432015   -0.832395
     15          1           0        3.479631    1.594654   -1.888235
     16          1           0        4.262602    0.501072   -0.744241
     17          1           0        4.367628    2.239245   -0.513291
     18          6           0        2.194422   -1.543823    0.134538
     19          1           0        1.349860   -2.184228    0.401098
     20          6           0        3.076904   -1.376460    1.379177
     21          1           0        3.400615   -2.361939    1.721589
     22          1           0        2.557801   -0.899813    2.211138
     23          1           0        3.977951   -0.799158    1.168846
     24          6           0        2.953672   -2.248952   -0.995838
     25          1           0        3.785227   -1.651451   -1.375428
     26          1           0        2.297804   -2.494847   -1.830285
     27          1           0        3.375804   -3.183608   -0.619388
     28          6           0       -2.662694    1.355771   -0.323744
     29          1           0       -3.380085    1.130511   -1.120573
     30          6           0       -2.022843    2.712034   -0.638367
     31          1           0       -2.800468    3.473516   -0.722527
     32          1           0       -1.459284    2.694911   -1.572145
     33          1           0       -1.345981    3.020566    0.158016
     34          6           0       -3.428994    1.404529    1.005189
     35          1           0       -2.778970    1.695677    1.831094
     36          1           0       -3.909687    0.461015    1.260956
     37          1           0       -4.214415    2.160141    0.937178
     38          6           0       -2.390258   -1.583003    0.004980
     39          1           0       -2.687276   -1.405555    1.043607
     40          6           0       -1.517607   -2.839774   -0.040680
     41          1           0       -2.112372   -3.709000    0.247332
     42          1           0       -0.676652   -2.780668    0.651004
     43          1           0       -1.125728   -3.019328   -1.043562
     44          6           0       -3.661698   -1.760150   -0.837378
     45          1           0       -3.426267   -1.908606   -1.893343
     46          1           0       -4.347894   -0.917447   -0.758078
     47          1           0       -4.198788   -2.648457   -0.498855
 ---------------------------------------------------------------------

 SCF Done:  E(RB3LYP) =  -1251.78701699     A.U. after   14 cycles

      1  P    Isotropic =   150.2884   Anisotropy =   193.4126

      2  P    Isotropic =   146.4810   Anisotropy =   192.5429

      3  N    Isotropic =   200.4974   Anisotropy =    28.3116

      4  C    Isotropic =   149.3596   Anisotropy =    49.7739

      5  H    Isotropic =    29.1757   Anisotropy =     7.5318

      6  H    Isotropic =    29.1541   Anisotropy =     7.6459

      7  H    Isotropic =    29.0971   Anisotropy =     6.9019

      8  C    Isotropic =   154.7651   Anisotropy =    27.4731

      9  H    Isotropic =    29.5972   Anisotropy =     3.8669

     10  C    Isotropic =   162.0165   Anisotropy =    28.5104

     11  H    Isotropic =    30.8888   Anisotropy =     9.6558

     12  H    Isotropic =    30.5655   Anisotropy =     8.5186

     13  H    Isotropic =    30.9681   Anisotropy =     6.7457

     14  C    Isotropic =   164.8886   Anisotropy =    31.3639

     15  H    Isotropic =    31.2333   Anisotropy =     7.7910

     16  H    Isotropic =    31.2896   Anisotropy =     8.1817

     17  H    Isotropic =    30.9742   Anisotropy =    10.5663

     18  C    Isotropic =   148.4902   Anisotropy =    16.9901

     19  H    Isotropic =    29.7920   Anisotropy =     8.9970

     20  C    Isotropic =   164.2744   Anisotropy =    26.7504

     21  H    Isotropic =    30.7853   Anisotropy =    10.2885

     22  H    Isotropic =    30.5970   Anisotropy =     5.9064

     23  H    Isotropic =    30.8900   Anisotropy =     6.2436

     24  C    Isotropic =   159.9652   Anisotropy =    34.1910

     25  H    Isotropic =    31.1821   Anisotropy =     7.0163

     26  H    Isotropic =    30.3882   Anisotropy =     8.0874

     27  H    Isotropic =    30.9841   Anisotropy =     9.9908

     28  C    Isotropic =   142.5893   Anisotropy =    25.3849

     29  H    Isotropic =    30.4706   Anisotropy =     6.1737

     30  C    Isotropic =   160.8971   Anisotropy =    30.7238

     31  H    Isotropic =    30.7136   Anisotropy =     9.6870

     32  H    Isotropic =    30.3533   Anisotropy =     7.3678

     33  H    Isotropic =    30.8074   Anisotropy =     6.6202

     34  C    Isotropic =   165.8249   Anisotropy =    24.5713

     35  H    Isotropic =    31.0190   Anisotropy =     5.3625

     36  H    Isotropic =    30.3284   Anisotropy =     6.0550

     37  H    Isotropic =    31.0071   Anisotropy =    10.8757

     38  C    Isotropic =   152.9086   Anisotropy =    22.3649

     39  H    Isotropic =    29.5791   Anisotropy =     3.6174

     40  C    Isotropic =   162.0361   Anisotropy =    31.1907

     41  H    Isotropic =    30.8144   Anisotropy =     9.6536

     42  H    Isotropic =    30.6270   Anisotropy =     8.6106

     43  H    Isotropic =    30.8407   Anisotropy =     6.6549

     44  C    Isotropic =   165.3745   Anisotropy =    32.3484

     45  H    Isotropic =    31.2198   Anisotropy =     8.1282

     46  H    Isotropic =    31.1954   Anisotropy =     8.4002

     47  H    Isotropic =    30.9998   Anisotropy =    10.5445

 The electronic state is 1-A.
 Alpha  occ. eigenvalues --  -77.04545 -77.04478 -14.31522 -10.20092 -10.17508
 Alpha  occ. eigenvalues --  -10.17503 -10.17440 -10.17245 -10.16291 -10.16158
 Alpha  occ. eigenvalues --  -10.16141 -10.16137 -10.16118 -10.15870 -10.15807
 Alpha  occ. eigenvalues --  -10.15786  -6.52825  -6.52772  -4.69078  -4.69028
 Alpha  occ. eigenvalues --   -4.68868  -4.68815  -4.68464  -4.68410  -0.88899
 Alpha  occ. eigenvalues --   -0.79889  -0.79324  -0.78087  -0.77855  -0.69850
 Alpha  occ. eigenvalues --   -0.68833  -0.68583  -0.68536  -0.68343  -0.63828
 Alpha  occ. eigenvalues --   -0.60589  -0.58230  -0.58165  -0.53016  -0.51305
 Alpha  occ. eigenvalues --   -0.47319  -0.46470  -0.45959  -0.45879  -0.45325
 Alpha  occ. eigenvalues --   -0.44714  -0.43523  -0.43013  -0.42568  -0.41172
 Alpha  occ. eigenvalues --   -0.40834  -0.40361  -0.40035  -0.39707  -0.38865
 Alpha  occ. eigenvalues --   -0.38789  -0.38529  -0.38178  -0.37381  -0.35718
 Alpha  occ. eigenvalues --   -0.35197  -0.34723  -0.34644  -0.34602  -0.34230
 Alpha  occ. eigenvalues --   -0.33967  -0.33943  -0.31435  -0.31213  -0.28947
 Alpha  occ. eigenvalues --   -0.23547  -0.22869  -0.17689
 Alpha virt. eigenvalues --    0.01541   0.02485   0.02901   0.04133   0.04840
 Alpha virt. eigenvalues --    0.05704   0.05796   0.06220   0.06563   0.07522
 Alpha virt. eigenvalues --    0.07711   0.08152   0.08452   0.08589   0.09223

 Mulliken charges:
               1
     1  P    0.192169
     2  P    0.176789
     3  N   -0.298984
     4  C   -0.325886
     5  H    0.128289
     6  H    0.119792
     7  H    0.129331
     8  C   -0.058690
     9  H    0.069845
    10  C   -0.343677
    11  H    0.107490
    12  H    0.108892
    13  H    0.109917
    14  C   -0.349449
    15  H    0.112555
    16  H    0.106223
    17  H    0.108616
    18  C   -0.061078
    19  H    0.059591
    20  C   -0.371454
    21  H    0.107230
    22  H    0.120341
    23  H    0.112521
    24  C   -0.331586
    25  H    0.102878
    26  H    0.120685
    27  H    0.103483
    28  C   -0.041781
    29  H    0.080825
    30  C   -0.346255
    31  H    0.109211
    32  H    0.122303
    33  H    0.096883
    34  C   -0.374690
    35  H    0.101526
    36  H    0.120983
    37  H    0.104953
    38  C   -0.047945
    39  H    0.066240
    40  C   -0.365406
    41  H    0.107933
    42  H    0.110144
    43  H    0.116961
    44  C   -0.358283
    45  H    0.113753
    46  H    0.118331
    47  H    0.108480
 Sum of Mulliken charges =  -0.00000

 Dipole moment (field-independent basis, Debye):
    X=             -0.2985    Y=             -0.1433    Z=              2.1614  Tot=              2.1866
 Quadrupole moment (field-independent basis, Debye-Ang):
   XX=           -117.5782   YY=           -119.9642   ZZ=           -124.2719
   XY=              0.4203   XZ=              0.4675   YZ=             -0.3781

 Summary of Natural Population Analysis:

                                       Natural Population
                Natural  -----------------------------------------------
    Atom  No    Charge         Core      Valence    Rydberg      Total
 -----------------------------------------------------------------------
      P    1    0.99555      9.99833     3.96579    0.04033    14.00445
      P    2    1.00110      9.99830     3.95884    0.04175    13.99890
      N    3   -1.03132      1.99961     5.99576    0.03594     8.03132
      C    4   -0.41270      1.99938     4.39137    0.02195     6.41270
      H    5    0.19127      0.00000     0.80664    0.00209     0.80873
      H    6    0.17885      0.00000     0.81874    0.00241     0.82115
      H    7    0.19838      0.00000     0.79972    0.00190     0.80162
      C    8   -0.51126      1.99945     4.48645    0.02536     6.51126
      H    9    0.19124      0.00000     0.80476    0.00401     0.80876
      C   10   -0.59024      1.99943     4.57922    0.01160     6.59024
      H   11    0.20099      0.00000     0.79743    0.00158     0.79901
      H   12    0.20513      0.00000     0.79337    0.00150     0.79487
      H   13    0.20385      0.00000     0.79445    0.00170     0.79615
      C   14   -0.59469      1.99943     4.58366    0.01160     6.59469
      H   15    0.20578      0.00000     0.79235    0.00187     0.79422
      H   16    0.20131      0.00000     0.79706    0.00163     0.79869
      H   17    0.20386      0.00000     0.79452    0.00162     0.79614
      C   18   -0.50155      1.99944     4.47746    0.02466     6.50155
      H   19    0.21036      0.00000     0.78726    0.00238     0.78964
      C   20   -0.60123      1.99943     4.58965    0.01215     6.60123
      H   21    0.19975      0.00000     0.79832    0.00193     0.80025
      H   22    0.20003      0.00000     0.79851    0.00146     0.79997
      H   23    0.19770      0.00000     0.80079    0.00151     0.80230
      C   24   -0.59001      1.99943     4.57908    0.01151     6.59001
      H   25    0.19675      0.00000     0.80175    0.00150     0.80325
      H   26    0.21354      0.00000     0.78520    0.00126     0.78646
      H   27    0.19826      0.00000     0.79999    0.00175     0.80174
      C   28   -0.50375      1.99944     4.47805    0.02626     6.50375
      H   29    0.21620      0.00000     0.78223    0.00157     0.78380
      C   30   -0.59071      1.99942     4.57954    0.01175     6.59071
      H   31    0.20066      0.00000     0.79776    0.00158     0.79934
      H   32    0.21443      0.00000     0.78421    0.00136     0.78557
      H   33    0.19753      0.00000     0.80070    0.00177     0.80247
      C   34   -0.60145      1.99943     4.58973    0.01229     6.60145
      H   35    0.19321      0.00000     0.80504    0.00176     0.80679
      H   36    0.20047      0.00000     0.79810    0.00143     0.79953
      H   37    0.19964      0.00000     0.79844    0.00192     0.80036
      C   38   -0.50952      1.99945     4.48516    0.02492     6.50952
      H   39    0.18945      0.00000     0.80668    0.00387     0.81055
      C   40   -0.59083      1.99943     4.57981    0.01159     6.59083
      H   41    0.20251      0.00000     0.79587    0.00162     0.79749
      H   42    0.19948      0.00000     0.79905    0.00147     0.80052
      H   43    0.20576      0.00000     0.79252    0.00172     0.79424
      C   44   -0.59602      1.99943     4.58478    0.01181     6.59602
      H   45    0.20525      0.00000     0.79285    0.00190     0.79475
      H   46    0.20318      0.00000     0.79543    0.00139     0.79682
      H   47    0.20383      0.00000     0.79451    0.00166     0.79617
 =======================================================================
   * Total *    0.00000     47.98880    97.61858    0.39261   146.00000

 Normal termination of Gaussian 16 at Thu Jan 23 00:06:31 2025.
