 Gaussian 16, Revision B.01,
 Gaussian 16:  ES64L-G16RevB.01 20-Dec-2017

 --------------------------------------------
 # nmr=giao b3lyp/def2TZVP pop=nbo scfcyc=200
 --------------------------------------------

 -------------
 DS-1 SPE NoRh
 -------------
 Symbolic Z-matrix:
 Charge =  0 Multiplicity = 1

                         Standard orientation:
 ---------------------------------------------------------------------
 Center     Atomic      Atomic             Coordinates (Angstroms)
 Number     Number       Type             X           Y           Z
 ---------------------------------------------------------------------
      1          6           0        0.646036    0.149007    0.066561
      2          6           0       -2.319708    0.143339   -0.314356
      3          6           0       -1.629221    1.146419    0.275048
      4          6           0       -0.161001    1.209397    0.224142
      5          1           0        0.270150    2.202213    0.338954
      6         15           0       -0.008324   -1.490258   -0.398181
      7         15           0        2.415711   -0.038279   -0.350777
      8          6           0       -0.434073   -2.402344    1.154950
      9          1           0       -0.890043   -3.359047    0.897727
     10          1           0        0.477648   -2.596509    1.717218
     11          1           0       -1.123273   -1.823042    1.770214
     12          6           0        3.362061   -0.137256    1.235225
     13          1           0        4.421502   -0.279398    1.017019
     14          1           0        3.235562    0.778862    1.813825
     15          1           0        3.011660   -0.984972    1.821930
     16          6           0        3.019213    1.528560   -1.115347
     17          1           0        2.912830    2.366433   -0.425364
     18          1           0        4.074583    1.420461   -1.370653
     19          1           0        2.456510    1.730967   -2.025264
     20          6           0       -2.255093    2.316792    0.996568
     21          1           0       -1.901495    2.364286    2.030975
     22          1           0       -1.964743    3.257451    0.518879
     23          1           0       -3.339200    2.280090    1.023242
     24          6           0       -3.817927    0.031211   -0.337709
     25          1           0       -4.142638   -0.853796    0.219291
     26          1           0       -4.330482    0.893048    0.079646
     27          1           0       -4.169680   -0.105673   -1.365556
     28          6           0       -1.637100   -0.967036   -1.105320
     29          1           0       -1.458861   -0.632856   -2.132650
     30          1           0       -2.289959   -1.838990   -1.173637
 ---------------------------------------------------------------------

 SCF Done:  E(RB3LYP) =  -1074.77766565     A.U. after   15 cycles

      1  C    Isotropic =    44.1425   Anisotropy =   169.2658

      2  C    Isotropic =    44.0376   Anisotropy =   160.3472

      3  C    Isotropic =    49.4375   Anisotropy =   153.3040

      4  C    Isotropic =    35.0419   Anisotropy =   167.4450

      5  H    Isotropic =    25.0609   Anisotropy =     8.4476

      6  P    Isotropic =   321.7710   Anisotropy =   136.1879

      7  P    Isotropic =   303.2074   Anisotropy =   138.8478

      8  C    Isotropic =   175.1834   Anisotropy =    22.2099

      9  H    Isotropic =    31.6419   Anisotropy =    10.3011

     10  H    Isotropic =    30.9675   Anisotropy =     8.0298

     11  H    Isotropic =    30.1668   Anisotropy =     6.8417

     12  C    Isotropic =   167.0646   Anisotropy =    22.8583

     13  H    Isotropic =    31.0569   Anisotropy =     9.8826

     14  H    Isotropic =    30.6211   Anisotropy =     7.9242

     15  H    Isotropic =    30.5295   Anisotropy =     6.5793

     16  C    Isotropic =   171.2532   Anisotropy =    20.7236

     17  H    Isotropic =    30.3794   Anisotropy =     8.0043

     18  H    Isotropic =    31.0654   Anisotropy =     9.7214

     19  H    Isotropic =    30.9343   Anisotropy =     8.0229

     20  C    Isotropic =   164.4091   Anisotropy =    28.3670

     21  H    Isotropic =    30.2327   Anisotropy =     7.6355

     22  H    Isotropic =    30.2634   Anisotropy =     8.2762

     23  H    Isotropic =    29.6253   Anisotropy =     6.0666

     24  C    Isotropic =   158.8239   Anisotropy =    35.9856

     25  H    Isotropic =    30.2938   Anisotropy =     7.4503

     26  H    Isotropic =    29.5188   Anisotropy =     7.0158

     27  H    Isotropic =    30.2541   Anisotropy =     7.6153

     28  C    Isotropic =   149.7703   Anisotropy =    27.1710

     29  H    Isotropic =    29.4616   Anisotropy =     7.4474

     30  H    Isotropic =    30.2844   Anisotropy =     5.3170

 The electronic state is 1-A.
 Alpha  occ. eigenvalues --  -77.03494 -77.03423 -10.18810 -10.18769 -10.18041
 Alpha  occ. eigenvalues --  -10.17190 -10.17186 -10.17102 -10.17010 -10.16398
 Alpha  occ. eigenvalues --  -10.16361 -10.16224  -6.52056  -6.52027  -4.68226
 Alpha  occ. eigenvalues --   -4.68176  -4.68168  -4.68133  -4.67673  -4.67664
 Alpha  occ. eigenvalues --   -0.84422  -0.77790  -0.75900  -0.73541  -0.71213
 Alpha  occ. eigenvalues --   -0.68966  -0.68924  -0.65505  -0.60994  -0.54877
 Alpha  occ. eigenvalues --   -0.52768  -0.47300  -0.46465  -0.45141  -0.44458
 Alpha  occ. eigenvalues --   -0.42402  -0.42334  -0.41807  -0.41346  -0.41027
 Alpha  occ. eigenvalues --   -0.40678  -0.40076  -0.39866  -0.38507  -0.38301
 Alpha  occ. eigenvalues --   -0.37641  -0.35712  -0.34812  -0.33494  -0.30038
 Alpha  occ. eigenvalues --   -0.28662  -0.23540  -0.21465  -0.18329
 Alpha virt. eigenvalues --   -0.05491   0.02079   0.02837   0.03564   0.04914
 Alpha virt. eigenvalues --    0.05208   0.06472   0.06774   0.07657   0.07916
 Alpha virt. eigenvalues --    0.08378   0.09018   0.09106   0.09886   0.10178

 Mulliken charges:
               1
     1  C   -0.037097
     2  C    0.024110
     3  C    0.130789
     4  C   -0.310278
     5  H    0.107004
     6  P    0.159831
     7  P    0.151432
     8  C   -0.422104
     9  H    0.121169
    10  H    0.123176
    11  H    0.122812
    12  C   -0.403496
    13  H    0.122502
    14  H    0.106365
    15  H    0.120614
    16  C   -0.413958
    17  H    0.103846
    18  H    0.125451
    19  H    0.126377
    20  C   -0.355634
    21  H    0.119900
    22  H    0.114498
    23  H    0.102050
    24  C   -0.362325
    25  H    0.122022
    26  H    0.098525
    27  H    0.120784
    28  C   -0.252700
    29  H    0.118995
    30  H    0.115341
 Sum of Mulliken charges =  -0.00000

 Dipole moment (field-independent basis, Debye):
    X=             -1.6681    Y=              1.4648    Z=              1.1219  Tot=              2.4873
 Quadrupole moment (field-independent basis, Debye-Ang):
   XX=            -85.8067   YY=            -90.2921   ZZ=            -92.1247
   XY=              3.8837   XZ=              3.0918   YZ=             -2.7179

 Summary of Natural Population Analysis:

                                       Natural Population
                Natural  -----------------------------------------------
    Atom  No    Charge         Core      Valence    Rydberg      Total
 -----------------------------------------------------------------------
      C    1   -0.64640      1.99901     4.60821    0.03917     6.64640
      C    2    0.05783      1.99900     3.92297    0.02020     5.94217
      C    3   -0.08007      1.99891     4.06019    0.02097     6.08007
      C    4   -0.15589      1.99894     4.13267    0.02428     6.15589
      H    5    0.19456      0.00000     0.80201    0.00342     0.80544
      P    6    0.82170      9.99849     4.14120    0.03861    14.17830
      P    7    0.80260      9.99851     4.15629    0.04260    14.19740
      C    8   -0.91670      1.99944     4.89819    0.01907     6.91670
      H    9    0.22580      0.00000     0.77319    0.00101     0.77420
      H   10    0.22732      0.00000     0.77164    0.00104     0.77268
      H   11    0.21218      0.00000     0.78505    0.00277     0.78782
      C   12   -0.90665      1.99945     4.88851    0.01870     6.90665
      H   13    0.22620      0.00000     0.77288    0.00092     0.77380
      H   14    0.20508      0.00000     0.79172    0.00319     0.79492
      H   15    0.22554      0.00000     0.77347    0.00099     0.77446
      C   16   -0.91676      1.99946     4.89875    0.01855     6.91676
      H   17    0.20193      0.00000     0.79488    0.00319     0.79807
      H   18    0.22927      0.00000     0.76989    0.00085     0.77073
      H   19    0.22900      0.00000     0.77013    0.00087     0.77100
      C   20   -0.60577      1.99940     4.59446    0.01191     6.60577
      H   21    0.21035      0.00000     0.78824    0.00141     0.78965
      H   22    0.20876      0.00000     0.78985    0.00139     0.79124
      H   23    0.20791      0.00000     0.79085    0.00124     0.79209
      C   24   -0.62159      1.99939     4.60946    0.01274     6.62159
      H   25    0.21253      0.00000     0.78578    0.00168     0.78747
      H   26    0.20632      0.00000     0.79221    0.00147     0.79368
      H   27    0.21197      0.00000     0.78645    0.00158     0.78803
      C   28   -0.73233      1.99934     4.70921    0.02378     6.73233
      H   29    0.23708      0.00000     0.76138    0.00154     0.76292
      H   30    0.22822      0.00000     0.77027    0.00151     0.77178
 =======================================================================
   * Total *   -0.00000     39.98933    67.69003    0.32063   108.00000

 Normal termination of Gaussian 16 at Wed Jan 22 23:58:53 2025.
