 Gaussian 16, Revision B.01,
 Gaussian 16:  ES64L-G16RevB.01 20-Dec-2017

 --------------------------------------------
 # nmr=giao b3lyp/def2TZVP pop=nbo scfcyc=200
 --------------------------------------------

 --------------
 DS-11 SPE NoRh
 --------------
 Symbolic Z-matrix:
 Charge =  0 Multiplicity = 1

                         Standard orientation:
 ---------------------------------------------------------------------
 Center     Atomic      Atomic             Coordinates (Angstroms)
 Number     Number       Type             X           Y           Z
 ---------------------------------------------------------------------
      1         15           0        1.429267   -0.324352   -0.735127
      2         15           0       -1.389772   -0.381015   -0.756167
      3          6           0       -1.703521    2.011862    0.744626
      4          6           0       -2.273440    3.255683    0.997376
      5          6           0       -3.258307    3.787047    0.164225
      6          6           0       -3.661363    3.027044   -0.939836
      7          6           0       -3.093456    1.790553   -1.205165
      8          6           0       -2.109180    1.263600   -0.360604
      9          1           0       -0.944992    1.630361    1.414944
     10          1           0       -1.946776    3.818991    1.863891
     11          1           0       -4.430608    3.410651   -1.600218
     12          1           0       -3.438975    1.227214   -2.064231
     13          6           0       -3.803048   -1.296586    0.434363
     14          6           0       -4.740427   -2.273593    0.747617
     15          6           0       -4.603868   -3.585355    0.288786
     16          6           0       -3.487182   -3.893044   -0.495668
     17          6           0       -2.548297   -2.924119   -0.818165
     18          6           0       -2.693758   -1.612026   -0.355015
     19          1           0       -3.940558   -0.288570    0.804277
     20          1           0       -5.593166   -2.008794    1.361363
     21          1           0       -3.355725   -4.904958   -0.861321
     22          1           0       -1.693534   -3.189472   -1.430013
     23          6           0        2.567898   -2.834010   -0.208338
     24          6           0        3.609799   -3.719283    0.021835
     25          6           0        4.931537   -3.272094    0.129399
     26          6           0        5.171298   -1.904472   -0.007654
     27          6           0        4.132999   -1.006454   -0.231613
     28          6           0        2.815335   -1.460559   -0.324460
     29          1           0        1.557284   -3.216219   -0.293447
     30          1           0        3.395353   -4.777495    0.116991
     31          1           0        6.185249   -1.530667    0.060895
     32          1           0        4.357208    0.047029   -0.330131
     33          6           0        2.059604    2.338020   -1.360099
     34          6           0        2.494885    3.629215   -1.080700
     35          6           0        2.895589    3.993572    0.205313
     36          6           0        2.838376    3.022412    1.211501
     37          6           0        2.405380    1.732611    0.942724
     38          6           0        2.015703    1.374147   -0.352270
     39          1           0        1.739190    2.084633   -2.362948
     40          1           0        2.519150    4.364857   -1.876059
     41          1           0        3.136157    3.282214    2.221390
     42          1           0        2.374628    1.006684    1.745736
     43          6           0        0.019797   -0.665010    0.413328
     44          6           0        0.006697   -1.250313    1.606616
     45          1           0       -0.923916   -1.514185    2.099177
     46          1           0        0.923172   -1.516722    2.123175
     47          6           0       -5.639725   -4.630141    0.605004
     48          1           0       -6.394402   -4.676639   -0.186221
     49          1           0       -5.194451   -5.621988    0.687549
     50          1           0       -6.158765   -4.408858    1.537522
     51          6           0       -3.859040    5.140974    0.427233
     52          1           0       -3.436255    5.890808   -0.247101
     53          1           0       -4.938724    5.134875    0.267532
     54          1           0       -3.668580    5.470455    1.448618
     55          6           0        3.395837    5.381711    0.502829
     56          1           0        3.061385    5.723573    1.483562
     57          1           0        4.488706    5.404507    0.505748
     58          1           0        3.054128    6.097936   -0.244207
     59          6           0        6.053682   -4.236390    0.406903
     60          1           0        7.012650   -3.839031    0.073926
     61          1           0        6.134965   -4.436786    1.479306
     62          1           0        5.888954   -5.193901   -0.090832
 ---------------------------------------------------------------------

 SCF Done:  E(RB3LYP) =  -1844.41904114     A.U. after   15 cycles

      1  P    Isotropic =   236.5961   Anisotropy =    95.1265

      2  P    Isotropic =   235.1766   Anisotropy =    82.5658

      3  C    Isotropic =    45.0987   Anisotropy =   187.6310

      4  C    Isotropic =    49.3787   Anisotropy =   161.3675

      5  C    Isotropic =    38.6816   Anisotropy =   200.2874

      6  C    Isotropic =    49.3565   Anisotropy =   166.8757

      7  C    Isotropic =    45.6224   Anisotropy =   182.9552

      8  C    Isotropic =    42.3558   Anisotropy =   194.1402

      9  H    Isotropic =    24.8281   Anisotropy =     8.4239

     10  H    Isotropic =    24.9685   Anisotropy =     8.1492

     11  H    Isotropic =    24.5604   Anisotropy =     6.6179

     12  H    Isotropic =    24.4047   Anisotropy =     9.4564

     13  C    Isotropic =    44.6952   Anisotropy =   184.9887

     14  C    Isotropic =    49.4511   Anisotropy =   162.0961

     15  C    Isotropic =    37.7884   Anisotropy =   200.7445

     16  C    Isotropic =    49.1824   Anisotropy =   163.5378

     17  C    Isotropic =    43.8051   Anisotropy =   178.5236

     18  C    Isotropic =    37.1494   Anisotropy =   195.7433

     19  H    Isotropic =    25.0350   Anisotropy =    13.1764

     20  H    Isotropic =    24.7565   Anisotropy =     8.5401

     21  H    Isotropic =    24.4100   Anisotropy =     7.3440

     22  H    Isotropic =    23.8811   Anisotropy =     9.4230

     23  C    Isotropic =    47.6162   Anisotropy =   181.1259

     24  C    Isotropic =    49.8748   Anisotropy =   163.7643

     25  C    Isotropic =    40.7227   Anisotropy =   194.8075

     26  C    Isotropic =    49.2937   Anisotropy =   161.3384

     27  C    Isotropic =    49.4305   Anisotropy =   181.0443

     28  C    Isotropic =    35.2200   Anisotropy =   189.7027

     29  H    Isotropic =    24.1882   Anisotropy =    10.3670

     30  H    Isotropic =    24.5325   Anisotropy =     7.8809

     31  H    Isotropic =    24.7707   Anisotropy =     8.1709

     32  H    Isotropic =    25.1925   Anisotropy =    13.1322

     33  C    Isotropic =    38.8382   Anisotropy =   181.1336

     34  C    Isotropic =    49.4948   Anisotropy =   162.2514

     35  C    Isotropic =    35.1439   Anisotropy =   206.3446

     36  C    Isotropic =    48.3326   Anisotropy =   167.7763

     37  C    Isotropic =    40.7251   Anisotropy =   188.5781

     38  C    Isotropic =    42.4460   Anisotropy =   196.5798

     39  H    Isotropic =    24.0652   Anisotropy =     7.2203

     40  H    Isotropic =    24.6496   Anisotropy =     6.3931

     41  H    Isotropic =    24.3659   Anisotropy =     7.4144

     42  H    Isotropic =    23.9500   Anisotropy =    10.1222

     43  C    Isotropic =    16.3852   Anisotropy =   188.9573

     44  C    Isotropic =    44.5205   Anisotropy =   180.7134

     45  H    Isotropic =    25.9708   Anisotropy =     5.8504

     46  H    Isotropic =    25.2107   Anisotropy =     4.6619

     47  C    Isotropic =   160.4830   Anisotropy =    41.7015

     48  H    Isotropic =    29.3278   Anisotropy =     8.8249

     49  H    Isotropic =    29.6186   Anisotropy =     7.6453

     50  H    Isotropic =    29.7512   Anisotropy =     7.3770

     51  C    Isotropic =   160.6606   Anisotropy =    41.4624

     52  H    Isotropic =    29.4607   Anisotropy =     8.1690

     53  H    Isotropic =    29.5705   Anisotropy =     8.5035

     54  H    Isotropic =    29.9403   Anisotropy =     6.8183

     55  C    Isotropic =   160.3337   Anisotropy =    41.4639

     56  H    Isotropic =    29.5294   Anisotropy =     7.1785

     57  H    Isotropic =    29.3012   Anisotropy =     9.1286

     58  H    Isotropic =    29.7538   Anisotropy =     7.1276

     59  C    Isotropic =   160.5002   Anisotropy =    41.9715

     60  H    Isotropic =    29.7874   Anisotropy =     7.5140

     61  H    Isotropic =    29.3763   Anisotropy =     8.5034

     62  H    Isotropic =    29.5869   Anisotropy =     7.8124

 The electronic state is 1-A.
 Alpha  occ. eigenvalues --  -77.04424 -77.04388 -10.18956 -10.18803 -10.18404
 Alpha  occ. eigenvalues --  -10.18385 -10.18283 -10.17984 -10.17877 -10.17868
 Alpha  occ. eigenvalues --  -10.17830 -10.17798 -10.17665 -10.17640 -10.17470
 Alpha  occ. eigenvalues --  -10.17470 -10.17435 -10.17409 -10.17271 -10.17225
 Alpha  occ. eigenvalues --  -10.17189 -10.17146 -10.17133 -10.17087 -10.17014
 Alpha  occ. eigenvalues --  -10.16981 -10.16924 -10.16923 -10.16887 -10.16858
 Alpha  occ. eigenvalues --  -10.16744 -10.16633  -6.52990  -6.52960  -4.69152
 Alpha  occ. eigenvalues --   -4.69118  -4.69100  -4.69075  -4.68635  -4.68601
 Alpha  occ. eigenvalues --   -0.86400  -0.86108  -0.85729  -0.85578  -0.79630
 Alpha  occ. eigenvalues --   -0.78260  -0.77241  -0.77122  -0.76683  -0.75010
 Alpha  occ. eigenvalues --   -0.74617  -0.74549  -0.74317  -0.70220  -0.70114
 Alpha  occ. eigenvalues --   -0.68393  -0.68377  -0.64214  -0.61466  -0.61117
 Alpha  occ. eigenvalues --   -0.60823  -0.60669  -0.60499  -0.58345  -0.58204
 Alpha  occ. eigenvalues --   -0.57994  -0.55894  -0.52815  -0.50282  -0.50031
 Alpha  occ. eigenvalues --   -0.47793  -0.47637  -0.46963  -0.46649  -0.46604
 Alpha  occ. eigenvalues --   -0.46397  -0.45415  -0.45159  -0.44981  -0.44891
 Alpha  occ. eigenvalues --   -0.43492  -0.42829  -0.42440  -0.42434  -0.42394
 Alpha  occ. eigenvalues --   -0.42114  -0.42067  -0.42035  -0.41851  -0.41540
 Alpha  occ. eigenvalues --   -0.39814  -0.39352  -0.39245  -0.38926  -0.38854
 Alpha  occ. eigenvalues --   -0.38587  -0.37062  -0.36315  -0.36197  -0.35980
 Alpha  occ. eigenvalues --   -0.35782  -0.35289  -0.34470  -0.34086  -0.34069
 Alpha  occ. eigenvalues --   -0.33857  -0.33179  -0.32161  -0.30379  -0.29134
 Alpha  occ. eigenvalues --   -0.26788  -0.26109  -0.25853  -0.25662  -0.25427
 Alpha  occ. eigenvalues --   -0.25409  -0.25248  -0.24318  -0.21314  -0.18231
 Alpha virt. eigenvalues --   -0.05176  -0.03060  -0.02248  -0.01932  -0.01887
 Alpha virt. eigenvalues --   -0.01197  -0.00795  -0.00625  -0.00487   0.03604
 Alpha virt. eigenvalues --    0.03990   0.04422   0.04641   0.05153   0.05302

 Mulliken charges:
               1
     1  P    0.152955
     2  P    0.123452
     3  C   -0.119677
     4  C   -0.200965
     5  C    0.177263
     6  C   -0.172778
     7  C   -0.163370
     8  C    0.032141
     9  H    0.133960
    10  H    0.095244
    11  H    0.100105
    12  H    0.105804
    13  C   -0.132848
    14  C   -0.198498
    15  C    0.176545
    16  C   -0.178398
    17  C   -0.152732
    18  C   -0.000309
    19  H    0.138481
    20  H    0.097800
    21  H    0.099849
    22  H    0.110201
    23  C   -0.192899
    24  C   -0.176547
    25  C    0.169668
    26  C   -0.196300
    27  C   -0.159188
    28  C    0.039141
    29  H    0.121426
    30  H    0.097188
    31  H    0.096587
    32  H    0.135560
    33  C   -0.128981
    34  C   -0.169898
    35  C    0.171166
    36  C   -0.155051
    37  C   -0.185460
    38  C    0.032859
    39  H    0.114090
    40  H    0.101693
    41  H    0.100196
    42  H    0.109562
    43  C   -0.149974
    44  C   -0.246420
    45  H    0.139747
    46  H    0.137111
    47  C   -0.360521
    48  H    0.123039
    49  H    0.116105
    50  H    0.115691
    51  C   -0.362409
    52  H    0.121942
    53  H    0.117041
    54  H    0.113672
    55  C   -0.360835
    56  H    0.117851
    57  H    0.123647
    58  H    0.116964
    59  C   -0.361865
    60  H    0.114849
    61  H    0.118965
    62  H    0.116358
 Sum of Mulliken charges =  -0.00000

 Dipole moment (field-independent basis, Debye):
    X=             -0.1840    Y=              1.0296    Z=              2.3911  Tot=              2.6098
 Quadrupole moment (field-independent basis, Debye-Ang):
   XX=           -189.4708   YY=           -180.1239   ZZ=           -206.0099
   XY=              3.3003   XZ=              2.2739   YZ=             -1.2118

 Summary of Natural Population Analysis:

                                       Natural Population
                Natural  -----------------------------------------------
    Atom  No    Charge         Core      Valence    Rydberg      Total
 -----------------------------------------------------------------------
      P    1    0.83058      9.99780     4.13745    0.03417    14.16942
      P    2    0.83309      9.99781     4.13517    0.03393    14.16691
      C    3   -0.19668      1.99908     4.17740    0.02020     6.19668
      C    4   -0.20027      1.99909     4.18346    0.01772     6.20027
      C    5   -0.01904      1.99912     4.00030    0.01962     6.01904
      C    6   -0.20102      1.99909     4.18456    0.01737     6.20102
      C    7   -0.18924      1.99909     4.17018    0.01997     6.18924
      C    8   -0.33412      1.99898     4.30322    0.03192     6.33412
      H    9    0.21601      0.00000     0.78191    0.00207     0.78399
      H   10    0.20247      0.00000     0.79603    0.00150     0.79753
      H   11    0.20404      0.00000     0.79451    0.00144     0.79596
      H   12    0.21140      0.00000     0.78679    0.00181     0.78860
      C   13   -0.19338      1.99909     4.17430    0.01999     6.19338
      C   14   -0.20378      1.99909     4.18684    0.01785     6.20378
      C   15   -0.01558      1.99912     3.99679    0.01966     6.01558
      C   16   -0.20296      1.99909     4.18632    0.01755     6.20296
      C   17   -0.18677      1.99909     4.16770    0.01998     6.18677
      C   18   -0.33722      1.99899     4.30575    0.03248     6.33722
      H   19    0.21504      0.00000     0.78282    0.00214     0.78496
      H   20    0.20246      0.00000     0.79602    0.00151     0.79754
      H   21    0.20395      0.00000     0.79460    0.00145     0.79605
      H   22    0.21038      0.00000     0.78779    0.00182     0.78962
      C   23   -0.19950      1.99909     4.18038    0.02002     6.19950
      C   24   -0.19816      1.99909     4.18160    0.01747     6.19816
      C   25   -0.02649      1.99912     4.00760    0.01977     6.02649
      C   26   -0.19812      1.99909     4.18139    0.01763     6.19812
      C   27   -0.20217      1.99909     4.18339    0.01969     6.20217
      C   28   -0.33404      1.99899     4.30299    0.03206     6.33404
      H   29    0.20823      0.00000     0.78999    0.00178     0.79177
      H   30    0.20271      0.00000     0.79585    0.00145     0.79729
      H   31    0.20206      0.00000     0.79647    0.00147     0.79794
      H   32    0.21383      0.00000     0.78435    0.00182     0.78617
      C   33   -0.17381      1.99910     4.15449    0.02022     6.17381
      C   34   -0.20685      1.99909     4.18962    0.01814     6.20685
      C   35   -0.00449      1.99912     3.98657    0.01880     6.00449
      C   36   -0.20797      1.99908     4.19104    0.01785     6.20797
      C   37   -0.18135      1.99908     4.16297    0.01930     6.18135
      C   38   -0.34165      1.99898     4.30956    0.03311     6.34165
      H   39    0.22003      0.00000     0.77844    0.00154     0.77997
      H   40    0.20551      0.00000     0.79304    0.00145     0.79449
      H   41    0.20102      0.00000     0.79730    0.00167     0.79898
      H   42    0.20888      0.00000     0.78862    0.00250     0.79112
      C   43   -0.61445      1.99908     4.57259    0.04278     6.61445
      C   44   -0.32944      1.99901     4.31034    0.02009     6.32944
      H   45    0.19933      0.00000     0.79756    0.00311     0.80067
      H   46    0.19914      0.00000     0.79827    0.00260     0.80086
      C   47   -0.61015      1.99941     4.59890    0.01183     6.61015
      H   48    0.21557      0.00000     0.78312    0.00131     0.78443
      H   49    0.21095      0.00000     0.78790    0.00115     0.78905
      H   50    0.21079      0.00000     0.78807    0.00114     0.78921
      C   51   -0.60960      1.99941     4.59837    0.01183     6.60960
      H   52    0.21486      0.00000     0.78383    0.00131     0.78514
      H   53    0.21170      0.00000     0.78711    0.00119     0.78830
      H   54    0.20949      0.00000     0.78938    0.00112     0.79051
      C   55   -0.61125      1.99941     4.60002    0.01182     6.61125
      H   56    0.21257      0.00000     0.78631    0.00112     0.78743
      H   57    0.21671      0.00000     0.78203    0.00126     0.78329
      H   58    0.21163      0.00000     0.78727    0.00110     0.78837
      C   59   -0.60851      1.99941     4.59733    0.01177     6.60851
      H   60    0.20994      0.00000     0.78894    0.00112     0.79006
      H   61    0.21277      0.00000     0.78589    0.00134     0.78723
      H   62    0.21089      0.00000     0.78796    0.00115     0.78911
 =======================================================================
   * Total *    0.00000     79.96923   159.29675    0.73402   240.00000

 Normal termination of Gaussian 16 at Thu Jan 23 01:31:38 2025.
