 Gaussian 16, Revision B.01,
 Gaussian 16:  ES64L-G16RevB.01 20-Dec-2017

 --------------------------------------------
 # nmr=giao b3lyp/def2TZVP pop=nbo scfcyc=200
 --------------------------------------------

 --------------
 DS-18 SPE NoRh
 --------------
 Symbolic Z-matrix:
 Charge =  0 Multiplicity = 1

                         Standard orientation:
 ---------------------------------------------------------------------
 Center     Atomic      Atomic             Coordinates (Angstroms)
 Number     Number       Type             X           Y           Z
 ---------------------------------------------------------------------
      1         15           0       -1.308132    0.108022   -1.200676
      2         15           0        1.481938   -0.083274   -1.197304
      3          7           0        0.437337    0.209151    2.075331
      4          7           0       -0.500053   -1.952941    1.807061
      5          6           0        0.020296   -0.765031    1.361312
      6          6           0        0.046608   -0.796072   -0.159147
      7          6           0       -0.087815   -2.322336   -0.465409
      8          1           0       -0.608749   -2.537616   -1.393922
      9          1           0        0.904759   -2.761868   -0.546220
     10          6           0       -0.805225   -2.908335    0.758919
     11          1           0       -1.885296   -2.999905    0.605726
     12          1           0       -0.416915   -3.899506    1.009180
     13          6           0       -0.832293   -2.175426    3.208142
     14          1           0       -0.097425   -2.849452    3.662556
     15          1           0       -1.805893   -2.671207    3.265232
     16          6           0       -0.863825   -0.832939    3.938048
     17          1           0       -1.785849   -0.302835    3.687116
     18          1           0       -0.868859   -0.999625    5.016581
     19          6           0        0.334059    0.027947    3.525580
     20          1           0        0.269480    1.014078    3.987303
     21          1           0        1.263546   -0.425179    3.894747
     22          6           0       -2.843153   -0.918727   -1.115689
     23          6           0       -3.102345   -1.881984   -2.094824
     24          1           0       -2.414333   -2.011051   -2.921165
     25          6           0       -4.238885   -2.680217   -2.016290
     26          1           0       -4.431830   -3.420479   -2.783080
     27          6           0       -5.129692   -2.520977   -0.959790
     28          1           0       -6.017395   -3.137043   -0.901125
     29          6           0       -4.880357   -1.561500    0.018106
     30          1           0       -5.574509   -1.430568    0.839171
     31          6           0       -3.745208   -0.762670   -0.057651
     32          1           0       -3.570767   -0.010903    0.700998
     33          6           0       -1.858282    1.730159   -0.513332
     34          6           0       -1.201888    2.427684    0.502932
     35          1           0       -0.360113    1.984546    1.016556
     36          6           0       -1.660021    3.687383    0.882645
     37          1           0       -1.150087    4.216417    1.678243
     38          6           0       -2.757154    4.263049    0.256213
     39          1           0       -3.107224    5.242266    0.559237
     40          6           0       -3.412096    3.572833   -0.761620
     41          1           0       -4.271820    4.010610   -1.252461
     42          6           0       -2.964558    2.317025   -1.146395
     43          1           0       -3.496701    1.786991   -1.927685
     44          6           0        2.080653    1.550501   -0.578811
     45          6           0        2.903063    1.665559    0.546698
     46          1           0        3.162723    0.793810    1.127827
     47          6           0        3.388992    2.908308    0.929393
     48          1           0        4.024941    2.987433    1.802928
     49          6           0        3.065419    4.047563    0.196311
     50          1           0        3.451983    5.013198    0.497521
     51          6           0        2.253317    3.940032   -0.926020
     52          1           0        2.001278    4.821179   -1.502839
     53          6           0        1.767047    2.696187   -1.314772
     54          1           0        1.137790    2.609419   -2.191593
     55          6           0        2.947072   -1.183014   -0.966982
     56          6           0        3.861032   -1.299859   -2.017428
     57          1           0        3.689452   -0.781573   -2.951508
     58          6           0        5.014697   -2.063017   -1.868620
     59          1           0        5.716154   -2.140282   -2.690393
     60          6           0        5.264586   -2.723213   -0.671720
     61          1           0        6.160808   -3.320409   -0.556457
     62          6           0        4.362152   -2.609999    0.382037
     63          1           0        4.556614   -3.114894    1.320003
     64          6           0        3.211560   -1.841685    0.239058
     65          1           0        2.529623   -1.753603    1.075113
 ---------------------------------------------------------------------

 SCF Done:  E(RB3LYP) =  -1992.05769169     A.U. after   15 cycles

      1  P    Isotropic =   213.1127   Anisotropy =    92.1291

      2  P    Isotropic =   227.0231   Anisotropy =   123.4007

      3  N    Isotropic =    26.0285   Anisotropy =   331.1888

      4  N    Isotropic =   147.6362   Anisotropy =   101.5918

      5  C    Isotropic =    18.2721   Anisotropy =   106.8328

      6  C    Isotropic =   119.6803   Anisotropy =    11.9212

      7  C    Isotropic =   151.1995   Anisotropy =    22.9520

      8  H    Isotropic =    29.8434   Anisotropy =     8.7293

      9  H    Isotropic =    29.3260   Anisotropy =    10.2680

     10  C    Isotropic =   133.2804   Anisotropy =    49.0582

     11  H    Isotropic =    30.4495   Anisotropy =     9.8457

     12  H    Isotropic =    29.3376   Anisotropy =     8.4266

     13  C    Isotropic =   135.8643   Anisotropy =    34.6956

     14  H    Isotropic =    28.7449   Anisotropy =    10.7646

     15  H    Isotropic =    29.1014   Anisotropy =     7.6680

     16  C    Isotropic =   158.2078   Anisotropy =     9.9309

     17  H    Isotropic =    30.3699   Anisotropy =     6.6123

     18  H    Isotropic =    30.3213   Anisotropy =    10.7211

     19  C    Isotropic =   134.9568   Anisotropy =    30.5484

     20  H    Isotropic =    28.2765   Anisotropy =     6.3655

     21  H    Isotropic =    28.4846   Anisotropy =     8.2333

     22  C    Isotropic =    32.3747   Anisotropy =   207.4307

     23  C    Isotropic =    40.3515   Anisotropy =   181.6000

     24  H    Isotropic =    23.6401   Anisotropy =     9.5669

     25  C    Isotropic =    50.8740   Anisotropy =   180.9906

     26  H    Isotropic =    24.2457   Anisotropy =     5.3493

     27  C    Isotropic =    49.3994   Anisotropy =   187.4953

     28  H    Isotropic =    24.3563   Anisotropy =     3.9072

     29  C    Isotropic =    50.0055   Anisotropy =   182.6631

     30  H    Isotropic =    24.5623   Anisotropy =     6.6470

     31  C    Isotropic =    39.7152   Anisotropy =   191.5409

     32  H    Isotropic =    24.3014   Anisotropy =    11.0798

     33  C    Isotropic =    34.6674   Anisotropy =   181.8429

     34  C    Isotropic =    41.7967   Anisotropy =   207.4421

     35  H    Isotropic =    23.3508   Anisotropy =     6.4044

     36  C    Isotropic =    51.5254   Anisotropy =   183.6294

     37  H    Isotropic =    24.9800   Anisotropy =     7.5825

     38  C    Isotropic =    53.1213   Anisotropy =   180.9654

     39  H    Isotropic =    24.7636   Anisotropy =     4.1515

     40  C    Isotropic =    52.0832   Anisotropy =   180.2727

     41  H    Isotropic =    24.6513   Anisotropy =     5.2035

     42  C    Isotropic =    46.9242   Anisotropy =   183.4033

     43  H    Isotropic =    24.7725   Anisotropy =    11.7383

     44  C    Isotropic =    38.9890   Anisotropy =   194.5493

     45  C    Isotropic =    35.9811   Anisotropy =   202.5133

     46  H    Isotropic =    23.9404   Anisotropy =    10.7888

     47  C    Isotropic =    52.8309   Anisotropy =   178.5143

     48  H    Isotropic =    24.5802   Anisotropy =     6.4347

     49  C    Isotropic =    49.5246   Anisotropy =   187.4160

     50  H    Isotropic =    24.4953   Anisotropy =     3.6414

     51  C    Isotropic =    52.0862   Anisotropy =   181.5139

     52  H    Isotropic =    24.7495   Anisotropy =     5.1004

     53  C    Isotropic =    39.3833   Anisotropy =   183.8489

     54  H    Isotropic =    24.0552   Anisotropy =     7.8833

     55  C    Isotropic =    33.5968   Anisotropy =   199.8860

     56  C    Isotropic =    43.3004   Anisotropy =   182.9070

     57  H    Isotropic =    24.2155   Anisotropy =    10.2386

     58  C    Isotropic =    49.0023   Anisotropy =   184.1191

     59  H    Isotropic =    24.3506   Anisotropy =     5.3021

     60  C    Isotropic =    50.8738   Anisotropy =   184.7136

     61  H    Isotropic =    24.4269   Anisotropy =     4.2346

     62  C    Isotropic =    50.8147   Anisotropy =   181.3645

     63  H    Isotropic =    24.3579   Anisotropy =     7.3045

     64  C    Isotropic =    42.2892   Anisotropy =   182.3310

     65  H    Isotropic =    23.8988   Anisotropy =    10.9448

 The electronic state is 1-A.
 Alpha  occ. eigenvalues --  -77.05190 -77.04396 -14.33825 -14.27221 -10.23624
 Alpha  occ. eigenvalues --  -10.21432 -10.21130 -10.20848 -10.19008 -10.18592
 Alpha  occ. eigenvalues --  -10.18567 -10.18393 -10.18366 -10.18254 -10.18139
 Alpha  occ. eigenvalues --  -10.18065 -10.17959 -10.17809 -10.17652 -10.17621
 Alpha  occ. eigenvalues --  -10.17616 -10.17571 -10.17561 -10.17510 -10.17482
 Alpha  occ. eigenvalues --  -10.17011 -10.16937 -10.16898 -10.16742 -10.16695
 Alpha  occ. eigenvalues --  -10.16655 -10.16597 -10.16574 -10.16387 -10.15855
 Alpha  occ. eigenvalues --   -6.53687  -6.52913  -4.69852  -4.69789  -4.69333
 Alpha  occ. eigenvalues --   -4.69091  -4.69006  -4.68551  -0.98334  -0.88446
 Alpha  occ. eigenvalues --   -0.86520  -0.85879  -0.84983  -0.84831  -0.82216
 Alpha  occ. eigenvalues --   -0.77167  -0.76182  -0.75607  -0.75375  -0.74894
 Alpha  occ. eigenvalues --   -0.74221  -0.74015  -0.73883  -0.73805  -0.72236
 Alpha  occ. eigenvalues --   -0.67124  -0.64833  -0.63684  -0.62120  -0.61265
 Alpha  occ. eigenvalues --   -0.60733  -0.60508  -0.59820  -0.59628  -0.59488
 Alpha  occ. eigenvalues --   -0.59170  -0.55987  -0.55599  -0.52667  -0.51793
 Alpha  occ. eigenvalues --   -0.51565  -0.50550  -0.50398  -0.49142  -0.48492
 Alpha  occ. eigenvalues --   -0.46467  -0.46358  -0.45982  -0.45672  -0.45452
 Alpha  occ. eigenvalues --   -0.45167  -0.44651  -0.44523  -0.44306  -0.44064
 Alpha  occ. eigenvalues --   -0.43083  -0.42948  -0.42434  -0.42374  -0.41614
 Alpha  occ. eigenvalues --   -0.41580  -0.41061  -0.40628  -0.39753  -0.39295
 Alpha  occ. eigenvalues --   -0.38247  -0.38018  -0.37809  -0.37611  -0.37008
 Alpha  occ. eigenvalues --   -0.36762  -0.36288  -0.36042  -0.35345  -0.35061
 Alpha  occ. eigenvalues --   -0.34961  -0.34817  -0.33911  -0.33704  -0.33583
 Alpha  occ. eigenvalues --   -0.31938  -0.31472  -0.28841  -0.26954  -0.26798
 Alpha  occ. eigenvalues --   -0.26498  -0.26142  -0.25828  -0.25549  -0.25244
 Alpha  occ. eigenvalues --   -0.24444  -0.24014  -0.21655  -0.21619  -0.18547
 Alpha virt. eigenvalues --   -0.03691  -0.03228  -0.02441  -0.01999  -0.01540
 Alpha virt. eigenvalues --   -0.01145  -0.00539   0.00249   0.01152   0.02176
 Alpha virt. eigenvalues --    0.03187   0.04028   0.04879   0.05003   0.05724

 Mulliken charges:
               1
     1  P    0.088249
     2  P    0.050173
     3  N   -0.344421
     4  N   -0.045441
     5  C   -0.141657
     6  C    0.335501
     7  C   -0.308688
     8  H    0.112247
     9  H    0.138683
    10  C   -0.121623
    11  H    0.130105
    12  H    0.097294
    13  C   -0.133945
    14  H    0.093528
    15  H    0.101918
    16  C   -0.163521
    17  H    0.093705
    18  H    0.096424
    19  C   -0.087779
    20  H    0.104285
    21  H    0.076289
    22  C   -0.011615
    23  C   -0.168977
    24  H    0.120357
    25  C   -0.113677
    26  H    0.111172
    27  C   -0.094464
    28  H    0.111751
    29  C   -0.120699
    30  H    0.108582
    31  C   -0.153347
    32  H    0.139892
    33  C   -0.018869
    34  C   -0.127304
    35  H    0.225609
    36  C   -0.162432
    37  H    0.102661
    38  C   -0.094422
    39  H    0.102150
    40  C   -0.128760
    41  H    0.103793
    42  C   -0.155632
    43  H    0.115338
    44  C    0.021647
    45  C   -0.077573
    46  H    0.104050
    47  C   -0.130736
    48  H    0.100699
    49  C   -0.090345
    50  H    0.105543
    51  C   -0.119060
    52  H    0.104174
    53  C   -0.132319
    54  H    0.116758
    55  C    0.073301
    56  C   -0.192635
    57  H    0.108563
    58  C   -0.103704
    59  H    0.108343
    60  C   -0.104533
    61  H    0.108112
    62  C   -0.129417
    63  H    0.104128
    64  C   -0.187188
    65  H    0.149758
 Sum of Mulliken charges =  -0.00000

 Dipole moment (field-independent basis, Debye):
    X=             -1.2343    Y=             -2.9296    Z=              2.6560  Tot=              4.1426
 Quadrupole moment (field-independent basis, Debye-Ang):
   XX=           -209.9340   YY=           -206.9979   ZZ=           -212.9197
   XY=              2.0745   XZ=              1.0416   YZ=             -1.2437

 Summary of Natural Population Analysis:

                                       Natural Population
                Natural  -----------------------------------------------
    Atom  No    Charge         Core      Valence    Rydberg      Total
 -----------------------------------------------------------------------
      P    1    0.85063      9.99796     4.11959    0.03182    14.14937
      P    2    0.83203      9.99796     4.13823    0.03178    14.16797
      N    3   -0.52693      1.99928     5.49369    0.03396     7.52693
      N    4   -0.41564      1.99938     5.39218    0.02407     7.41564
      C    5    0.40793      1.99906     3.56194    0.03108     5.59207
      C    6   -0.56482      1.99927     4.52709    0.03846     6.56482
      C    7   -0.40800      1.99935     4.39288    0.01576     6.40800
      H    8    0.22585      0.00000     0.77243    0.00173     0.77415
      H    9    0.22169      0.00000     0.77637    0.00194     0.77831
      C   10   -0.19646      1.99936     4.18235    0.01474     6.19646
      H   11    0.18879      0.00000     0.80800    0.00321     0.81121
      H   12    0.19019      0.00000     0.80795    0.00186     0.80981
      C   13   -0.19382      1.99933     4.18033    0.01416     6.19382
      H   14    0.17608      0.00000     0.82156    0.00237     0.82392
      H   15    0.19482      0.00000     0.80311    0.00206     0.80518
      C   16   -0.41218      1.99942     4.39905    0.01372     6.41218
      H   17    0.20152      0.00000     0.79713    0.00134     0.79848
      H   18    0.20954      0.00000     0.78920    0.00126     0.79046
      C   19   -0.22564      1.99935     4.20863    0.01765     6.22564
      H   20    0.19604      0.00000     0.80245    0.00151     0.80396
      H   21    0.17472      0.00000     0.82297    0.00231     0.82528
      C   22   -0.33265      1.99899     4.30039    0.03327     6.33265
      C   23   -0.20318      1.99909     4.18318    0.02091     6.20318
      H   24    0.21634      0.00000     0.78208    0.00158     0.78366
      C   25   -0.20802      1.99918     4.18924    0.01960     6.20802
      H   26    0.21040      0.00000     0.78833    0.00127     0.78960
      C   27   -0.20051      1.99919     4.18219    0.01913     6.20051
      H   28    0.20907      0.00000     0.78975    0.00118     0.79093
      C   29   -0.20749      1.99919     4.18905    0.01925     6.20749
      H   30    0.20848      0.00000     0.79016    0.00136     0.79152
      C   31   -0.19800      1.99907     4.17800    0.02093     6.19800
      H   32    0.21685      0.00000     0.78043    0.00272     0.78315
      C   33   -0.33787      1.99897     4.30750    0.03140     6.33787
      C   34   -0.21796      1.99907     4.19736    0.02153     6.21796
      H   35    0.25286      0.00000     0.74440    0.00274     0.74714
      C   36   -0.19897      1.99918     4.18058    0.01920     6.19897
      H   37    0.20639      0.00000     0.79231    0.00131     0.79361
      C   38   -0.21215      1.99919     4.19349    0.01947     6.21215
      H   39    0.20492      0.00000     0.79389    0.00119     0.79508
      C   40   -0.20598      1.99918     4.18814    0.01866     6.20598
      H   41    0.20662      0.00000     0.79212    0.00126     0.79338
      C   42   -0.20552      1.99909     4.18695    0.01947     6.20552
      H   43    0.20995      0.00000     0.78835    0.00171     0.79005
      C   44   -0.32860      1.99895     4.29729    0.03237     6.32860
      C   45   -0.16476      1.99907     4.14571    0.01998     6.16476
      H   46    0.21432      0.00000     0.78336    0.00232     0.78568
      C   47   -0.21119      1.99918     4.19335    0.01867     6.21119
      H   48    0.20513      0.00000     0.79352    0.00135     0.79487
      C   49   -0.19476      1.99919     4.17657    0.01900     6.19476
      H   50    0.20569      0.00000     0.79311    0.00119     0.79431
      C   51   -0.21065      1.99918     4.19281    0.01867     6.21065
      H   52    0.20881      0.00000     0.78991    0.00128     0.79119
      C   53   -0.18290      1.99909     4.16413    0.01967     6.18290
      H   54    0.21800      0.00000     0.78025    0.00175     0.78200
      C   55   -0.32603      1.99900     4.29477    0.03226     6.32603
      C   56   -0.19154      1.99910     4.17232    0.02012     6.19154
      H   57    0.21665      0.00000     0.78178    0.00157     0.78335
      C   58   -0.20099      1.99918     4.18259    0.01921     6.20099
      H   59    0.20882      0.00000     0.78993    0.00126     0.79118
      C   60   -0.20526      1.99919     4.18695    0.01913     6.20526
      H   61    0.20760      0.00000     0.79121    0.00119     0.79240
      C   62   -0.20481      1.99919     4.18653    0.01909     6.20481
      H   63    0.20566      0.00000     0.79299    0.00135     0.79434
      C   64   -0.21849      1.99907     4.19842    0.02101     6.21849
      H   65    0.20939      0.00000     0.78804    0.00257     0.79061
 =======================================================================
   * Total *   -0.00000     85.96849   173.19054    0.84096   260.00000

 Normal termination of Gaussian 16 at Thu Jan 23 02:10:53 2025.
