 Gaussian 16, Revision B.01,
 Gaussian 16:  ES64L-G16RevB.01 20-Dec-2017

 --------------------------------------------
 # nmr=giao b3lyp/def2TZVP pop=nbo scfcyc=200
 --------------------------------------------

 --------------
 DS-10 SPE NoRh
 --------------
 Symbolic Z-matrix:
 Charge =  0 Multiplicity = 1

                         Standard orientation:
 ---------------------------------------------------------------------
 Center     Atomic      Atomic             Coordinates (Angstroms)
 Number     Number       Type             X           Y           Z
 ---------------------------------------------------------------------
      1         15           0       -1.414699   -0.023523   -0.995098
      2          6           0       -2.493717    1.432263   -0.666806
      3          6           0       -3.802774    1.439980   -1.161821
      4          6           0       -4.599378    2.569878   -1.015594
      5          6           0       -4.096715    3.704232   -0.384349
      6          6           0       -2.793536    3.703619    0.101668
      7          6           0       -1.991881    2.576634   -0.041558
      8          6           0       -2.428450   -1.505318   -0.593423
      9          6           0       -3.343534   -1.501733    0.463566
     10          6           0       -4.044629   -2.658863    0.781313
     11          6           0       -3.836777   -3.827474    0.053070
     12          6           0       -2.922830   -3.839042   -0.995920
     13          6           0       -2.220735   -2.681928   -1.319667
     14          1           0       -4.211979    0.563020   -1.647011
     15          1           0       -5.613653    2.562477   -1.394609
     16          1           0       -4.719645    4.582099   -0.270173
     17          1           0       -2.398278    4.583819    0.594859
     18          1           0       -0.978485    2.591052    0.336458
     19          1           0       -3.517950   -0.597706    1.032754
     20          1           0       -4.756568   -2.648736    1.597306
     21          1           0       -4.387385   -4.726150    0.301874
     22          1           0       -2.760447   -4.744862   -1.566109
     23          1           0       -1.507779   -2.691073   -2.134660
     24          6           0       -0.000097   -0.000208    0.209926
     25         15           0        1.414520    0.022614   -0.995050
     26          6           0       -0.000097    0.000518    1.512926
     27          6           0        2.493547   -1.432310   -0.666342
     28          6           0        2.428277    1.505240   -0.593725
     29          6           0       -0.000114    0.000243    2.818926
     30          6           0        3.802600   -1.440819   -1.162327
     31          6           0        1.991711   -2.575944   -0.040589
     32          6           0        2.220582    2.682156   -1.319480
     33          6           0        3.344351    1.502194    0.463286
     34          6           0        0.017124    1.287972    3.608197
     35          6           0       -0.016356   -1.286834    3.608655
     36          6           0        4.599199   -2.570778   -1.016554
     37          1           0        4.210834   -0.562637   -1.648137
     38          6           0        2.794345   -3.704007    0.102184
     39          1           0        0.978305   -2.590521    0.337394
     40          6           0        2.922668    3.839134   -0.996228
     41          1           0        1.506630    2.690661   -2.134488
     42          6           0        4.045437    2.659190    0.780539
     43          1           0        3.519752    0.597909    1.032098
     44          1           0        0.891641    1.310731    4.263214
     45          1           0        0.041314    2.166820    2.967382
     46          1           0       -0.868027    1.345135    4.247198
     47          1           0       -0.040529   -2.165413    2.968470
     48          1           0        0.868778   -1.344267    4.247655
     49          1           0       -0.890891   -1.309870    4.264639
     50          6           0        4.096537   -3.704397   -0.383799
     51          1           0        5.613485   -2.563217   -1.394539
     52          1           0        2.398091   -4.583397    0.595994
     53          6           0        3.835605    3.828142    0.052782
     54          1           0        2.759300    4.745210   -1.565039
     55          1           0        4.757355    2.648719    1.595546
     56          1           0        4.719464   -4.582312   -0.269975
     57          1           0        4.387188    4.725696    0.300978
 ---------------------------------------------------------------------

 SCF Done:  E(RB3LYP) =  -1803.84403764     A.U. after   16 cycles

      1  P    Isotropic =   217.2724   Anisotropy =   106.0890

      2  C    Isotropic =    32.6167   Anisotropy =   195.4252

      3  C    Isotropic =    49.3175   Anisotropy =   184.7173

      4  C    Isotropic =    49.7567   Anisotropy =   183.7048

      5  C    Isotropic =    53.2388   Anisotropy =   180.1518

      6  C    Isotropic =    50.5371   Anisotropy =   182.0870

      7  C    Isotropic =    48.7979   Anisotropy =   185.1180

      8  C    Isotropic =    33.5115   Anisotropy =   204.7286

      9  C    Isotropic =    42.3978   Anisotropy =   188.1451

     10  C    Isotropic =    49.3127   Anisotropy =   184.1504

     11  C    Isotropic =    48.8933   Anisotropy =   188.4924

     12  C    Isotropic =    50.0111   Anisotropy =   183.7316

     13  C    Isotropic =    40.7046   Anisotropy =   183.6143

     14  H    Isotropic =    24.5802   Anisotropy =    11.5694

     15  H    Isotropic =    24.4405   Anisotropy =     5.4695

     16  H    Isotropic =    24.5765   Anisotropy =     4.2312

     17  H    Isotropic =    24.5011   Anisotropy =     7.0266

     18  H    Isotropic =    24.4459   Anisotropy =     8.5391

     19  H    Isotropic =    24.1288   Anisotropy =    10.6780

     20  H    Isotropic =    24.3579   Anisotropy =     6.2426

     21  H    Isotropic =    24.2445   Anisotropy =     4.1605

     22  H    Isotropic =    24.1872   Anisotropy =     5.3023

     23  H    Isotropic =    23.6507   Anisotropy =     8.3206

     24  C    Isotropic =    86.6581   Anisotropy =    79.4488

     25  P    Isotropic =   217.2856   Anisotropy =   106.1065

     26  C    Isotropic =   -38.8178   Anisotropy =    44.3493

     27  C    Isotropic =    32.6436   Anisotropy =   195.4545

     28  C    Isotropic =    33.3922   Anisotropy =   204.7269

     29  C    Isotropic =    83.8559   Anisotropy =   108.1704

     30  C    Isotropic =    49.2425   Anisotropy =   184.6680

     31  C    Isotropic =    48.6554   Anisotropy =   185.2304

     32  C    Isotropic =    40.7032   Anisotropy =   183.5385

     33  C    Isotropic =    42.3141   Anisotropy =   188.2269

     34  C    Isotropic =   163.2826   Anisotropy =    27.4369

     35  C    Isotropic =   163.3170   Anisotropy =    27.4384

     36  C    Isotropic =    49.8102   Anisotropy =   183.7004

     37  H    Isotropic =    24.5688   Anisotropy =    11.5593

     38  C    Isotropic =    50.5029   Anisotropy =   182.1201

     39  H    Isotropic =    24.4414   Anisotropy =     8.5462

     40  C    Isotropic =    50.1830   Anisotropy =   183.6322

     41  H    Isotropic =    23.6451   Anisotropy =     8.3085

     42  C    Isotropic =    49.3288   Anisotropy =   184.2353

     43  H    Isotropic =    24.1271   Anisotropy =    10.6780

     44  H    Isotropic =    30.5294   Anisotropy =     8.5565

     45  H    Isotropic =    30.2887   Anisotropy =     5.1567

     46  H    Isotropic =    30.4897   Anisotropy =     8.7853

     47  H    Isotropic =    30.3008   Anisotropy =     5.1602

     48  H    Isotropic =    30.4902   Anisotropy =     8.7882

     49  H    Isotropic =    30.5165   Anisotropy =     8.5633

     50  C    Isotropic =    53.3486   Anisotropy =   180.0792

     51  H    Isotropic =    24.4445   Anisotropy =     5.4718

     52  H    Isotropic =    24.5011   Anisotropy =     7.0346

     53  C    Isotropic =    48.9747   Anisotropy =   188.5679

     54  H    Isotropic =    24.1951   Anisotropy =     5.2970

     55  H    Isotropic =    24.3656   Anisotropy =     6.2556

     56  H    Isotropic =    24.5795   Anisotropy =     4.2258

     57  H    Isotropic =    24.2555   Anisotropy =     4.1659

 The electronic state is 1-A.
 Alpha  occ. eigenvalues --  -77.04990 -77.04987 -10.19824 -10.19702 -10.19053
 Alpha  occ. eigenvalues --  -10.18303 -10.18300 -10.18295 -10.18290 -10.18063
 Alpha  occ. eigenvalues --  -10.18049 -10.18002 -10.18002 -10.17990 -10.17988
 Alpha  occ. eigenvalues --  -10.17876 -10.17864 -10.17859 -10.17854 -10.17803
 Alpha  occ. eigenvalues --  -10.17795 -10.17457 -10.17447 -10.17414 -10.17409
 Alpha  occ. eigenvalues --  -10.17396 -10.17390 -10.17330 -10.17320 -10.17188
 Alpha  occ. eigenvalues --  -10.17185  -6.53520  -6.53518  -4.69688  -4.69686
 Alpha  occ. eigenvalues --   -4.69620  -4.69617  -4.69163  -4.69160  -0.86268
 Alpha  occ. eigenvalues --   -0.86177  -0.85560  -0.85549  -0.83214  -0.78082
 Alpha  occ. eigenvalues --   -0.76383  -0.75214  -0.75198  -0.74966  -0.74741
 Alpha  occ. eigenvalues --   -0.74450  -0.74425  -0.74314  -0.70707  -0.66927
 Alpha  occ. eigenvalues --   -0.64060  -0.62278  -0.61056  -0.61019  -0.60617
 Alpha  occ. eigenvalues --   -0.60440  -0.59915  -0.59903  -0.57060  -0.56183
 Alpha  occ. eigenvalues --   -0.52188  -0.52165  -0.51808  -0.50100  -0.48251
 Alpha  occ. eigenvalues --   -0.46603  -0.45890  -0.45811  -0.45695  -0.45422
 Alpha  occ. eigenvalues --   -0.45411  -0.45104  -0.44964  -0.44588  -0.44024
 Alpha  occ. eigenvalues --   -0.43150  -0.42735  -0.42732  -0.42326  -0.42219
 Alpha  occ. eigenvalues --   -0.41215  -0.40669  -0.40127  -0.39327  -0.39254
 Alpha  occ. eigenvalues --   -0.37673  -0.37658  -0.37427  -0.37280  -0.37233
 Alpha  occ. eigenvalues --   -0.35983  -0.35138  -0.35053  -0.35022  -0.34630
 Alpha  occ. eigenvalues --   -0.34467  -0.33453  -0.32472  -0.28282  -0.27952
 Alpha  occ. eigenvalues --   -0.26801  -0.26674  -0.26302  -0.26290  -0.26099
 Alpha  occ. eigenvalues --   -0.25644  -0.25571  -0.24203  -0.22098  -0.18427
 Alpha virt. eigenvalues --   -0.05047  -0.03348  -0.03019  -0.02402  -0.02052
 Alpha virt. eigenvalues --   -0.01806  -0.01743  -0.00692  -0.00478   0.01409
 Alpha virt. eigenvalues --    0.02130   0.04629   0.04843   0.04954   0.05023

 Mulliken charges:
               1
     1  P    0.179234
     2  C    0.037588
     3  C   -0.186576
     4  C   -0.108194
     5  C   -0.107609
     6  C   -0.131897
     7  C   -0.171095
     8  C    0.053019
     9  C   -0.171535
    10  C   -0.105817
    11  C   -0.100820
    12  C   -0.102210
    13  C   -0.191198
    14  H    0.123939
    15  H    0.107499
    16  H    0.106045
    17  H    0.103513
    18  H    0.148224
    19  H    0.132695
    20  H    0.107593
    21  H    0.110773
    22  H    0.111100
    23  H    0.122694
    24  C   -0.355831
    25  P    0.179449
    26  C    0.204694
    27  C    0.037276
    28  C    0.052079
    29  C   -0.032879
    30  C   -0.186389
    31  C   -0.171012
    32  C   -0.190415
    33  C   -0.171087
    34  C   -0.329340
    35  C   -0.329556
    36  C   -0.108288
    37  H    0.123943
    38  C   -0.131922
    39  H    0.148342
    40  C   -0.102884
    41  H    0.122651
    42  C   -0.106395
    43  H    0.132615
    44  H    0.115054
    45  H    0.123051
    46  H    0.116446
    47  H    0.123082
    48  H    0.116522
    49  H    0.115006
    50  C   -0.107511
    51  H    0.107580
    52  H    0.103513
    53  C   -0.100209
    54  H    0.111049
    55  H    0.107653
    56  H    0.105992
    57  H    0.110759
 Sum of Mulliken charges =  -0.00000

 Dipole moment (field-independent basis, Debye):
    X=             -0.0000    Y=             -0.0031    Z=              3.3756  Tot=              3.3756
 Quadrupole moment (field-independent basis, Debye-Ang):
   XX=           -186.2431   YY=           -180.5334   ZZ=           -195.1781
   XY=              4.4295   XZ=              0.0060   YZ=              0.0004

 Summary of Natural Population Analysis:

                                       Natural Population
                Natural  -----------------------------------------------
    Atom  No    Charge         Core      Valence    Rydberg      Total
 -----------------------------------------------------------------------
      P    1    0.85061      9.99791     4.11765    0.03383    14.14939
      C    2   -0.32286      1.99899     4.29188    0.03199     6.32286
      C    3   -0.20803      1.99909     4.18947    0.01947     6.20803
      C    4   -0.19682      1.99919     4.17898    0.01865     6.19682
      C    5   -0.21671      1.99919     4.19801    0.01952     6.21671
      C    6   -0.19703      1.99918     4.17921    0.01863     6.19703
      C    7   -0.21445      1.99908     4.19547    0.01990     6.21445
      C    8   -0.33341      1.99899     4.30118    0.03324     6.33341
      C    9   -0.19310      1.99908     4.17419    0.01983     6.19310
      C   10   -0.20579      1.99919     4.18770    0.01891     6.20579
      C   11   -0.19940      1.99919     4.18114    0.01908     6.19940
      C   12   -0.20633      1.99919     4.18784    0.01930     6.20633
      C   13   -0.19108      1.99910     4.17200    0.01998     6.19108
      H   14    0.21231      0.00000     0.78595    0.00175     0.78769
      H   15    0.20776      0.00000     0.79098    0.00127     0.79224
      H   16    0.20699      0.00000     0.79184    0.00117     0.79301
      H   17    0.20656      0.00000     0.79216    0.00128     0.79344
      H   18    0.21181      0.00000     0.78590    0.00228     0.78819
      H   19    0.21477      0.00000     0.78309    0.00214     0.78523
      H   20    0.20729      0.00000     0.79134    0.00137     0.79271
      H   21    0.20813      0.00000     0.79070    0.00117     0.79187
      H   22    0.20998      0.00000     0.78877    0.00126     0.79002
      H   23    0.21924      0.00000     0.77926    0.00150     0.78076
      C   24   -0.70459      1.99882     4.66688    0.03889     6.70459
      P   25    0.85075      9.99791     4.11751    0.03384    14.14925
      C   26    0.16478      1.99877     3.81673    0.01972     5.83522
      C   27   -0.32357      1.99899     4.29258    0.03200     6.32357
      C   28   -0.33310      1.99899     4.30088    0.03323     6.33310
      C   29   -0.09274      1.99892     4.07967    0.01415     6.09274
      C   30   -0.20777      1.99909     4.18920    0.01948     6.20777
      C   31   -0.21421      1.99909     4.19524    0.01988     6.21421
      C   32   -0.19108      1.99910     4.17198    0.02000     6.19108
      C   33   -0.19310      1.99908     4.17420    0.01982     6.19310
      C   34   -0.59442      1.99938     4.58242    0.01263     6.59442
      C   35   -0.59449      1.99938     4.58248    0.01263     6.59449
      C   36   -0.19683      1.99919     4.17899    0.01865     6.19683
      H   37    0.21236      0.00000     0.78589    0.00174     0.78764
      C   38   -0.19700      1.99919     4.17919    0.01863     6.19700
      H   39    0.21181      0.00000     0.78590    0.00229     0.78819
      C   40   -0.20654      1.99918     4.18804    0.01932     6.20654
      H   41    0.21924      0.00000     0.77926    0.00150     0.78076
      C   42   -0.20585      1.99919     4.18778    0.01889     6.20585
      H   43    0.21470      0.00000     0.78316    0.00214     0.78530
      H   44    0.21000      0.00000     0.78836    0.00164     0.79000
      H   45    0.22011      0.00000     0.77889    0.00099     0.77989
      H   46    0.21021      0.00000     0.78817    0.00162     0.78979
      H   47    0.22011      0.00000     0.77890    0.00099     0.77989
      H   48    0.21025      0.00000     0.78812    0.00162     0.78975
      H   49    0.21001      0.00000     0.78835    0.00164     0.78999
      C   50   -0.21686      1.99919     4.19814    0.01953     6.21686
      H   51    0.20781      0.00000     0.79093    0.00126     0.79219
      H   52    0.20656      0.00000     0.79216    0.00128     0.79344
      C   53   -0.19924      1.99919     4.18097    0.01907     6.19924
      H   54    0.20998      0.00000     0.78876    0.00125     0.79002
      H   55    0.20725      0.00000     0.79139    0.00137     0.79275
      H   56    0.20699      0.00000     0.79183    0.00117     0.79301
      H   57    0.20802      0.00000     0.79080    0.00117     0.79198
 =======================================================================
   * Total *   -0.00000     77.97003   151.30843    0.72153   230.00000

 Normal termination of Gaussian 16 at Thu Jan 23 01:12:18 2025.
