 Gaussian 16, Revision B.01,
 Gaussian 16:  ES64L-G16RevB.01 20-Dec-2017

 --------------------------------------------
 # nmr=giao b3lyp/def2TZVP pop=nbo scfcyc=200
 --------------------------------------------

 -------------
 DS-2 SPE NoRh
 -------------
 Symbolic Z-matrix:
 Charge =  0 Multiplicity = 1

                         Standard orientation:
 ---------------------------------------------------------------------
 Center     Atomic      Atomic             Coordinates (Angstroms)
 Number     Number       Type             X           Y           Z
 ---------------------------------------------------------------------
      1         15           0       -1.353844    0.006531   -0.529029
      2         15           0        1.354221   -0.008446   -0.529595
      3          6           0       -2.552263   -1.477279   -0.233305
      4          6           0        2.573455   -1.465034   -0.184389
      5          6           0        0.000450   -0.002521    0.843689
      6          6           0        2.547809    1.478624   -0.232318
      7          6           0       -2.569888    1.466296   -0.183236
      8          9           0       -3.098151    1.434288    1.042886
      9          9           0       -3.565737    1.427337   -1.079013
     10          9           0       -1.914147    2.626929   -0.336742
     11          9           0        1.868199    2.624476   -0.384539
     12          9           0        3.108050    1.473949    0.980565
     13          9           0        3.521226    1.444316   -1.152513
     14          9           0        3.570998   -1.421674   -1.078613
     15          9           0        3.100220   -1.433220    1.042490
     16          9           0        1.922634   -2.626838   -0.339883
     17          9           0       -1.876746   -2.625170   -0.388083
     18          9           0       -3.110992   -1.471848    0.979811
     19          9           0       -3.525996   -1.438555   -1.152112
     20          6           0       -0.006471   -1.260269    1.727090
     21          1           0        0.868978   -1.244659    2.376900
     22          1           0       -0.891202   -1.244329    2.364271
     23          1           0       -0.003033   -2.194594    1.170386
     24          6           0        0.006658    1.249804    1.733290
     25          1           0        0.003029    2.186777    1.180993
     26          1           0       -0.868561    1.231607    2.383480
     27          1           0        0.890600    1.230284    2.370110
 ---------------------------------------------------------------------

 SCF Done:  E(RB3LYP) =  -2151.82708269     A.U. after   13 cycles

      1  P    Isotropic =   187.9567   Anisotropy =   256.9680

      2  P    Isotropic =   188.3578   Anisotropy =   256.5171

      3  C    Isotropic =    40.7256   Anisotropy =     5.8145

      4  C    Isotropic =    40.7510   Anisotropy =     5.7410

      5  C    Isotropic =   129.1392   Anisotropy =    22.3435

      6  C    Isotropic =    40.6147   Anisotropy =     5.9034

      7  C    Isotropic =    40.6470   Anisotropy =     5.7451

      8  F    Isotropic =   230.8873   Anisotropy =   120.4345

      9  F    Isotropic =   225.2765   Anisotropy =   132.2956

     10  F    Isotropic =   225.3722   Anisotropy =   131.8682

     11  F    Isotropic =   226.0914   Anisotropy =   130.4120

     12  F    Isotropic =   230.0140   Anisotropy =   121.5157

     13  F    Isotropic =   224.3462   Anisotropy =   133.5781

     14  F    Isotropic =   225.2424   Anisotropy =   132.7823

     15  F    Isotropic =   230.9033   Anisotropy =   120.6818

     16  F    Isotropic =   225.7848   Anisotropy =   130.6866

     17  F    Isotropic =   226.1498   Anisotropy =   130.5376

     18  F    Isotropic =   230.2199   Anisotropy =   121.1615

     19  F    Isotropic =   224.6503   Anisotropy =   132.9362

     20  C    Isotropic =   159.7744   Anisotropy =    27.0182

     21  H    Isotropic =    30.2335   Anisotropy =     7.5527

     22  H    Isotropic =    30.2371   Anisotropy =     7.5295

     23  H    Isotropic =    29.5519   Anisotropy =     5.7311

     24  C    Isotropic =   159.8397   Anisotropy =    27.0366

     25  H    Isotropic =    29.5503   Anisotropy =     5.7294

     26  H    Isotropic =    30.2340   Anisotropy =     7.5555

     27  H    Isotropic =    30.2546   Anisotropy =     7.5319

 The electronic state is 1-A.
 Alpha  occ. eigenvalues --  -77.11330 -77.11322 -24.74526 -24.74522 -24.74491
 Alpha  occ. eigenvalues --  -24.74464 -24.74163 -24.74155 -24.74152 -24.74146
 Alpha  occ. eigenvalues --  -24.74139 -24.74133 -24.74122 -24.74106 -10.45070
 Alpha  occ. eigenvalues --  -10.45067 -10.45013 -10.45008 -10.26624 -10.20648
 Alpha  occ. eigenvalues --  -10.20630  -6.59934  -6.59926  -4.76084  -4.76076
 Alpha  occ. eigenvalues --   -4.76043  -4.76034  -4.75511  -4.75503  -1.34557
 Alpha  occ. eigenvalues --   -1.34548  -1.34318  -1.34314  -1.25980  -1.25972
 Alpha  occ. eigenvalues --   -1.25830  -1.25819  -1.25777  -1.25764  -1.25545
 Alpha  occ. eigenvalues --   -1.25527  -0.85461  -0.76750  -0.76547  -0.73518
 Alpha  occ. eigenvalues --   -0.73158  -0.73023  -0.69382  -0.67719  -0.63248
 Alpha  occ. eigenvalues --   -0.62714  -0.62550  -0.62497  -0.62319  -0.62306
 Alpha  occ. eigenvalues --   -0.62082  -0.62028  -0.61914  -0.60081  -0.59966
 Alpha  occ. eigenvalues --   -0.52474  -0.52321  -0.50616  -0.50408  -0.50331
 Alpha  occ. eigenvalues --   -0.50270  -0.50023  -0.49949  -0.49857  -0.49815
 Alpha  occ. eigenvalues --   -0.48348  -0.47992  -0.47291  -0.47209  -0.46597
 Alpha  occ. eigenvalues --   -0.46209  -0.45947  -0.45935  -0.45895  -0.45673
 Alpha  occ. eigenvalues --   -0.45231  -0.44451  -0.44415  -0.44103  -0.44070
 Alpha  occ. eigenvalues --   -0.42262  -0.40527  -0.39800  -0.37322  -0.36851
 Alpha  occ. eigenvalues --   -0.34070  -0.30331  -0.25968
 Alpha virt. eigenvalues --   -0.07276  -0.02909  -0.00116  -0.00013   0.01424
 Alpha virt. eigenvalues --    0.02734   0.03091   0.05958   0.06132   0.07794
 Alpha virt. eigenvalues --    0.08185   0.08255   0.08473   0.09800   0.10896

 Mulliken charges:
               1
     1  P    0.042074
     2  P    0.042527
     3  C    0.459016
     4  C    0.459053
     5  C   -0.031060
     6  C    0.459034
     7  C    0.459058
     8  F   -0.165852
     9  F   -0.155496
    10  F   -0.169616
    11  F   -0.169175
    12  F   -0.165804
    13  F   -0.154924
    14  F   -0.155800
    15  F   -0.166083
    16  F   -0.168998
    17  F   -0.169274
    18  F   -0.165669
    19  F   -0.154690
    20  C   -0.413989
    21  H    0.143549
    22  H    0.143917
    23  H    0.162288
    24  C   -0.413627
    25  H    0.162298
    26  H    0.143417
    27  H    0.143826
 Sum of Mulliken charges =  -0.00000

 Dipole moment (field-independent basis, Debye):
    X=             -0.0070    Y=             -0.0131    Z=              2.3653  Tot=              2.3654
 Quadrupole moment (field-independent basis, Debye-Ang):
   XX=           -142.2821   YY=           -133.1444   ZZ=           -128.8050
   XY=              0.0900   XZ=             -0.0021   YZ=             -0.0056

 Summary of Natural Population Analysis:

                                       Natural Population
                Natural  -----------------------------------------------
    Atom  No    Charge         Core      Valence    Rydberg      Total
 -----------------------------------------------------------------------
      P    1    0.56855      9.99842     4.38766    0.04537    14.43145
      P    2    0.56917      9.99842     4.38702    0.04539    14.43083
      C    3    0.75593      1.99971     3.18272    0.06164     5.24407
      C    4    0.75510      1.99971     3.18364    0.06155     5.24490
      C    5   -0.49337      1.99948     4.46398    0.02990     6.49337
      C    6    0.75576      1.99971     3.18294    0.06160     5.24424
      C    7    0.75532      1.99971     3.18345    0.06152     5.24468
      F    8   -0.31858      1.99991     7.30797    0.01069     9.31858
      F    9   -0.30677      1.99992     7.29658    0.01028     9.30677
      F   10   -0.31824      1.99992     7.30782    0.01051     9.31824
      F   11   -0.31788      1.99991     7.30742    0.01054     9.31788
      F   12   -0.31834      1.99991     7.30774    0.01069     9.31834
      F   13   -0.30630      1.99992     7.29609    0.01029     9.30630
      F   14   -0.30698      1.99992     7.29679    0.01027     9.30698
      F   15   -0.31876      1.99991     7.30815    0.01069     9.31876
      F   16   -0.31777      1.99991     7.30732    0.01054     9.31777
      F   17   -0.31797      1.99991     7.30751    0.01054     9.31797
      F   18   -0.31830      1.99991     7.30769    0.01070     9.31830
      F   19   -0.30614      1.99992     7.29592    0.01030     9.30614
      C   20   -0.62775      1.99936     4.61325    0.01514     6.62775
      H   21    0.22523      0.00000     0.77306    0.00171     0.77477
      H   22    0.22524      0.00000     0.77306    0.00170     0.77476
      H   23    0.23010      0.00000     0.76875    0.00115     0.76990
      C   24   -0.62782      1.99936     4.61331    0.01516     6.62782
      H   25    0.23016      0.00000     0.76869    0.00115     0.76984
      H   26    0.22524      0.00000     0.77306    0.00170     0.77476
      H   27    0.22517      0.00000     0.77313    0.00170     0.77483
 =======================================================================
   * Total *   -0.00000     57.99284   127.47471    0.53244   186.00000

 Normal termination of Gaussian 16 at Thu Jan 23 00:03:36 2025.
