 Gaussian 16, Revision B.01,
 Gaussian 16:  ES64L-G16RevB.01 20-Dec-2017

 --------------------------------------------
 # nmr=giao b3lyp/def2TZVP pop=nbo scfcyc=200
 --------------------------------------------

 --------------
 DS-22 SPE NoRh
 --------------
 Symbolic Z-matrix:
 Charge =  0 Multiplicity = 1

                         Standard orientation:
 ---------------------------------------------------------------------
 Center     Atomic      Atomic             Coordinates (Angstroms)
 Number     Number       Type             X           Y           Z
 ---------------------------------------------------------------------
      1         15           0        2.336719    0.208913   -0.635437
      2         15           0       -0.154341    1.014564   -1.604021
      3          6           0       -0.854026    2.932286    0.349851
      4          6           0       -1.427657    4.123262    0.785407
      5          6           0       -2.173433    4.903397   -0.091715
      6          6           0       -2.344078    4.490614   -1.410637
      7          6           0       -1.771108    3.303783   -1.850361
      8          6           0       -1.027688    2.507550   -0.968960
      9          1           0       -0.274295    2.335408    1.041914
     10          1           0       -1.291036    4.438539    1.811616
     11          1           0       -2.620250    5.828097    0.249493
     12          1           0       -2.923175    5.094067   -2.098184
     13          1           0       -1.914048    2.998770   -2.879997
     14          6           0       -2.773376    0.177233   -2.440981
     15          6           0       -3.636154   -0.653594   -3.151362
     16          6           0       -3.130729   -1.693915   -3.922545
     17          6           0       -1.754989   -1.898361   -3.991757
     18          6           0       -0.891045   -1.063763   -3.294120
     19          6           0       -1.393132   -0.022764   -2.503128
     20          1           0       -3.187565    0.982715   -1.851001
     21          1           0       -4.704487   -0.485375   -3.097390
     22          1           0       -3.804466   -2.339079   -4.472649
     23          1           0       -1.355352   -2.701320   -4.597544
     24          1           0        0.179586   -1.212861   -3.370943
     25          6           0        2.317506   -2.607386   -0.951170
     26          6           0        2.921695   -3.851364   -1.108268
     27          6           0        4.305122   -3.973101   -1.033189
     28          6           0        5.086402   -2.845329   -0.798717
     29          6           0        4.487190   -1.600748   -0.639651
     30          6           0        3.094877   -1.472334   -0.705485
     31          1           0        1.239930   -2.528260   -1.014253
     32          1           0        2.308313   -4.725537   -1.289056
     33          1           0        4.773148   -4.941782   -1.153840
     34          1           0        6.163014   -2.932597   -0.737818
     35          1           0        5.108974   -0.734969   -0.449593
     36          6           0        3.362311    2.457619    0.673817
     37          6           0        3.931094    3.158204    1.732121
     38          6           0        4.330097    2.482298    2.880092
     39          6           0        4.157192    1.103749    2.969649
     40          6           0        3.586514    0.400996    1.914768
     41          6           0        3.183336    1.074021    0.757402
     42          1           0        3.051127    2.985194   -0.220867
     43          1           0        4.068267    4.229515    1.657285
     44          1           0        4.778368    3.026071    3.701669
     45          1           0        4.471188    0.574085    3.859891
     46          1           0        3.472275   -0.673728    1.993124
     47          6           0        0.551381    0.051353   -0.192397
     48          6           0        0.087555   -0.669734    0.855500
     49          1           0        0.868291   -1.180837    1.417452
     50          6           0       -1.226751   -0.935872    1.399345
     51          6           0       -1.328840   -1.923413    2.394579
     52          6           0       -2.411870   -0.271311    1.023379
     53          6           0       -2.539654   -2.261672    2.975747
     54          1           0       -0.434644   -2.443773    2.716610
     55          6           0       -3.620215   -0.588170    1.597846
     56          1           0       -2.377242    0.522037    0.293830
     57          6           0       -3.703005   -1.592947    2.576484
     58          1           0       -2.570478   -3.031635    3.732730
     59          1           0       -4.527534   -0.069124    1.318558
     60          8           0       -4.932079   -1.828348    3.070682
     61          6           0       -5.104893   -2.826861    4.079425
     62          1           0       -6.167060   -2.828573    4.309108
     63          1           0       -4.810530   -3.813221    3.711201
     64          1           0       -4.537120   -2.579561    4.979250
 ---------------------------------------------------------------------

 SCF Done:  E(RB3LYP) =  -2032.79240889     A.U. after   15 cycles

      1  P    Isotropic =   220.2761   Anisotropy =    97.8851

      2  P    Isotropic =   240.0669   Anisotropy =    57.7525

      3  C    Isotropic =    48.3322   Anisotropy =   184.5942

      4  C    Isotropic =    49.3145   Anisotropy =   185.0200

      5  C    Isotropic =    52.9285   Anisotropy =   181.1426

      6  C    Isotropic =    49.9253   Anisotropy =   183.4273

      7  C    Isotropic =    48.5429   Anisotropy =   184.8489

      8  C    Isotropic =    38.2264   Anisotropy =   190.4262

      9  H    Isotropic =    24.5399   Anisotropy =     8.3633

     10  H    Isotropic =    24.6222   Anisotropy =     6.9202

     11  H    Isotropic =    24.5365   Anisotropy =     3.8789

     12  H    Isotropic =    24.2332   Anisotropy =     4.9781

     13  H    Isotropic =    24.1162   Anisotropy =    10.6686

     14  C    Isotropic =    48.0650   Anisotropy =   189.2388

     15  C    Isotropic =    50.4592   Anisotropy =   181.6822

     16  C    Isotropic =    50.7313   Anisotropy =   184.3169

     17  C    Isotropic =    49.6933   Anisotropy =   183.2765

     18  C    Isotropic =    42.0529   Anisotropy =   184.0988

     19  C    Isotropic =    36.7617   Anisotropy =   194.2621

     20  H    Isotropic =    23.7712   Anisotropy =    10.5641

     21  H    Isotropic =    24.4709   Anisotropy =     6.2297

     22  H    Isotropic =    24.5223   Anisotropy =     4.1248

     23  H    Isotropic =    24.3449   Anisotropy =     5.8475

     24  H    Isotropic =    23.8536   Anisotropy =     9.1485

     25  C    Isotropic =    48.6584   Anisotropy =   185.8738

     26  C    Isotropic =    50.1856   Anisotropy =   181.9055

     27  C    Isotropic =    53.6704   Anisotropy =   179.1906

     28  C    Isotropic =    49.6417   Anisotropy =   183.8448

     29  C    Isotropic =    49.0005   Anisotropy =   184.8688

     30  C    Isotropic =    31.6008   Anisotropy =   194.1785

     31  H    Isotropic =    24.1406   Anisotropy =     9.4607

     32  H    Isotropic =    24.3431   Anisotropy =     6.8076

     33  H    Isotropic =    24.5100   Anisotropy =     4.0790

     34  H    Isotropic =    24.3548   Anisotropy =     5.5487

     35  H    Isotropic =    24.4469   Anisotropy =    11.6318

     36  C    Isotropic =    40.4813   Anisotropy =   183.1403

     37  C    Isotropic =    50.0092   Anisotropy =   183.3151

     38  C    Isotropic =    49.3455   Anisotropy =   187.3468

     39  C    Isotropic =    49.2106   Anisotropy =   183.5712

     40  C    Isotropic =    44.2689   Anisotropy =   185.4783

     41  C    Isotropic =    30.8649   Anisotropy =   206.8334

     42  H    Isotropic =    23.7223   Anisotropy =     8.2991

     43  H    Isotropic =    24.2994   Anisotropy =     5.4944

     44  H    Isotropic =    24.3244   Anisotropy =     4.2042

     45  H    Isotropic =    24.3446   Anisotropy =     6.2831

     46  H    Isotropic =    23.9186   Anisotropy =    10.6644

     47  C    Isotropic =    48.5332   Anisotropy =   134.1593

     48  C    Isotropic =    19.9109   Anisotropy =   161.1373

     49  H    Isotropic =    23.9105   Anisotropy =    10.9371

     50  C    Isotropic =    49.2922   Anisotropy =   179.3970

     51  C    Isotropic =    40.4870   Anisotropy =   169.0807

     52  C    Isotropic =    44.3292   Anisotropy =   193.7826

     53  C    Isotropic =    72.4206   Anisotropy =   152.8955

     54  H    Isotropic =    24.5624   Anisotropy =     9.1593

     55  C    Isotropic =    61.0512   Anisotropy =   147.3565

     56  H    Isotropic =    24.1416   Anisotropy =     8.0022

     57  C    Isotropic =    12.8236   Anisotropy =   145.9505

     58  H    Isotropic =    25.2925   Anisotropy =     7.5861

     59  H    Isotropic =    25.1597   Anisotropy =     9.3798

     60  O    Isotropic =   210.6479   Anisotropy =   101.1660

     61  C    Isotropic =   126.3465   Anisotropy =    77.3906

     62  H    Isotropic =    27.9793   Anisotropy =     8.7550

     63  H    Isotropic =    28.3302   Anisotropy =     8.1797

     64  H    Isotropic =    28.3477   Anisotropy =     8.3221

 The electronic state is 1-A.
 Alpha  occ. eigenvalues --  -77.04804 -77.04199 -19.17586 -10.25191 -10.24048
 Alpha  occ. eigenvalues --  -10.20162 -10.19226 -10.19072 -10.18593 -10.18584
 Alpha  occ. eigenvalues --  -10.18554 -10.18369 -10.18290 -10.18070 -10.18039
 Alpha  occ. eigenvalues --  -10.17997 -10.17734 -10.17630 -10.17620 -10.17554
 Alpha  occ. eigenvalues --  -10.17543 -10.17534 -10.17491 -10.17490 -10.17466
 Alpha  occ. eigenvalues --  -10.17431 -10.17410 -10.17401 -10.17325 -10.17221
 Alpha  occ. eigenvalues --  -10.17205 -10.17202 -10.17162 -10.17135 -10.17074
 Alpha  occ. eigenvalues --  -10.16954  -6.53329  -6.52761  -4.69490  -4.69445
 Alpha  occ. eigenvalues --   -4.68975  -4.68909  -4.68885  -4.68404  -1.08729
 Alpha  occ. eigenvalues --   -0.87314  -0.85953  -0.85869  -0.85438  -0.85297
 Alpha  occ. eigenvalues --   -0.80741  -0.77349  -0.76405  -0.76083  -0.74970
 Alpha  occ. eigenvalues --   -0.74896  -0.74723  -0.74687  -0.74382  -0.74253
 Alpha  occ. eigenvalues --   -0.74135  -0.71376  -0.65785  -0.63772  -0.62745
 Alpha  occ. eigenvalues --   -0.61314  -0.60867  -0.60752  -0.60432  -0.60183
 Alpha  occ. eigenvalues --   -0.59701  -0.59621  -0.58366  -0.56042  -0.55275
 Alpha  occ. eigenvalues --   -0.53614  -0.51930  -0.51704  -0.51102  -0.50422
 Alpha  occ. eigenvalues --   -0.49483  -0.48847  -0.47202  -0.46245  -0.45689
 Alpha  occ. eigenvalues --   -0.45537  -0.45482  -0.45252  -0.45138  -0.45000
 Alpha  occ. eigenvalues --   -0.44802  -0.44178  -0.43866  -0.43292  -0.42450
 Alpha  occ. eigenvalues --   -0.42402  -0.42284  -0.42086  -0.41498  -0.40952
 Alpha  occ. eigenvalues --   -0.40403  -0.40202  -0.39855  -0.38059  -0.37764
 Alpha  occ. eigenvalues --   -0.37348  -0.37008  -0.36908  -0.36759  -0.35759
 Alpha  occ. eigenvalues --   -0.35633  -0.34779  -0.34726  -0.34606  -0.34431
 Alpha  occ. eigenvalues --   -0.34196  -0.33057  -0.32135  -0.30773  -0.29319
 Alpha  occ. eigenvalues --   -0.27917  -0.27285  -0.26738  -0.26235  -0.26006
 Alpha  occ. eigenvalues --   -0.25834  -0.25677  -0.25432  -0.25290  -0.22548
 Alpha  occ. eigenvalues --   -0.21488  -0.17668
 Alpha virt. eigenvalues --   -0.07307  -0.02939  -0.02600  -0.02507  -0.02109
 Alpha virt. eigenvalues --   -0.01778  -0.01463  -0.01052  -0.00981  -0.00438
 Alpha virt. eigenvalues --    0.02117   0.02873   0.03888   0.04599   0.05042

 Mulliken charges:
               1
     1  P    0.165923
     2  P    0.167049
     3  C   -0.200322
     4  C   -0.106541
     5  C   -0.118632
     6  C   -0.097485
     7  C   -0.238034
     8  C    0.070208
     9  H    0.150341
    10  H    0.107048
    11  H    0.106193
    12  H    0.107813
    13  H    0.129646
    14  C   -0.183582
    15  C   -0.122661
    16  C   -0.101643
    17  C   -0.115192
    18  C   -0.203632
    19  C    0.061383
    20  H    0.153745
    21  H    0.104995
    22  H    0.107063
    23  H    0.108920
    24  H    0.137029
    25  C   -0.205978
    26  C   -0.122858
    27  C   -0.114485
    28  C   -0.104445
    29  C   -0.210826
    30  C    0.054897
    31  H    0.162162
    32  H    0.104460
    33  H    0.104882
    34  H    0.106786
    35  H    0.123855
    36  C   -0.193791
    37  C   -0.100004
    38  C   -0.102994
    39  C   -0.110746
    40  C   -0.175868
    41  C    0.058147
    42  H    0.123294
    43  H    0.109905
    44  H    0.109270
    45  H    0.106026
    46  H    0.132411
    47  C   -0.142564
    48  C   -0.273034
    49  H    0.123101
    50  C    0.239877
    51  C   -0.178273
    52  C   -0.093725
    53  C   -0.247057
    54  H    0.110758
    55  C   -0.195967
    56  H    0.138329
    57  C    0.323103
    58  H    0.115881
    59  H    0.104904
    60  O   -0.262211
    61  C   -0.195850
    62  H    0.139750
    63  H    0.124902
    64  H    0.124342
 Sum of Mulliken charges =  -0.00000

 Dipole moment (field-independent basis, Debye):
    X=             -2.8132    Y=             -2.3733    Z=              4.0989  Tot=              5.5088
 Quadrupole moment (field-independent basis, Debye-Ang):
   XX=           -211.1212   YY=           -207.7183   ZZ=           -213.4041
   XY=              4.9325   XZ=              0.3068   YZ=             -4.0505

 Summary of Natural Population Analysis:

                                       Natural Population
                Natural  -----------------------------------------------
    Atom  No    Charge         Core      Valence    Rydberg      Total
 -----------------------------------------------------------------------
      P    1    0.83891      9.99787     4.12909    0.03412    14.16109
      P    2    0.84413      9.99779     4.12491    0.03316    14.15587
      C    3   -0.21610      1.99908     4.19736    0.01966     6.21610
      C    4   -0.19598      1.99919     4.17821    0.01859     6.19598
      C    5   -0.21643      1.99919     4.19772    0.01952     6.21643
      C    6   -0.19885      1.99918     4.18106    0.01860     6.19885
      C    7   -0.21212      1.99909     4.19331    0.01972     6.21212
      C    8   -0.32928      1.99898     4.29913    0.03117     6.32928
      H    9    0.21725      0.00000     0.78075    0.00200     0.78275
      H   10    0.20799      0.00000     0.79072    0.00128     0.79201
      H   11    0.20705      0.00000     0.79177    0.00118     0.79295
      H   12    0.20818      0.00000     0.79055    0.00127     0.79182
      H   13    0.21260      0.00000     0.78559    0.00181     0.78740
      C   14   -0.20659      1.99907     4.18801    0.01951     6.20659
      C   15   -0.20117      1.99918     4.18320    0.01878     6.20117
      C   16   -0.20605      1.99919     4.18755    0.01931     6.20605
      C   17   -0.20117      1.99918     4.18344    0.01855     6.20117
      C   18   -0.19817      1.99909     4.17940    0.01968     6.19817
      C   19   -0.31913      1.99896     4.28826    0.03191     6.31913
      H   20    0.21071      0.00000     0.78699    0.00230     0.78929
      H   21    0.20663      0.00000     0.79205    0.00132     0.79337
      H   22    0.20736      0.00000     0.79146    0.00118     0.79264
      H   23    0.20896      0.00000     0.78978    0.00126     0.79104
      H   24    0.21429      0.00000     0.78383    0.00188     0.78571
      C   25   -0.22264      1.99909     4.20349    0.02006     6.22264
      C   26   -0.19786      1.99919     4.17990    0.01878     6.19786
      C   27   -0.21916      1.99919     4.20034    0.01963     6.21916
      C   28   -0.19723      1.99919     4.17939    0.01865     6.19723
      C   29   -0.20900      1.99909     4.19027    0.01965     6.20900
      C   30   -0.32189      1.99899     4.29078    0.03212     6.32189
      H   31    0.21332      0.00000     0.78470    0.00198     0.78668
      H   32    0.20630      0.00000     0.79241    0.00128     0.79370
      H   33    0.20642      0.00000     0.79240    0.00118     0.79358
      H   34    0.20734      0.00000     0.79138    0.00127     0.79266
      H   35    0.21258      0.00000     0.78567    0.00175     0.78742
      C   36   -0.19144      1.99910     4.17223    0.02011     6.19144
      C   37   -0.20477      1.99918     4.18626    0.01933     6.20477
      C   38   -0.20086      1.99919     4.18254    0.01913     6.20086
      C   39   -0.20560      1.99919     4.18740    0.01901     6.20560
      C   40   -0.19959      1.99908     4.18067    0.01984     6.19959
      C   41   -0.32657      1.99899     4.29399    0.03359     6.32657
      H   42    0.21996      0.00000     0.77854    0.00149     0.78004
      H   43    0.20959      0.00000     0.78915    0.00126     0.79041
      H   44    0.20758      0.00000     0.79124    0.00118     0.79242
      H   45    0.20667      0.00000     0.79196    0.00137     0.79333
      H   46    0.21018      0.00000     0.78758    0.00224     0.78982
      C   47   -0.64693      1.99902     4.60910    0.03881     6.64693
      C   48   -0.10644      1.99899     4.08455    0.02289     6.10644
      H   49    0.19863      0.00000     0.79767    0.00370     0.80137
      C   50   -0.13875      1.99903     4.11861    0.02111     6.13875
      C   51   -0.13366      1.99917     4.11570    0.01880     6.13366
      C   52   -0.14319      1.99909     4.12507    0.01904     6.14319
      C   53   -0.30593      1.99905     4.28807    0.01881     6.30593
      H   54    0.20741      0.00000     0.79122    0.00136     0.79259
      C   55   -0.24085      1.99908     4.22297    0.01880     6.24085
      H   56    0.22352      0.00000     0.77421    0.00227     0.77648
      C   57    0.31250      1.99880     3.66715    0.02155     5.68750
      H   58    0.21539      0.00000     0.78302    0.00159     0.78461
      H   59    0.22207      0.00000     0.77645    0.00148     0.77793
      O   60   -0.44423      1.99973     6.42057    0.02393     8.44423
      C   61   -0.25182      1.99927     4.24007    0.01249     6.25182
      H   62    0.19715      0.00000     0.80162    0.00123     0.80285
      H   63    0.17447      0.00000     0.82323    0.00230     0.82553
      H   64    0.17427      0.00000     0.82341    0.00232     0.82573
 =======================================================================
   * Total *   -0.00000     87.96575   175.18912    0.84513   264.00000

 Normal termination of Gaussian 16 at Thu Jan 23 02:41:09 2025.
