 Gaussian 16, Revision B.01,
 Gaussian 16:  ES64L-G16RevB.01 20-Dec-2017

 --------------------------------------------
 # nmr=giao b3lyp/def2TZVP pop=nbo scfcyc=200
 --------------------------------------------

 --------------
 DS-20 SPE NoRh
 --------------
 Symbolic Z-matrix:
 Charge =  0 Multiplicity = 1

                         Standard orientation:
 ---------------------------------------------------------------------
 Center     Atomic      Atomic             Coordinates (Angstroms)
 Number     Number       Type             X           Y           Z
 ---------------------------------------------------------------------
      1         15           0        2.072329   -0.098988   -0.894539
      2         15           0       -0.502883    0.826800   -1.427942
      3          6           0       -0.539108    2.770854    0.629481
      4          6           0       -0.803302    4.034286    1.151689
      5          6           0       -1.458491    4.987324    0.380607
      6          6           0       -1.847494    4.677426   -0.920219
      7          6           0       -1.579455    3.420674   -1.447074
      8          6           0       -0.931849    2.450001   -0.671462
      9          1           0       -0.024057    2.039630    1.239176
     10          1           0       -0.496020    4.270319    2.162342
     11          1           0       -1.664435    5.968759    0.788822
     12          1           0       -2.356034    5.416347   -1.527021
     13          1           0       -1.888403    3.196385   -2.461375
     14          6           0       -3.344751    0.558752   -1.671696
     15          6           0       -4.491895   -0.099931   -2.101183
     16          6           0       -4.394833   -1.312186   -2.774368
     17          6           0       -3.141733   -1.864033   -3.027808
     18          6           0       -1.993800   -1.202441   -2.613713
     19          6           0       -2.084423    0.011073   -1.922419
     20          1           0       -3.439651    1.496589   -1.140906
     21          1           0       -5.463681    0.335345   -1.903515
     22          1           0       -5.290346   -1.823481   -3.104897
     23          1           0       -3.060137   -2.805850   -3.555744
     24          1           0       -1.021102   -1.625915   -2.834116
     25          6           0        2.189876   -2.899231   -1.130042
     26          6           0        2.823532   -4.134898   -1.139321
     27          6           0        4.173361   -4.231931   -0.810084
     28          6           0        4.885619   -3.087851   -0.471714
     29          6           0        4.253913   -1.847638   -0.454719
     30          6           0        2.896945   -1.744511   -0.776153
     31          1           0        1.140702   -2.837322   -1.392960
     32          1           0        2.264017   -5.023982   -1.405490
     33          1           0        4.666227   -5.196740   -0.818706
     34          1           0        5.935246   -3.156413   -0.215618
     35          1           0        4.820204   -0.966216   -0.183415
     36          6           0        3.552819    2.216736   -0.321014
     37          6           0        4.261942    3.092741    0.494654
     38          6           0        4.461088    2.788475    1.836695
     39          6           0        3.946239    1.606019    2.364292
     40          6           0        3.237577    0.729904    1.552720
     41          6           0        3.039803    1.027337    0.199842
     42          1           0        3.387105    2.460706   -1.362514
     43          1           0        4.657152    4.012822    0.081617
     44          1           0        5.013987    3.469448    2.471320
     45          1           0        4.098312    1.367029    3.409414
     46          1           0        2.846158   -0.186031    1.977650
     47          6           0        0.374945   -0.213273   -0.173475
     48          6           0        0.006080   -1.044595    0.824218
     49          1           0        0.801739   -1.687459    1.197443
     50          6           0       -1.263942   -1.288994    1.492740
     51          6           0       -1.404871   -2.493330    2.205241
     52          6           0       -2.338896   -0.387572    1.513366
     53          6           0       -2.578804   -2.796996    2.874302
     54          1           0       -0.584302   -3.199812    2.221887
     55          6           0       -3.502767   -0.690555    2.198404
     56          1           0       -2.253429    0.569221    1.021891
     57          6           0       -3.651349   -1.900319    2.886228
     58          1           0       -2.663278   -3.738472    3.403677
     59          1           0       -4.315151    0.027644    2.207521
     60          6           0       -4.909599   -2.206379    3.651870
     61          1           0       -5.097543   -3.279655    3.696639
     62          1           0       -4.831458   -1.846444    4.681617
     63          1           0       -5.777765   -1.723262    3.203155
 ---------------------------------------------------------------------

 SCF Done:  E(RB3LYP) =  -1957.55548474     A.U. after   15 cycles

      1  P    Isotropic =   222.6683   Anisotropy =   102.6060

      2  P    Isotropic =   236.6964   Anisotropy =    62.2510

      3  C    Isotropic =    46.8778   Anisotropy =   185.2087

      4  C    Isotropic =    49.3689   Anisotropy =   185.4235

      5  C    Isotropic =    52.1696   Anisotropy =   182.9929

      6  C    Isotropic =    50.2797   Anisotropy =   182.9770

      7  C    Isotropic =    46.8556   Anisotropy =   186.3049

      8  C    Isotropic =    38.7580   Anisotropy =   190.9704

      9  H    Isotropic =    24.6802   Anisotropy =     7.7456

     10  H    Isotropic =    24.7772   Anisotropy =     7.1590

     11  H    Isotropic =    24.5624   Anisotropy =     4.0452

     12  H    Isotropic =    24.2591   Anisotropy =     4.7065

     13  H    Isotropic =    24.1472   Anisotropy =    10.1461

     14  C    Isotropic =    48.8157   Anisotropy =   190.3571

     15  C    Isotropic =    50.5733   Anisotropy =   182.9194

     16  C    Isotropic =    51.3982   Anisotropy =   183.5326

     17  C    Isotropic =    50.2178   Anisotropy =   183.1536

     18  C    Isotropic =    44.8546   Anisotropy =   182.4449

     19  C    Isotropic =    36.0424   Anisotropy =   191.4933

     20  H    Isotropic =    24.1420   Anisotropy =    11.2638

     21  H    Isotropic =    24.6086   Anisotropy =     6.0198

     22  H    Isotropic =    24.6910   Anisotropy =     3.7094

     23  H    Isotropic =    24.5044   Anisotropy =     5.4068

     24  H    Isotropic =    23.9397   Anisotropy =     9.5484

     25  C    Isotropic =    48.4297   Anisotropy =   183.5742

     26  C    Isotropic =    50.5428   Anisotropy =   181.8100

     27  C    Isotropic =    53.5477   Anisotropy =   178.7133

     28  C    Isotropic =    49.4705   Anisotropy =   183.2701

     29  C    Isotropic =    49.2558   Anisotropy =   184.0590

     30  C    Isotropic =    30.0538   Anisotropy =   192.7921

     31  H    Isotropic =    23.8877   Anisotropy =    10.1164

     32  H    Isotropic =    24.2537   Anisotropy =     6.2266

     33  H    Isotropic =    24.5401   Anisotropy =     4.0422

     34  H    Isotropic =    24.4799   Anisotropy =     6.2320

     35  H    Isotropic =    24.9384   Anisotropy =    12.9185

     36  C    Isotropic =    38.9474   Anisotropy =   184.0255

     37  C    Isotropic =    50.0897   Anisotropy =   184.0915

     38  C    Isotropic =    48.3570   Anisotropy =   189.8499

     39  C    Isotropic =    49.0048   Anisotropy =   185.3010

     40  C    Isotropic =    41.5652   Anisotropy =   190.8990

     41  C    Isotropic =    34.7151   Anisotropy =   202.5830

     42  H    Isotropic =    23.8538   Anisotropy =     7.6344

     43  H    Isotropic =    24.3692   Anisotropy =     4.8394

     44  H    Isotropic =    24.2653   Anisotropy =     3.8001

     45  H    Isotropic =    24.2288   Anisotropy =     6.2663

     46  H    Isotropic =    23.7697   Anisotropy =    10.0283

     47  C    Isotropic =    38.3218   Anisotropy =   149.5839

     48  C    Isotropic =    24.4590   Anisotropy =   157.4982

     49  H    Isotropic =    23.6175   Anisotropy =     9.3857

     50  C    Isotropic =    44.2708   Anisotropy =   187.9430

     51  C    Isotropic =    44.6593   Anisotropy =   169.5449

     52  C    Isotropic =    47.6132   Anisotropy =   187.7487

     53  C    Isotropic =    50.2172   Anisotropy =   162.4490

     54  H    Isotropic =    24.6446   Anisotropy =     8.6782

     55  C    Isotropic =    49.5673   Anisotropy =   165.5836

     56  H    Isotropic =    24.4824   Anisotropy =     7.3801

     57  C    Isotropic =    34.3539   Anisotropy =   204.8835

     58  H    Isotropic =    24.7219   Anisotropy =     6.7678

     59  H    Isotropic =    25.0028   Anisotropy =    10.1584

     60  C    Isotropic =   160.5670   Anisotropy =    41.5380

     61  H    Isotropic =    29.8353   Anisotropy =     8.0037

     62  H    Isotropic =    29.5157   Anisotropy =     9.1057

     63  H    Isotropic =    29.8690   Anisotropy =     6.6495

 The electronic state is 1-A.
 Alpha  occ. eigenvalues --  -77.05128 -77.04472 -10.19985 -10.19382 -10.19104
 Alpha  occ. eigenvalues --  -10.18935 -10.18614 -10.18405 -10.18370 -10.18309
 Alpha  occ. eigenvalues --  -10.18159 -10.18124 -10.18087 -10.18016 -10.17955
 Alpha  occ. eigenvalues --  -10.17894 -10.17882 -10.17835 -10.17803 -10.17800
 Alpha  occ. eigenvalues --  -10.17684 -10.17626 -10.17585 -10.17554 -10.17525
 Alpha  occ. eigenvalues --  -10.17521 -10.17489 -10.17479 -10.17426 -10.17397
 Alpha  occ. eigenvalues --  -10.17397 -10.17339 -10.17276 -10.17181 -10.17087
 Alpha  occ. eigenvalues --   -6.53654  -6.53036  -4.69819  -4.69765  -4.69305
 Alpha  occ. eigenvalues --   -4.69188  -4.69156  -4.68678  -0.87254  -0.86252
 Alpha  occ. eigenvalues --   -0.86071  -0.85600  -0.85470  -0.81262  -0.77645
 Alpha  occ. eigenvalues --   -0.76318  -0.75552  -0.75256  -0.75228  -0.74950
 Alpha  occ. eigenvalues --   -0.74857  -0.74571  -0.74409  -0.74315  -0.70151
 Alpha  occ. eigenvalues --   -0.65458  -0.63927  -0.61983  -0.61109  -0.61002
 Alpha  occ. eigenvalues --   -0.60713  -0.60593  -0.60097  -0.59873  -0.59839
 Alpha  occ. eigenvalues --   -0.58114  -0.56178  -0.54072  -0.52138  -0.51949
 Alpha  occ. eigenvalues --   -0.51327  -0.50160  -0.49223  -0.47315  -0.46473
 Alpha  occ. eigenvalues --   -0.45806  -0.45768  -0.45636  -0.45497  -0.45199
 Alpha  occ. eigenvalues --   -0.45120  -0.44795  -0.44580  -0.43125  -0.43080
 Alpha  occ. eigenvalues --   -0.42820  -0.42684  -0.42508  -0.42413  -0.42171
 Alpha  occ. eigenvalues --   -0.42081  -0.41134  -0.40585  -0.39394  -0.38222
 Alpha  occ. eigenvalues --   -0.37847  -0.37676  -0.37281  -0.37143  -0.36923
 Alpha  occ. eigenvalues --   -0.36107  -0.35868  -0.35090  -0.34899  -0.34798
 Alpha  occ. eigenvalues --   -0.34677  -0.34547  -0.33430  -0.32341  -0.30952
 Alpha  occ. eigenvalues --   -0.30398  -0.28181  -0.27016  -0.26740  -0.26408
 Alpha  occ. eigenvalues --   -0.26258  -0.25985  -0.25723  -0.25544  -0.25374
 Alpha  occ. eigenvalues --   -0.23960  -0.21500  -0.18077
 Alpha virt. eigenvalues --   -0.07340  -0.03326  -0.02715  -0.02456  -0.01960
 Alpha virt. eigenvalues --   -0.01918  -0.01614  -0.01234  -0.01072  -0.00685
 Alpha virt. eigenvalues --    0.01468   0.03447   0.04018   0.04437   0.04963

 Mulliken charges:
               1
     1  P    0.164636
     2  P    0.176651
     3  C   -0.186023
     4  C   -0.116395
     5  C   -0.113320
     6  C   -0.093736
     7  C   -0.238747
     8  C    0.081444
     9  H    0.160441
    10  H    0.107257
    11  H    0.107607
    12  H    0.109269
    13  H    0.121896
    14  C   -0.179537
    15  C   -0.123610
    16  C   -0.098150
    17  C   -0.117278
    18  C   -0.173560
    19  C    0.036753
    20  H    0.148357
    21  H    0.103999
    22  H    0.106653
    23  H    0.106379
    24  H    0.116492
    25  C   -0.197341
    26  C   -0.113948
    27  C   -0.109705
    28  C   -0.121691
    29  C   -0.182189
    30  C    0.044242
    31  H    0.127704
    32  H    0.104829
    33  H    0.105450
    34  H    0.105782
    35  H    0.138145
    36  C   -0.145991
    37  C   -0.107448
    38  C   -0.097889
    39  C   -0.096876
    40  C   -0.171283
    41  C    0.029333
    42  H    0.118642
    43  H    0.110383
    44  H    0.111317
    45  H    0.108502
    46  H    0.111753
    47  C   -0.149218
    48  C   -0.268833
    49  H    0.141088
    50  C    0.234671
    51  C   -0.167568
    52  C   -0.134360
    53  C   -0.185650
    54  H    0.110184
    55  C   -0.188939
    56  H    0.159158
    57  C    0.169952
    58  H    0.102762
    59  H    0.099374
    60  C   -0.365887
    61  H    0.118650
    62  H    0.125650
    63  H    0.119761
 Sum of Mulliken charges =  -0.00000

 Dipole moment (field-independent basis, Debye):
    X=             -1.8280    Y=             -0.4719    Z=              3.1413  Tot=              3.6649
 Quadrupole moment (field-independent basis, Debye-Ang):
   XX=           -203.9172   YY=           -201.8530   ZZ=           -218.7582
   XY=              3.3941   XZ=              3.5695   YZ=              0.6594

 Summary of Natural Population Analysis:

                                       Natural Population
                Natural  -----------------------------------------------
    Atom  No    Charge         Core      Valence    Rydberg      Total
 -----------------------------------------------------------------------
      P    1    0.83634      9.99786     4.13144    0.03436    14.16366
      P    2    0.84879      9.99778     4.12018    0.03325    14.15121
      C    3   -0.21256      1.99908     4.19389    0.01959     6.21256
      C    4   -0.19664      1.99918     4.17884    0.01861     6.19664
      C    5   -0.21176      1.99919     4.19318    0.01940     6.21176
      C    6   -0.20020      1.99918     4.18244    0.01858     6.20020
      C    7   -0.20746      1.99909     4.18852    0.01985     6.20746
      C    8   -0.32772      1.99897     4.29770    0.03105     6.32772
      H    9    0.21830      0.00000     0.77952    0.00218     0.78170
      H   10    0.20868      0.00000     0.79003    0.00129     0.79132
      H   11    0.20758      0.00000     0.79124    0.00118     0.79242
      H   12    0.20888      0.00000     0.78985    0.00127     0.79112
      H   13    0.21271      0.00000     0.78551    0.00178     0.78729
      C   14   -0.20784      1.99907     4.18936    0.01940     6.20784
      C   15   -0.19984      1.99918     4.18190    0.01877     6.19984
      C   16   -0.20781      1.99919     4.18923    0.01939     6.20781
      C   17   -0.19908      1.99918     4.18132    0.01857     6.19908
      C   18   -0.19863      1.99909     4.17996    0.01959     6.19863
      C   19   -0.31638      1.99896     4.28567    0.03175     6.31638
      H   20    0.21301      0.00000     0.78475    0.00224     0.78699
      H   21    0.20603      0.00000     0.79264    0.00132     0.79397
      H   22    0.20716      0.00000     0.79166    0.00118     0.79284
      H   23    0.20831      0.00000     0.79042    0.00127     0.79169
      H   24    0.20862      0.00000     0.78965    0.00174     0.79138
      C   25   -0.21505      1.99909     4.19606    0.01991     6.21505
      C   26   -0.19831      1.99918     4.18038    0.01875     6.19831
      C   27   -0.21793      1.99919     4.19910    0.01964     6.21793
      C   28   -0.19641      1.99918     4.17850    0.01872     6.19641
      C   29   -0.21162      1.99909     4.19284    0.01969     6.21162
      C   30   -0.32275      1.99899     4.29171    0.03205     6.32275
      H   31    0.20774      0.00000     0.79040    0.00186     0.79226
      H   32    0.20693      0.00000     0.79179    0.00127     0.79307
      H   33    0.20686      0.00000     0.79196    0.00118     0.79314
      H   34    0.20714      0.00000     0.79158    0.00128     0.79286
      H   35    0.21455      0.00000     0.78371    0.00174     0.78545
      C   36   -0.18548      1.99910     4.16615    0.02023     6.18548
      C   37   -0.20541      1.99918     4.18684    0.01938     6.20541
      C   38   -0.19591      1.99919     4.17775    0.01897     6.19591
      C   39   -0.20725      1.99919     4.18915    0.01891     6.20725
      C   40   -0.19307      1.99908     4.17404    0.01995     6.19307
      C   41   -0.32894      1.99899     4.29602    0.03393     6.32894
      H   42    0.22093      0.00000     0.77754    0.00153     0.77907
      H   43    0.21036      0.00000     0.78838    0.00126     0.78964
      H   44    0.20850      0.00000     0.79033    0.00118     0.79150
      H   45    0.20785      0.00000     0.79077    0.00138     0.79215
      H   46    0.20837      0.00000     0.78941    0.00222     0.79163
      C   47   -0.62825      1.99901     4.59039    0.03885     6.62825
      C   48   -0.12867      1.99898     4.10705    0.02264     6.12867
      H   49    0.20186      0.00000     0.79455    0.00359     0.79814
      C   50   -0.11140      1.99904     4.09127    0.02110     6.11140
      C   51   -0.15672      1.99915     4.13926    0.01831     6.15672
      C   52   -0.15663      1.99908     4.13879    0.01875     6.15663
      C   53   -0.20994      1.99909     4.19306    0.01779     6.20994
      H   54    0.20713      0.00000     0.79151    0.00135     0.79287
      C   55   -0.20182      1.99909     4.18534    0.01739     6.20182
      H   56    0.21914      0.00000     0.77813    0.00273     0.78086
      C   57    0.00419      1.99913     3.97839    0.01829     5.99581
      H   58    0.20598      0.00000     0.79266    0.00136     0.79402
      H   59    0.20395      0.00000     0.79433    0.00172     0.79605
      C   60   -0.61259      1.99941     4.60135    0.01183     6.61259
      H   61    0.21285      0.00000     0.78603    0.00112     0.78715
      H   62    0.21786      0.00000     0.78086    0.00128     0.78214
      H   63    0.21344      0.00000     0.78549    0.00108     0.78656
 =======================================================================
   * Total *    0.00000     85.96643   169.22179    0.81178   256.00000

 Normal termination of Gaussian 16 at Thu Jan 23 02:14:20 2025.
