 Gaussian 16, Revision B.01,
 Gaussian 16:  ES64L-G16RevB.01 20-Dec-2017

 --------------------------------------------
 # nmr=giao b3lyp/def2TZVP pop=nbo scfcyc=200
 --------------------------------------------

 --------------
 DS-23 SPE NoRh
 --------------
 Symbolic Z-matrix:
 Charge =  0 Multiplicity = 1

                         Standard orientation:
 ---------------------------------------------------------------------
 Center     Atomic      Atomic             Coordinates (Angstroms)
 Number     Number       Type             X           Y           Z
 ---------------------------------------------------------------------
      1         15           0        2.056662    0.002948   -0.889996
      2         15           0       -0.554078    0.197452   -1.817875
      3          6           0       -1.309636    2.706662   -0.744180
      4          6           0       -1.993903    3.918321   -0.756543
      5          6           0       -2.915943    4.192592   -1.760363
      6          6           0       -3.151972    3.250648   -2.757316
      7          6           0       -2.470771    2.038442   -2.749113
      8          6           0       -1.547686    1.751093   -1.734482
      9          1           0       -0.585928    2.505986    0.035754
     10          1           0       -1.804767    4.647606    0.020950
     11          1           0       -3.447009    5.136022   -1.768124
     12          1           0       -3.866690    3.457720   -3.543518
     13          1           0       -2.671281    1.315735   -3.529666
     14          6           0       -3.148024   -1.032179   -1.688894
     15          6           0       -4.015547   -2.114199   -1.814222
     16          6           0       -3.542777   -3.341178   -2.266652
     17          6           0       -2.197701   -3.484904   -2.597442
     18          6           0       -1.329798   -2.405423   -2.477350
     19          6           0       -1.794813   -1.168415   -2.015849
     20          1           0       -3.539536   -0.078281   -1.356589
     21          1           0       -5.062293   -1.993055   -1.565042
     22          1           0       -4.219657   -4.179737   -2.368399
     23          1           0       -1.826820   -4.435615   -2.958957
     24          1           0       -0.287646   -2.518354   -2.748990
     25          6           0        2.260824   -2.707244   -0.106318
     26          6           0        2.942618   -3.899186    0.117100
     27          6           0        4.327850   -3.946046   -0.000464
     28          6           0        5.030517   -2.795644   -0.344463
     29          6           0        4.352335   -1.601843   -0.567183
     30          6           0        2.960021   -1.543618   -0.440363
     31          1           0        1.182292   -2.683833   -0.019677
     32          1           0        2.390010   -4.790743    0.382979
     33          1           0        4.856890   -4.873824    0.175279
     34          1           0        6.109285   -2.824449   -0.438022
     35          1           0        4.917107   -0.714952   -0.829153
     36          6           0        2.874638    2.660545   -0.702637
     37          6           0        3.515576    3.762411   -0.147659
     38          6           0        4.297202    3.612252    0.994555
     39          6           0        4.433341    2.356719    1.577433
     40          6           0        3.787693    1.253489    1.027550
     41          6           0        2.998674    1.396079   -0.117835
     42          1           0        2.276309    2.779645   -1.599131
     43          1           0        3.411787    4.735879   -0.610728
     44          1           0        4.802842    4.467801    1.423248
     45          1           0        5.045807    2.232359    2.462033
     46          1           0        3.912182    0.284420    1.492090
     47          6           0        0.350784   -0.037122   -0.250476
     48          6           0       -0.124808   -0.190142    1.036399
     49          6           0        0.804096   -0.291784    2.213915
     50          1           0        0.364353   -0.884877    3.014643
     51          1           0        1.742078   -0.749357    1.915389
     52          1           0        1.031667    0.698508    2.614202
     53          7           0       -1.454628   -0.272879    1.281172
     54          1           0       -2.055839   -0.383194    0.476403
     55          6           0       -2.124789   -0.335383    2.540407
     56          6           0       -1.940455    0.651614    3.508708
     57          6           0       -3.027085   -1.374944    2.768616
     58          6           0       -2.635856    0.577929    4.710602
     59          1           0       -1.273142    1.481427    3.316425
     60          6           0       -3.731667   -1.430810    3.964834
     61          1           0       -3.166812   -2.138564    2.013075
     62          6           0       -3.532312   -0.460009    4.941505
     63          1           0       -2.486467    1.344879    5.460264
     64          1           0       -4.430839   -2.238892    4.136628
     65          1           0       -4.078011   -0.508432    5.875578
 ---------------------------------------------------------------------

 SCF Done:  E(RB3LYP) =  -2012.93628677     A.U. after   15 cycles

      1  P    Isotropic =   236.2014   Anisotropy =    64.1872

      2  P    Isotropic =   253.7489   Anisotropy =    45.5094

      3  C    Isotropic =    48.9810   Anisotropy =   185.2730

      4  C    Isotropic =    50.1163   Anisotropy =   182.2388

      5  C    Isotropic =    53.3070   Anisotropy =   179.4249

      6  C    Isotropic =    49.8586   Anisotropy =   183.0260

      7  C    Isotropic =    47.9846   Anisotropy =   185.3891

      8  C    Isotropic =    37.5517   Anisotropy =   191.8536

      9  H    Isotropic =    24.3398   Anisotropy =     8.9471

     10  H    Isotropic =    24.4776   Anisotropy =     6.9237

     11  H    Isotropic =    24.5610   Anisotropy =     4.1244

     12  H    Isotropic =    24.3373   Anisotropy =     5.1582

     13  H    Isotropic =    24.2431   Anisotropy =    10.9680

     14  C    Isotropic =    48.3037   Anisotropy =   184.2448

     15  C    Isotropic =    49.8598   Anisotropy =   182.9346

     16  C    Isotropic =    50.7558   Anisotropy =   184.4329

     17  C    Isotropic =    48.2170   Anisotropy =   185.1701

     18  C    Isotropic =    41.1152   Anisotropy =   185.2171

     19  C    Isotropic =    32.3572   Anisotropy =   206.6573

     20  H    Isotropic =    23.9410   Anisotropy =    11.3775

     21  H    Isotropic =    24.3785   Anisotropy =     6.1766

     22  H    Isotropic =    24.3221   Anisotropy =     3.9491

     23  H    Isotropic =    24.1094   Anisotropy =     5.8098

     24  H    Isotropic =    23.6452   Anisotropy =     9.1903

     25  C    Isotropic =    50.2610   Anisotropy =   183.6798

     26  C    Isotropic =    50.1004   Anisotropy =   181.9703

     27  C    Isotropic =    54.0640   Anisotropy =   178.1151

     28  C    Isotropic =    49.9362   Anisotropy =   182.4749

     29  C    Isotropic =    49.1641   Anisotropy =   183.4626

     30  C    Isotropic =    33.6237   Anisotropy =   192.8921

     31  H    Isotropic =    24.2587   Anisotropy =     9.5341

     32  H    Isotropic =    24.4327   Anisotropy =     7.0455

     33  H    Isotropic =    24.5862   Anisotropy =     4.1408

     34  H    Isotropic =    24.3703   Anisotropy =     5.4025

     35  H    Isotropic =    24.2916   Anisotropy =    11.5161

     36  C    Isotropic =    40.4300   Anisotropy =   184.4421

     37  C    Isotropic =    49.4806   Anisotropy =   183.5367

     38  C    Isotropic =    50.4922   Anisotropy =   184.6845

     39  C    Isotropic =    50.6294   Anisotropy =   181.1954

     40  C    Isotropic =    45.1214   Anisotropy =   188.6202

     41  C    Isotropic =    32.5753   Anisotropy =   205.5424

     42  H    Isotropic =    23.7843   Anisotropy =     8.9129

     43  H    Isotropic =    24.2365   Anisotropy =     5.8521

     44  H    Isotropic =    24.3538   Anisotropy =     3.9735

     45  H    Isotropic =    24.3981   Anisotropy =     6.1353

     46  H    Isotropic =    23.9079   Anisotropy =    11.1777

     47  C    Isotropic =    91.7680   Anisotropy =    61.2324

     48  C    Isotropic =    13.6556   Anisotropy =   164.9355

     49  C    Isotropic =   161.9665   Anisotropy =    15.1103

     50  H    Isotropic =    30.5651   Anisotropy =     6.4163

     51  H    Isotropic =    29.7249   Anisotropy =     8.1570

     52  H    Isotropic =    30.1997   Anisotropy =     6.6387

     53  N    Isotropic =   114.4657   Anisotropy =    51.3522

     54  H    Isotropic =    25.1192   Anisotropy =    11.3159

     55  C    Isotropic =    36.2360   Anisotropy =   148.4197

     56  C    Isotropic =    51.9486   Anisotropy =   168.3329

     57  C    Isotropic =    54.2136   Anisotropy =   161.2607

     58  C    Isotropic =    49.2760   Anisotropy =   184.4321

     59  H    Isotropic =    24.8624   Anisotropy =    10.0333

     60  C    Isotropic =    48.6372   Anisotropy =   185.1625

     61  H    Isotropic =    25.2201   Anisotropy =     9.3981

     62  C    Isotropic =    52.6193   Anisotropy =   182.8824

     63  H    Isotropic =    24.4731   Anisotropy =     6.4716

     64  H    Isotropic =    24.5057   Anisotropy =     6.1728

     65  H    Isotropic =    24.6026   Anisotropy =     4.0936

 The electronic state is 1-A.
 Alpha  occ. eigenvalues --  -77.04345 -77.04043 -14.36097 -10.24869 -10.23410
 Alpha  occ. eigenvalues --  -10.19266 -10.19231 -10.19208 -10.19153 -10.18881
 Alpha  occ. eigenvalues --  -10.18531 -10.18091 -10.18034 -10.18014 -10.17997
 Alpha  occ. eigenvalues --  -10.17982 -10.17974 -10.17882 -10.17854 -10.17842
 Alpha  occ. eigenvalues --  -10.17496 -10.17416 -10.17389 -10.17352 -10.17326
 Alpha  occ. eigenvalues --  -10.17316 -10.17260 -10.17247 -10.17096 -10.17095
 Alpha  occ. eigenvalues --  -10.17089 -10.17046 -10.16988 -10.16913 -10.16806
 Alpha  occ. eigenvalues --  -10.16723  -6.52849  -6.52544  -4.68994  -4.68973
 Alpha  occ. eigenvalues --   -4.68688  -4.68675  -4.68511  -4.68206  -0.97434
 Alpha  occ. eigenvalues --   -0.87219  -0.86245  -0.85706  -0.85397  -0.85154
 Alpha  occ. eigenvalues --   -0.80051  -0.76834  -0.76507  -0.76056  -0.75319
 Alpha  occ. eigenvalues --   -0.74785  -0.74721  -0.74581  -0.74347  -0.74302
 Alpha  occ. eigenvalues --   -0.73981  -0.71152  -0.65119  -0.63587  -0.63153
 Alpha  occ. eigenvalues --   -0.61553  -0.61139  -0.60606  -0.60412  -0.60158
 Alpha  occ. eigenvalues --   -0.59842  -0.59443  -0.58929  -0.56113  -0.56003
 Alpha  occ. eigenvalues --   -0.54594  -0.52191  -0.51747  -0.51497  -0.50402
 Alpha  occ. eigenvalues --   -0.49525  -0.48013  -0.46824  -0.45901  -0.45823
 Alpha  occ. eigenvalues --   -0.45476  -0.45350  -0.45289  -0.45021  -0.44931
 Alpha  occ. eigenvalues --   -0.44648  -0.44352  -0.43780  -0.43639  -0.42843
 Alpha  occ. eigenvalues --   -0.42392  -0.42094  -0.41922  -0.41524  -0.41075
 Alpha  occ. eigenvalues --   -0.40519  -0.40193  -0.39284  -0.38447  -0.37800
 Alpha  occ. eigenvalues --   -0.37585  -0.37209  -0.37058  -0.36861  -0.36811
 Alpha  occ. eigenvalues --   -0.35696  -0.35145  -0.34835  -0.34538  -0.34437
 Alpha  occ. eigenvalues --   -0.34294  -0.32643  -0.31968  -0.31457  -0.28170
 Alpha  occ. eigenvalues --   -0.27568  -0.27447  -0.26579  -0.26438  -0.26286
 Alpha  occ. eigenvalues --   -0.25906  -0.25785  -0.25435  -0.25263  -0.21997
 Alpha  occ. eigenvalues --   -0.21228  -0.17419
 Alpha virt. eigenvalues --   -0.04689  -0.03366  -0.02998  -0.02612  -0.02378
 Alpha virt. eigenvalues --   -0.01765  -0.01603  -0.01508  -0.00946  -0.00617
 Alpha virt. eigenvalues --   -0.00081   0.02337   0.04234   0.04517   0.05080

 Mulliken charges:
               1
     1  P    0.170495
     2  P    0.157412
     3  C   -0.154713
     4  C   -0.121235
     5  C   -0.113090
     6  C   -0.099483
     7  C   -0.227908
     8  C    0.048325
     9  H    0.137368
    10  H    0.102199
    11  H    0.105306
    12  H    0.107078
    13  H    0.121405
    14  C   -0.209460
    15  C   -0.121443
    16  C   -0.107720
    17  C   -0.101779
    18  C   -0.221548
    19  C    0.047164
    20  H    0.165060
    21  H    0.109987
    22  H    0.109887
    23  H    0.111798
    24  H    0.132721
    25  C   -0.183277
    26  C   -0.115506
    27  C   -0.115568
    28  C   -0.102195
    29  C   -0.231715
    30  C    0.025975
    31  H    0.152127
    32  H    0.102407
    33  H    0.104218
    34  H    0.106021
    35  H    0.127126
    36  C   -0.199495
    37  C   -0.107036
    38  C   -0.105571
    39  C   -0.115924
    40  C   -0.190802
    41  C    0.071390
    42  H    0.126232
    43  H    0.109066
    44  H    0.107652
    45  H    0.105818
    46  H    0.139238
    47  C   -0.218599
    48  C    0.070462
    49  C   -0.376489
    50  H    0.151850
    51  H    0.155450
    52  H    0.136438
    53  N   -0.186131
    54  H    0.204738
    55  C    0.224878
    56  C   -0.204946
    57  C   -0.241877
    58  C   -0.078793
    59  H    0.121957
    60  C   -0.082266
    61  H    0.140279
    62  C   -0.119576
    63  H    0.115759
    64  H    0.114732
    65  H    0.114125
 Sum of Mulliken charges =  -0.00000

 Dipole moment (field-independent basis, Debye):
    X=             -2.5769    Y=             -0.5287    Z=              4.2260  Tot=              4.9779
 Quadrupole moment (field-independent basis, Debye-Ang):
   XX=           -214.9478   YY=           -211.3870   ZZ=           -222.4547
   XY=              5.6332   XZ=              2.2900   YZ=              3.3273

 Summary of Natural Population Analysis:

                                       Natural Population
                Natural  -----------------------------------------------
    Atom  No    Charge         Core      Valence    Rydberg      Total
 -----------------------------------------------------------------------
      P    1    0.86227      9.99783     4.10624    0.03366    14.13773
      P    2    0.85323      9.99786     4.11439    0.03452    14.14677
      C    3   -0.21711      1.99908     4.19768    0.02034     6.21711
      C    4   -0.19828      1.99918     4.18036    0.01874     6.19828
      C    5   -0.21816      1.99919     4.19934    0.01964     6.21816
      C    6   -0.19923      1.99919     4.18140    0.01865     6.19923
      C    7   -0.21127      1.99909     4.19234    0.01984     6.21127
      C    8   -0.32829      1.99899     4.29657    0.03273     6.32829
      H    9    0.21263      0.00000     0.78525    0.00212     0.78737
      H   10    0.20575      0.00000     0.79296    0.00130     0.79425
      H   11    0.20665      0.00000     0.79217    0.00118     0.79335
      H   12    0.20747      0.00000     0.79126    0.00127     0.79253
      H   13    0.21118      0.00000     0.78708    0.00175     0.78882
      C   14   -0.23784      1.99908     4.21855    0.02020     6.23784
      C   15   -0.20261      1.99918     4.18434    0.01909     6.20261
      C   16   -0.20950      1.99919     4.19094    0.01938     6.20950
      C   17   -0.19739      1.99919     4.17964    0.01857     6.19739
      C   18   -0.19886      1.99909     4.17968    0.02009     6.19886
      C   19   -0.32272      1.99898     4.29054    0.03320     6.32272
      H   20    0.21531      0.00000     0.78240    0.00229     0.78469
      H   21    0.20789      0.00000     0.79078    0.00133     0.79211
      H   22    0.20841      0.00000     0.79042    0.00117     0.79159
      H   23    0.21005      0.00000     0.78869    0.00126     0.78995
      H   24    0.21777      0.00000     0.78042    0.00181     0.78223
      C   25   -0.22501      1.99909     4.20581    0.02012     6.22501
      C   26   -0.19825      1.99919     4.18030    0.01876     6.19825
      C   27   -0.22149      1.99919     4.20256    0.01974     6.22149
      C   28   -0.19731      1.99918     4.17946    0.01867     6.19731
      C   29   -0.21307      1.99909     4.19419    0.01979     6.21307
      C   30   -0.32594      1.99898     4.29499    0.03197     6.32594
      H   31    0.21155      0.00000     0.78638    0.00206     0.78845
      H   32    0.20545      0.00000     0.79325    0.00130     0.79455
      H   33    0.20616      0.00000     0.79265    0.00118     0.79384
      H   34    0.20714      0.00000     0.79159    0.00128     0.79286
      H   35    0.21253      0.00000     0.78570    0.00177     0.78747
      C   36   -0.19576      1.99909     4.17669    0.01997     6.19576
      C   37   -0.20388      1.99918     4.18602    0.01868     6.20388
      C   38   -0.20660      1.99919     4.18808    0.01933     6.20660
      C   39   -0.20776      1.99919     4.18953    0.01905     6.20776
      C   40   -0.20587      1.99908     4.18708    0.01972     6.20587
      C   41   -0.32415      1.99897     4.29272    0.03245     6.32415
      H   42    0.21741      0.00000     0.78081    0.00179     0.78259
      H   43    0.20895      0.00000     0.78979    0.00126     0.79105
      H   44    0.20704      0.00000     0.79178    0.00118     0.79296
      H   45    0.20604      0.00000     0.79262    0.00134     0.79396
      H   46    0.21011      0.00000     0.78755    0.00234     0.78989
      C   47   -0.80324      1.99899     4.76745    0.03679     6.80324
      C   48    0.29049      1.99891     3.68979    0.02081     5.70951
      C   49   -0.65382      1.99935     4.64040    0.01407     6.65382
      H   50    0.22529      0.00000     0.77353    0.00118     0.77471
      H   51    0.24056      0.00000     0.75784    0.00160     0.75944
      H   52    0.23206      0.00000     0.76665    0.00129     0.76794
      N   53   -0.55449      1.99936     5.53067    0.02445     7.55449
      H   54    0.41557      0.00000     0.58160    0.00283     0.58443
      C   55    0.12658      1.99889     3.85514    0.01939     5.87342
      C   56   -0.21784      1.99905     4.20040    0.01839     6.21784
      C   57   -0.21966      1.99906     4.20174    0.01886     6.21966
      C   58   -0.19215      1.99920     4.17427    0.01868     6.19215
      H   59    0.21489      0.00000     0.78352    0.00159     0.78511
      C   60   -0.19050      1.99920     4.17273    0.01857     6.19050
      H   61    0.21709      0.00000     0.78122    0.00169     0.78291
      C   62   -0.21191      1.99919     4.19351    0.01922     6.21191
      H   63    0.21226      0.00000     0.78655    0.00119     0.78774
      H   64    0.21230      0.00000     0.78652    0.00118     0.78770
      H   65    0.21188      0.00000     0.78701    0.00111     0.78812
 =======================================================================
   * Total *    0.00000     87.96575   175.19352    0.84072   264.00000

 Normal termination of Gaussian 16 at Thu Jan 23 02:39:12 2025.
