 Gaussian 16, Revision B.01,
 Gaussian 16:  ES64L-G16RevB.01 20-Dec-2017

 --------------------------------------------
 # nmr=giao b3lyp/def2TZVP pop=nbo scfcyc=200
 --------------------------------------------

 --------------
 DS-24 SPE NoRh
 --------------
 Symbolic Z-matrix:
 Charge =  0 Multiplicity = 1

                         Standard orientation:
 ---------------------------------------------------------------------
 Center     Atomic      Atomic             Coordinates (Angstroms)
 Number     Number       Type             X           Y           Z
 ---------------------------------------------------------------------
      1         15           0       -1.418608   -1.347487   -1.137401
      2         15           0        1.394259   -1.385575   -1.127224
      3          7           0        0.009215    1.026000    1.658261
      4          6           0       -2.400288    0.055260   -1.823213
      5          6           0       -2.129334    0.497195   -3.121993
      6          6           0       -2.814157    1.585846   -3.651225
      7          6           0       -3.776691    2.240137   -2.889920
      8          6           0       -4.051424    1.806104   -1.596551
      9          6           0       -3.369632    0.718101   -1.063149
     10          6           0       -2.576837   -2.196393    0.018487
     11          6           0       -3.815218   -2.632476   -0.467844
     12          6           0       -4.681942   -3.341341    0.355222
     13          6           0       -4.321618   -3.627505    1.669250
     14          6           0       -3.092413   -3.198838    2.157256
     15          6           0       -2.220701   -2.489884    1.335644
     16          6           0        2.402727   -0.011587   -1.832518
     17          6           0        3.303951    0.715232   -1.045052
     18          6           0        4.012178    1.777619   -1.595065
     19          6           0        3.830398    2.123751   -2.931785
     20          6           0        2.937350    1.405362   -3.718934
     21          6           0        2.226134    0.341851   -3.172357
     22          6           0        2.533425   -2.237205    0.045727
     23          6           0        2.108782   -2.629000    1.315667
     24          6           0        2.959162   -3.349829    2.149830
     25          6           0        4.235850   -3.692519    1.718821
     26          6           0        4.663272   -3.310589    0.450273
     27          6           0        3.818911   -2.589283   -0.384625
     28          6           0       -0.006737   -0.666930   -0.204702
     29          6           0        0.002152    0.275402    0.735945
     30          1           0       -1.381598   -0.013426   -3.716424
     31          1           0       -2.600564    1.918015   -4.659599
     32          1           0       -4.313802    3.084391   -3.304089
     33          1           0       -4.803264    2.311811   -1.002181
     34          1           0       -3.601240    0.382729   -0.060177
     35          1           0       -4.116910   -2.406125   -1.483256
     36          1           0       -5.640039   -3.668863   -0.029139
     37          1           0       -4.998092   -4.179597    2.309896
     38          1           0       -2.808591   -3.415241    3.179717
     39          1           0       -1.266613   -2.161090    1.723367
     40          1           0        3.464498    0.446342   -0.009088
     41          1           0        4.710550    2.332122   -0.980792
     42          1           0        4.388281    2.947541   -3.357663
     43          1           0        2.798735    1.668012   -4.760290
     44          1           0        1.532614   -0.219955   -3.787006
     45          1           0        1.116367   -2.369325    1.657567
     46          1           0        2.621610   -3.641511    3.136644
     47          1           0        4.896480   -4.252617    2.368564
     48          1           0        5.657624   -3.572114    0.110787
     49          1           0        4.171564   -2.288947   -1.363247
     50          6           0        0.022802    2.337377    2.125697
     51          6           0        0.037926    2.516617    3.521609
     52          6           0        0.019974    3.421027    1.223229
     53          6           0        0.052165    3.820506    4.007225
     54          6           0        0.034225    4.704501    1.762373
     55          6           0        0.050000    4.904414    3.137567
     56          1           0        0.063433    3.986704    5.077227
     57          1           0        0.032091    5.556367    1.093468
     58          1           0        0.059977    5.912477    3.533636
     59          6           0        0.002059    3.206394   -0.263449
     60          1           0        0.876019    2.643106   -0.599726
     61          1           0       -0.883537    2.649635   -0.579690
     62          1           0       -0.000431    4.162116   -0.786164
     63          6           0        0.038438    1.339064    4.457106
     64          1           0       -0.847356    0.716413    4.314230
     65          1           0        0.910023    0.701329    4.293939
     66          1           0        0.053579    1.673350    5.493771
 ---------------------------------------------------------------------

 SCF Done:  E(RB3LYP) =  -2051.04690162     A.U. after   15 cycles

      1  P    Isotropic =   216.3815   Anisotropy =   114.8640

      2  P    Isotropic =   213.5103   Anisotropy =   114.9422

      3  N    Isotropic =    88.4684   Anisotropy =   101.8955

      4  C    Isotropic =    30.9650   Anisotropy =   208.6509

      5  C    Isotropic =    41.7686   Anisotropy =   182.0474

      6  C    Isotropic =    50.3460   Anisotropy =   183.1667

      7  C    Isotropic =    49.7522   Anisotropy =   187.4256

      8  C    Isotropic =    49.4811   Anisotropy =   184.7508

      9  C    Isotropic =    42.6556   Anisotropy =   187.7871

     10  C    Isotropic =    32.2189   Anisotropy =   192.7902

     11  C    Isotropic =    48.6817   Anisotropy =   183.8326

     12  C    Isotropic =    49.8262   Anisotropy =   183.1926

     13  C    Isotropic =    52.9919   Anisotropy =   180.2653

     14  C    Isotropic =    50.4937   Anisotropy =   181.3082

     15  C    Isotropic =    47.7175   Anisotropy =   183.1706

     16  C    Isotropic =    31.2009   Anisotropy =   208.7401

     17  C    Isotropic =    41.6773   Anisotropy =   187.7569

     18  C    Isotropic =    49.0643   Anisotropy =   185.6258

     19  C    Isotropic =    49.3416   Anisotropy =   188.3795

     20  C    Isotropic =    50.3370   Anisotropy =   183.1243

     21  C    Isotropic =    41.4409   Anisotropy =   181.3230

     22  C    Isotropic =    31.0646   Anisotropy =   193.0011

     23  C    Isotropic =    48.3150   Anisotropy =   183.5087

     24  C    Isotropic =    50.5663   Anisotropy =   181.3202

     25  C    Isotropic =    53.3827   Anisotropy =   179.6926

     26  C    Isotropic =    50.0327   Anisotropy =   183.0234

     27  C    Isotropic =    49.2762   Anisotropy =   183.3314

     28  C    Isotropic =   150.2998   Anisotropy =    28.1077

     29  C    Isotropic =    24.7150   Anisotropy =   175.6422

     30  H    Isotropic =    23.4871   Anisotropy =     8.3060

     31  H    Isotropic =    24.2624   Anisotropy =     5.3855

     32  H    Isotropic =    24.4549   Anisotropy =     3.7418

     33  H    Isotropic =    24.6153   Anisotropy =     6.0284

     34  H    Isotropic =    24.3951   Anisotropy =    10.1431

     35  H    Isotropic =    24.5652   Anisotropy =    11.4446

     36  H    Isotropic =    24.4170   Anisotropy =     5.4561

     37  H    Isotropic =    24.4892   Anisotropy =     4.3181

     38  H    Isotropic =    24.1690   Anisotropy =     6.8362

     39  H    Isotropic =    23.4328   Anisotropy =    10.3143

     40  H    Isotropic =    24.2823   Anisotropy =     9.6324

     41  H    Isotropic =    24.5615   Anisotropy =     6.1086

     42  H    Isotropic =    24.3926   Anisotropy =     3.8340

     43  H    Isotropic =    24.1917   Anisotropy =     5.1963

     44  H    Isotropic =    23.4051   Anisotropy =     8.2665

     45  H    Isotropic =    23.4678   Anisotropy =    10.2972

     46  H    Isotropic =    24.2129   Anisotropy =     6.8004

     47  H    Isotropic =    24.5411   Anisotropy =     4.2730

     48  H    Isotropic =    24.4818   Anisotropy =     5.6230

     49  H    Isotropic =    24.6964   Anisotropy =    11.8210

     50  C    Isotropic =    45.8887   Anisotropy =   111.7771

     51  C    Isotropic =    37.9944   Anisotropy =   187.6200

     52  C    Isotropic =    33.9121   Anisotropy =   188.7692

     53  C    Isotropic =    50.5460   Anisotropy =   154.7210

     54  C    Isotropic =    49.8706   Anisotropy =   153.9758

     55  C    Isotropic =    50.2255   Anisotropy =   180.0559

     56  H    Isotropic =    24.6975   Anisotropy =     6.8575

     57  H    Isotropic =    24.9639   Anisotropy =     8.4323

     58  H    Isotropic =    24.7427   Anisotropy =     4.5600

     59  C    Isotropic =   162.0258   Anisotropy =    26.4697

     60  H    Isotropic =    31.2616   Anisotropy =    12.3408

     61  H    Isotropic =    31.4114   Anisotropy =    12.8156

     62  H    Isotropic =    30.9137   Anisotropy =     7.0990

     63  C    Isotropic =   161.6494   Anisotropy =    30.7496

     64  H    Isotropic =    29.1939   Anisotropy =     6.4763

     65  H    Isotropic =    29.2008   Anisotropy =     6.4353

     66  H    Isotropic =    29.8900   Anisotropy =     9.0441

 The electronic state is 1-A.
 Alpha  occ. eigenvalues --  -77.05066 -77.05064 -14.35973 -10.25877 -10.23549
 Alpha  occ. eigenvalues --  -10.20090 -10.19998 -10.18644 -10.18256 -10.18249
 Alpha  occ. eigenvalues --  -10.18229 -10.18183 -10.18113 -10.18059 -10.18013
 Alpha  occ. eigenvalues --  -10.17974 -10.17958 -10.17929 -10.17923 -10.17880
 Alpha  occ. eigenvalues --  -10.17872 -10.17872 -10.17849 -10.17830 -10.17770
 Alpha  occ. eigenvalues --  -10.17657 -10.17308 -10.17278 -10.17251 -10.17235
 Alpha  occ. eigenvalues --  -10.17212 -10.17201 -10.17176 -10.17154 -10.17081
 Alpha  occ. eigenvalues --  -10.17080 -10.16979  -6.53512  -6.53512  -4.69678
 Alpha  occ. eigenvalues --   -4.69677  -4.69606  -4.69606  -4.69183  -4.69183
 Alpha  occ. eigenvalues --   -0.97986  -0.87544  -0.86246  -0.86157  -0.85416
 Alpha  occ. eigenvalues --   -0.85338  -0.80035  -0.79383  -0.77397  -0.76297
 Alpha  occ. eigenvalues --   -0.75266  -0.75176  -0.74809  -0.74512  -0.74322
 Alpha  occ. eigenvalues --   -0.74267  -0.74089  -0.71626  -0.69326  -0.65282
 Alpha  occ. eigenvalues --   -0.63974  -0.63053  -0.61096  -0.60974  -0.60430
 Alpha  occ. eigenvalues --   -0.60368  -0.59844  -0.59752  -0.59481  -0.57605
 Alpha  occ. eigenvalues --   -0.56147  -0.55682  -0.52313  -0.51933  -0.51827
 Alpha  occ. eigenvalues --   -0.50047  -0.49978  -0.48570  -0.46744  -0.46047
 Alpha  occ. eigenvalues --   -0.45879  -0.45747  -0.45445  -0.45406  -0.45044
 Alpha  occ. eigenvalues --   -0.44964  -0.44489  -0.43732  -0.43143  -0.42847
 Alpha  occ. eigenvalues --   -0.42681  -0.42489  -0.42436  -0.42106  -0.42042
 Alpha  occ. eigenvalues --   -0.41621  -0.41253  -0.41145  -0.40539  -0.39626
 Alpha  occ. eigenvalues --   -0.38614  -0.38601  -0.37662  -0.37166  -0.37071
 Alpha  occ. eigenvalues --   -0.37039  -0.36403  -0.36008  -0.35926  -0.35368
 Alpha  occ. eigenvalues --   -0.35160  -0.34981  -0.34625  -0.34406  -0.32985
 Alpha  occ. eigenvalues --   -0.32685  -0.32247  -0.27670  -0.26946  -0.26822
 Alpha  occ. eigenvalues --   -0.26406  -0.26277  -0.26127  -0.25791  -0.25492
 Alpha  occ. eigenvalues --   -0.25395  -0.24969  -0.23177  -0.21902  -0.18468
 Alpha virt. eigenvalues --   -0.06261  -0.03559  -0.02680  -0.02613  -0.02467
 Alpha virt. eigenvalues --   -0.01911  -0.01860  -0.01276  -0.01094  -0.00506
 Alpha virt. eigenvalues --    0.00244   0.02401   0.02498   0.04155   0.04604

 Mulliken charges:
               1
     1  P    0.165748
     2  P    0.175445
     3  N   -0.060425
     4  C    0.019297
     5  C   -0.152823
     6  C   -0.118141
     7  C   -0.095976
     8  C   -0.115721
     9  C   -0.162091
    10  C    0.006771
    11  C   -0.171877
    12  C   -0.110435
    13  C   -0.101108
    14  C   -0.142677
    15  C   -0.120674
    16  C    0.035686
    17  C   -0.185206
    18  C   -0.102999
    19  C   -0.098876
    20  C   -0.112705
    21  C   -0.166506
    22  C    0.001222
    23  C   -0.112563
    24  C   -0.144076
    25  C   -0.098552
    26  C   -0.118308
    27  C   -0.167366
    28  C   -0.256756
    29  C    0.070903
    30  H    0.114657
    31  H    0.107483
    32  H    0.109952
    33  H    0.108475
    34  H    0.134728
    35  H    0.115230
    36  H    0.106681
    37  H    0.105609
    38  H    0.101771
    39  H    0.136098
    40  H    0.132024
    41  H    0.109267
    42  H    0.110705
    43  H    0.108272
    44  H    0.121971
    45  H    0.119434
    46  H    0.101129
    47  H    0.104953
    48  H    0.106014
    49  H    0.120252
    50  C    0.112756
    51  C    0.057926
    52  C    0.041779
    53  C   -0.147160
    54  C   -0.159018
    55  C   -0.108193
    56  H    0.100724
    57  H    0.102048
    58  H    0.109879
    59  C   -0.385952
    60  H    0.162162
    61  H    0.163293
    62  H    0.110748
    63  C   -0.364814
    64  H    0.128244
    65  H    0.129165
    66  H    0.112497
 Sum of Mulliken charges =  -0.00000

 Dipole moment (field-independent basis, Debye):
    X=              0.0314    Y=              4.1855    Z=              1.6362  Tot=              4.4941
 Quadrupole moment (field-independent basis, Debye-Ang):
   XX=           -222.7880   YY=           -225.9791   ZZ=           -212.8855
   XY=              0.8710   XZ=             -0.6114   YZ=             -8.1812

 Summary of Natural Population Analysis:

                                       Natural Population
                Natural  -----------------------------------------------
    Atom  No    Charge         Core      Valence    Rydberg      Total
 -----------------------------------------------------------------------
      P    1    0.89672      9.99789     4.07019    0.03520    14.10328
      P    2    0.89623      9.99790     4.07066    0.03522    14.10377
      N    3   -0.39684      1.99905     5.37164    0.02615     7.39684
      C    4   -0.33393      1.99899     4.30169    0.03325     6.33393
      C    5   -0.19130      1.99910     4.17221    0.01999     6.19130
      C    6   -0.20593      1.99918     4.18739    0.01935     6.20593
      C    7   -0.20235      1.99919     4.18394    0.01922     6.20235
      C    8   -0.20571      1.99919     4.18754    0.01899     6.20571
      C    9   -0.19990      1.99908     4.18098    0.01984     6.19990
      C   10   -0.32957      1.99899     4.29788    0.03269     6.32957
      C   11   -0.20476      1.99909     4.18610    0.01957     6.20476
      C   12   -0.19756      1.99919     4.17968    0.01869     6.19756
      C   13   -0.21562      1.99919     4.19686    0.01957     6.21562
      C   14   -0.19805      1.99919     4.18014    0.01872     6.19805
      C   15   -0.21263      1.99908     4.19373    0.01982     6.21263
      C   16   -0.33447      1.99899     4.30220    0.03328     6.33447
      C   17   -0.19882      1.99908     4.17988    0.01986     6.19882
      C   18   -0.20611      1.99919     4.18801    0.01891     6.20611
      C   19   -0.20077      1.99919     4.18245    0.01913     6.20077
      C   20   -0.20614      1.99918     4.18757    0.01939     6.20614
      C   21   -0.19117      1.99910     4.17188    0.02019     6.19117
      C   22   -0.32940      1.99899     4.29782    0.03259     6.32940
      C   23   -0.21230      1.99908     4.19330    0.01991     6.21230
      C   24   -0.19731      1.99919     4.17943    0.01869     6.19731
      C   25   -0.21675      1.99919     4.19796    0.01961     6.21675
      C   26   -0.19735      1.99919     4.17945    0.01871     6.19735
      C   27   -0.20687      1.99909     4.18824    0.01955     6.20687
      C   28   -0.93998      1.99884     4.90632    0.03483     6.93998
      C   29    0.51828      1.99882     3.46053    0.02237     5.48172
      H   30    0.21483      0.00000     0.78352    0.00165     0.78517
      H   31    0.20881      0.00000     0.78991    0.00127     0.79119
      H   32    0.20815      0.00000     0.79068    0.00117     0.79185
      H   33    0.20826      0.00000     0.79037    0.00136     0.79174
      H   34    0.21472      0.00000     0.78304    0.00224     0.78528
      H   35    0.21080      0.00000     0.78745    0.00175     0.78920
      H   36    0.20767      0.00000     0.79106    0.00127     0.79233
      H   37    0.20690      0.00000     0.79192    0.00117     0.79310
      H   38    0.20576      0.00000     0.79296    0.00129     0.79424
      H   39    0.20783      0.00000     0.79005    0.00212     0.79217
      H   40    0.21408      0.00000     0.78369    0.00223     0.78592
      H   41    0.20843      0.00000     0.79020    0.00137     0.79157
      H   42    0.20829      0.00000     0.79054    0.00117     0.79171
      H   43    0.20900      0.00000     0.78973    0.00127     0.79100
      H   44    0.21557      0.00000     0.78280    0.00163     0.78443
      H   45    0.20816      0.00000     0.78972    0.00212     0.79184
      H   46    0.20579      0.00000     0.79293    0.00129     0.79421
      H   47    0.20663      0.00000     0.79219    0.00118     0.79337
      H   48    0.20723      0.00000     0.79149    0.00127     0.79277
      H   49    0.21101      0.00000     0.78725    0.00174     0.78899
      C   50    0.09076      1.99871     3.88944    0.02109     5.90924
      C   51    0.01297      1.99905     3.96943    0.01854     5.98703
      C   52    0.00940      1.99903     3.97387    0.01770     5.99060
      C   53   -0.21147      1.99910     4.19423    0.01814     6.21147
      C   54   -0.20930      1.99911     4.19174    0.01845     6.20930
      C   55   -0.18086      1.99920     4.16262    0.01904     6.18086
      H   56    0.20803      0.00000     0.79070    0.00127     0.79197
      H   57    0.20829      0.00000     0.79035    0.00136     0.79171
      H   58    0.21009      0.00000     0.78878    0.00113     0.78991
      C   59   -0.62270      1.99941     4.61038    0.01292     6.62270
      H   60    0.22902      0.00000     0.76913    0.00185     0.77098
      H   61    0.22948      0.00000     0.76868    0.00185     0.77052
      H   62    0.21505      0.00000     0.78379    0.00116     0.78495
      C   63   -0.61236      1.99941     4.60087    0.01208     6.61236
      H   64    0.22252      0.00000     0.77616    0.00132     0.77748
      H   65    0.22294      0.00000     0.77573    0.00133     0.77706
      H   66    0.21055      0.00000     0.78842    0.00104     0.78945
 =======================================================================
   * Total *    0.00000     89.96442   179.18145    0.85413   270.00000

 Normal termination of Gaussian 16 at Thu Jan 23 02:42:34 2025.
