 Gaussian 16, Revision B.01,
 Gaussian 16:  ES64L-G16RevB.01 20-Dec-2017

 --------------------------------------------
 # nmr=giao b3lyp/def2TZVP pop=nbo scfcyc=200
 --------------------------------------------

 --------------
 DS-26 SPE NoRh
 --------------
 Symbolic Z-matrix:
 Charge =  0 Multiplicity = 1

                         Standard orientation:
 ---------------------------------------------------------------------
 Center     Atomic      Atomic             Coordinates (Angstroms)
 Number     Number       Type             X           Y           Z
 ---------------------------------------------------------------------
      1         15           0       -1.478182    0.326319   -1.454934
      2         15           0        1.297900    0.010193   -1.500691
      3          6           0        1.359016   -2.768096   -1.017184
      4          6           0        1.907162   -4.042682   -1.103102
      5          6           0        3.187467   -4.222394   -1.619265
      6          6           0        3.914768   -3.119620   -2.056066
      7          6           0        3.369266   -1.842655   -1.973206
      8          6           0        2.090015   -1.653138   -1.438692
      9          1           0        0.361824   -2.644471   -0.615436
     10          1           0        1.333447   -4.896354   -0.764847
     11          1           0        3.613946   -5.214675   -1.683970
     12          1           0        4.909692   -3.250954   -2.460540
     13          1           0        3.951283   -0.997225   -2.318542
     14          6           0        3.708663    1.014515   -0.330791
     15          6           0        4.638407    2.019989   -0.092331
     16          6           0        4.463185    3.285568   -0.641968
     17          6           0        3.351460    3.548471   -1.436022
     18          6           0        2.425045    2.542778   -1.689106
     19          6           0        2.594599    1.267850   -1.136927
     20          1           0        3.852369    0.041053    0.116018
     21          1           0        5.500088    1.812246    0.530059
     22          1           0        5.190708    4.064635   -0.452652
     23          1           0        3.211311    4.530271   -1.869017
     24          1           0        1.568345    2.743618   -2.321063
     25          6           0       -1.750696    2.976397   -0.515172
     26          6           0       -2.403227    4.198025   -0.387058
     27          6           0       -3.699196    4.353815   -0.869434
     28          6           0       -4.340035    3.283410   -1.483846
     29          6           0       -3.690845    2.060142   -1.614816
     30          6           0       -2.393319    1.891711   -1.119999
     31          1           0       -0.740614    2.871120   -0.140957
     32          1           0       -1.897338    5.027454    0.089326
     33          1           0       -4.206379    5.305489   -0.765807
     34          1           0       -5.347777    3.398381   -1.863213
     35          1           0       -4.206441    1.238449   -2.096192
     36          6           0       -2.464228   -2.225967   -1.982653
     37          6           0       -3.305993   -3.323186   -1.836073
     38          6           0       -4.378215   -3.265118   -0.951734
     39          6           0       -4.604682   -2.106822   -0.214069
     40          6           0       -3.759892   -1.011688   -0.352135
     41          6           0       -2.677571   -1.061858   -1.235661
     42          1           0       -1.639558   -2.267979   -2.683642
     43          1           0       -3.130217   -4.218089   -2.420180
     44          1           0       -5.039182   -4.114882   -0.843187
     45          1           0       -5.443650   -2.053389    0.468723
     46          1           0       -3.958808   -0.117593    0.223435
     47          6           0       -0.072870    0.132866   -0.245394
     48          6           0       -0.056277    0.222235    1.102139
     49          6           0        1.194079    0.125561    1.913846
     50          6           0        1.634077    1.244914    2.631079
     51          6           0        1.894989   -1.075367    2.046430
     52          6           0        2.761708    1.169935    3.436612
     53          1           0        1.101003    2.184868    2.546552
     54          6           0        3.014654   -1.153515    2.869753
     55          1           0        1.554504   -1.958755    1.525562
     56          6           0        3.453738   -0.031065    3.562116
     57          1           0        3.096091    2.049302    3.973930
     58          1           0        3.536905   -2.095793    2.973528
     59          1           0        4.324516   -0.093115    4.203681
     60          6           0       -1.302121    0.448202    1.925435
     61          1           0       -1.124923    1.313862    2.572894
     62          1           0       -2.147500    0.702720    1.290740
     63          6           0       -1.665280   -0.754856    2.818202
     64          1           0       -0.808858   -1.018337    3.443374
     65          1           0       -1.870133   -1.623969    2.183715
     66          6           0       -2.877358   -0.473177    3.710441
     67          1           0       -2.663914    0.396379    4.340929
     68          1           0       -3.733693   -0.195803    3.086996
     69          6           0       -3.252882   -1.663808    4.593028
     70          1           0       -2.429198   -1.939842    5.255996
     71          1           0       -4.117085   -1.433817    5.218681
     72          1           0       -3.502186   -2.540732    3.991207
 ---------------------------------------------------------------------

 SCF Done:  E(RB3LYP) =  -2075.52575844     A.U. after   15 cycles

      1  P    Isotropic =   224.8665   Anisotropy =    95.0009

      2  P    Isotropic =   224.5744   Anisotropy =    93.7677

      3  C    Isotropic =    48.5958   Anisotropy =   183.4162

      4  C    Isotropic =    50.2233   Anisotropy =   182.9083

      5  C    Isotropic =    54.0072   Anisotropy =   178.8511

      6  C    Isotropic =    50.1963   Anisotropy =   182.9777

      7  C    Isotropic =    50.9675   Anisotropy =   182.6436

      8  C    Isotropic =    30.1613   Anisotropy =   197.8913

      9  H    Isotropic =    24.1320   Anisotropy =     8.4369

     10  H    Isotropic =    24.3223   Anisotropy =     7.2192

     11  H    Isotropic =    24.5598   Anisotropy =     3.9961

     12  H    Isotropic =    24.4990   Anisotropy =     5.2370

     13  H    Isotropic =    24.5729   Anisotropy =    11.6568

     14  C    Isotropic =    44.7303   Anisotropy =   195.0040

     15  C    Isotropic =    50.6810   Anisotropy =   183.9383

     16  C    Isotropic =    50.2875   Anisotropy =   186.4054

     17  C    Isotropic =    50.1382   Anisotropy =   182.7642

     18  C    Isotropic =    40.5303   Anisotropy =   182.6164

     19  C    Isotropic =    37.2490   Anisotropy =   198.1888

     20  H    Isotropic =    25.3176   Anisotropy =     6.8466

     21  H    Isotropic =    24.9666   Anisotropy =     7.1028

     22  H    Isotropic =    24.5306   Anisotropy =     4.1704

     23  H    Isotropic =    24.3345   Anisotropy =     5.4607

     24  H    Isotropic =    23.8567   Anisotropy =     9.0705

     25  C    Isotropic =    49.9969   Anisotropy =   182.9445

     26  C    Isotropic =    49.7753   Anisotropy =   183.0230

     27  C    Isotropic =    53.6368   Anisotropy =   178.8922

     28  C    Isotropic =    49.6303   Anisotropy =   183.2797

     29  C    Isotropic =    50.4532   Anisotropy =   182.4413

     30  C    Isotropic =    34.2093   Anisotropy =   191.5051

     31  H    Isotropic =    24.1897   Anisotropy =     9.1695

     32  H    Isotropic =    24.3424   Anisotropy =     6.9284

     33  H    Isotropic =    24.5091   Anisotropy =     4.0598

     34  H    Isotropic =    24.3346   Anisotropy =     5.5838

     35  H    Isotropic =    24.3081   Anisotropy =    11.6839

     36  C    Isotropic =    39.0195   Anisotropy =   184.8910

     37  C    Isotropic =    49.5187   Anisotropy =   184.0922

     38  C    Isotropic =    49.3765   Anisotropy =   187.0823

     39  C    Isotropic =    49.6228   Anisotropy =   183.5913

     40  C    Isotropic =    44.7447   Anisotropy =   187.6173

     41  C    Isotropic =    35.2507   Anisotropy =   202.1938

     42  H    Isotropic =    23.5330   Anisotropy =     8.5531

     43  H    Isotropic =    24.0895   Anisotropy =     5.4648

     44  H    Isotropic =    24.2302   Anisotropy =     4.2127

     45  H    Isotropic =    24.2927   Anisotropy =     6.2675

     46  H    Isotropic =    23.6868   Anisotropy =     9.7687

     47  C    Isotropic =    43.0425   Anisotropy =   114.8388

     48  C    Isotropic =    -3.1704   Anisotropy =   196.7656

     49  C    Isotropic =    32.4085   Anisotropy =   184.3881

     50  C    Isotropic =    52.1314   Anisotropy =   180.4908

     51  C    Isotropic =    48.7899   Anisotropy =   182.3315

     52  C    Isotropic =    50.2365   Anisotropy =   187.5496

     53  H    Isotropic =    25.1569   Anisotropy =     7.4048

     54  C    Isotropic =    50.5088   Anisotropy =   186.7354

     55  H    Isotropic =    24.7008   Anisotropy =     5.6401

     56  C    Isotropic =    51.0763   Anisotropy =   186.7965

     57  H    Isotropic =    24.6690   Anisotropy =     4.3764

     58  H    Isotropic =    24.7567   Anisotropy =     7.2634

     59  H    Isotropic =    24.5459   Anisotropy =     3.6985

     60  C    Isotropic =   133.5278   Anisotropy =    30.3617

     61  H    Isotropic =    29.8534   Anisotropy =     3.6378

     62  H    Isotropic =    29.0072   Anisotropy =     7.8050

     63  C    Isotropic =   148.1443   Anisotropy =    34.0941

     64  H    Isotropic =    31.2346   Anisotropy =     8.2760

     65  H    Isotropic =    31.2653   Anisotropy =     3.8378

     66  C    Isotropic =   154.4099   Anisotropy =    24.9670

     67  H    Isotropic =    31.0525   Anisotropy =     6.2148

     68  H    Isotropic =    30.7324   Anisotropy =     4.4556

     69  C    Isotropic =   167.2730   Anisotropy =    29.8565

     70  H    Isotropic =    31.4693   Anisotropy =     8.6414

     71  H    Isotropic =    31.0003   Anisotropy =    11.7034

     72  H    Isotropic =    31.3746   Anisotropy =     7.3429

 The electronic state is 1-A.
 Alpha  occ. eigenvalues --  -77.04850 -77.04669 -10.21279 -10.19374 -10.19012
 Alpha  occ. eigenvalues --  -10.18622 -10.18510 -10.18430 -10.18338 -10.18207
 Alpha  occ. eigenvalues --  -10.18150 -10.18126 -10.18123 -10.18102 -10.18054
 Alpha  occ. eigenvalues --  -10.18045 -10.18044 -10.17977 -10.17967 -10.17791
 Alpha  occ. eigenvalues --  -10.17656 -10.17644 -10.17511 -10.17498 -10.17493
 Alpha  occ. eigenvalues --  -10.17438 -10.17415 -10.17405 -10.17398 -10.17375
 Alpha  occ. eigenvalues --  -10.17336 -10.17288 -10.17282 -10.17199 -10.17090
 Alpha  occ. eigenvalues --  -10.17071 -10.16953 -10.16050  -6.53388  -6.53211
 Alpha  occ. eigenvalues --   -4.69541  -4.69509  -4.69371  -4.69327  -4.69029
 Alpha  occ. eigenvalues --   -4.68855  -0.87414  -0.86341  -0.85883  -0.85645
 Alpha  occ. eigenvalues --   -0.85440  -0.82891  -0.79199  -0.76855  -0.76244
 Alpha  occ. eigenvalues --   -0.75550  -0.75359  -0.74915  -0.74831  -0.74704
 Alpha  occ. eigenvalues --   -0.74529  -0.74310  -0.74228  -0.72295  -0.66701
 Alpha  occ. eigenvalues --   -0.64087  -0.62958  -0.61659  -0.61386  -0.61200
 Alpha  occ. eigenvalues --   -0.60817  -0.60567  -0.60360  -0.60013  -0.59710
 Alpha  occ. eigenvalues --   -0.58690  -0.57593  -0.56056  -0.54102  -0.52250
 Alpha  occ. eigenvalues --   -0.51970  -0.51693  -0.50138  -0.49460  -0.47715
 Alpha  occ. eigenvalues --   -0.46579  -0.46425  -0.45966  -0.45767  -0.45574
 Alpha  occ. eigenvalues --   -0.45415  -0.45377  -0.45187  -0.45060  -0.44776
 Alpha  occ. eigenvalues --   -0.43847  -0.43484  -0.43178  -0.42891  -0.42744
 Alpha  occ. eigenvalues --   -0.42372  -0.42352  -0.42214  -0.41216  -0.40865
 Alpha  occ. eigenvalues --   -0.40520  -0.39127  -0.38416  -0.37942  -0.37589
 Alpha  occ. eigenvalues --   -0.37370  -0.37257  -0.36844  -0.36439  -0.36089
 Alpha  occ. eigenvalues --   -0.35828  -0.35318  -0.35143  -0.34795  -0.34762
 Alpha  occ. eigenvalues --   -0.34592  -0.34438  -0.33976  -0.33291  -0.33090
 Alpha  occ. eigenvalues --   -0.32335  -0.30617  -0.28467  -0.27996  -0.26962
 Alpha  occ. eigenvalues --   -0.26658  -0.26385  -0.26279  -0.25959  -0.25764
 Alpha  occ. eigenvalues --   -0.25585  -0.25385  -0.24991  -0.21671  -0.17548
 Alpha virt. eigenvalues --   -0.05944  -0.03440  -0.02753  -0.02561  -0.02198
 Alpha virt. eigenvalues --   -0.01841  -0.01707  -0.01442  -0.01202  -0.00713
 Alpha virt. eigenvalues --   -0.00456   0.02597   0.03497   0.04320   0.04765

 Mulliken charges:
               1
     1  P    0.172043
     2  P    0.176292
     3  C   -0.265961
     4  C   -0.112153
     5  C   -0.115464
     6  C   -0.110011
     7  C   -0.217271
     8  C    0.091364
     9  H    0.170379
    10  H    0.105317
    11  H    0.105119
    12  H    0.106973
    13  H    0.134363
    14  C   -0.163345
    15  C   -0.116602
    16  C   -0.099258
    17  C   -0.108895
    18  C   -0.203143
    19  C    0.050809
    20  H    0.166708
    21  H    0.103260
    22  H    0.107557
    23  H    0.109030
    24  H    0.126843
    25  C   -0.184411
    26  C   -0.120025
    27  C   -0.112603
    28  C   -0.108925
    29  C   -0.217435
    30  C    0.036111
    31  H    0.153328
    32  H    0.103779
    33  H    0.105542
    34  H    0.107334
    35  H    0.132630
    36  C   -0.210227
    37  C   -0.105675
    38  C   -0.101073
    39  C   -0.113384
    40  C   -0.201736
    41  C    0.071049
    42  H    0.135465
    43  H    0.112213
    44  H    0.110682
    45  H    0.108298
    46  H    0.149196
    47  C   -0.175636
    48  C    0.000703
    49  C    0.172422
    50  C   -0.136808
    51  C   -0.199229
    52  C   -0.136671
    53  H    0.114005
    54  C   -0.140272
    55  H    0.124120
    56  C   -0.088255
    57  H    0.107133
    58  H    0.112132
    59  H    0.110139
    60  C   -0.131070
    61  H    0.088939
    62  H    0.102132
    63  C   -0.221008
    64  H    0.112019
    65  H    0.111187
    66  C   -0.148412
    67  H    0.085339
    68  H    0.085755
    69  C   -0.333693
    70  H    0.104004
    71  H    0.111390
    72  H    0.105546
 Sum of Mulliken charges =  -0.00000

 Dipole moment (field-independent basis, Debye):
    X=              0.0694    Y=             -0.1891    Z=              3.2811  Tot=              3.2873
 Quadrupole moment (field-independent basis, Debye-Ang):
   XX=           -222.8862   YY=           -222.7987   ZZ=           -246.3845
   XY=              3.4440   XZ=              3.3657   YZ=              4.2292

 Summary of Natural Population Analysis:

                                       Natural Population
                Natural  -----------------------------------------------
    Atom  No    Charge         Core      Valence    Rydberg      Total
 -----------------------------------------------------------------------
      P    1    0.84110      9.99781     4.12780    0.03329    14.15890
      P    2    0.84488      9.99779     4.12397    0.03336    14.15512
      C    3   -0.22728      1.99908     4.20849    0.01970     6.22728
      C    4   -0.19793      1.99918     4.18042    0.01833     6.19793
      C    5   -0.22118      1.99919     4.20237    0.01962     6.22118
      C    6   -0.19508      1.99919     4.17741    0.01849     6.19508
      C    7   -0.21277      1.99909     4.19453    0.01915     6.21277
      C    8   -0.31528      1.99897     4.28518    0.03114     6.31528
      H    9    0.21283      0.00000     0.78505    0.00211     0.78717
      H   10    0.20696      0.00000     0.79176    0.00129     0.79304
      H   11    0.20684      0.00000     0.79198    0.00118     0.79316
      H   12    0.20765      0.00000     0.79109    0.00126     0.79235
      H   13    0.21427      0.00000     0.78409    0.00164     0.78573
      C   14   -0.19262      1.99907     4.17271    0.02084     6.19262
      C   15   -0.20516      1.99918     4.18638    0.01959     6.20516
      C   16   -0.20095      1.99919     4.18257    0.01919     6.20095
      C   17   -0.20725      1.99918     4.18944    0.01863     6.20725
      C   18   -0.19362      1.99910     4.17494    0.01958     6.19362
      C   19   -0.33124      1.99897     4.30045    0.03182     6.33124
      H   20    0.21921      0.00000     0.77819    0.00259     0.78079
      H   21    0.20729      0.00000     0.79136    0.00134     0.79271
      H   22    0.20700      0.00000     0.79183    0.00117     0.79300
      H   23    0.20897      0.00000     0.78978    0.00124     0.79103
      H   24    0.21631      0.00000     0.78194    0.00175     0.78369
      C   25   -0.21981      1.99908     4.20111    0.01961     6.21981
      C   26   -0.19608      1.99919     4.17837    0.01853     6.19608
      C   27   -0.21943      1.99919     4.20060    0.01964     6.21943
      C   28   -0.19589      1.99918     4.17811    0.01860     6.19589
      C   29   -0.21408      1.99909     4.19547    0.01953     6.21408
      C   30   -0.32417      1.99898     4.29390    0.03128     6.32417
      H   31    0.21062      0.00000     0.78726    0.00213     0.78938
      H   32    0.20667      0.00000     0.79205    0.00128     0.79333
      H   33    0.20721      0.00000     0.79161    0.00118     0.79279
      H   34    0.20799      0.00000     0.79074    0.00126     0.79201
      H   35    0.21320      0.00000     0.78504    0.00176     0.78680
      C   36   -0.19481      1.99910     4.17589    0.01982     6.19481
      C   37   -0.20375      1.99918     4.18601    0.01856     6.20375
      C   38   -0.20071      1.99919     4.18238    0.01914     6.20071
      C   39   -0.20591      1.99918     4.18796    0.01877     6.20591
      C   40   -0.20215      1.99907     4.18314    0.01994     6.20215
      C   41   -0.32741      1.99897     4.29634    0.03210     6.32741
      H   42    0.21933      0.00000     0.77883    0.00184     0.78067
      H   43    0.21057      0.00000     0.78818    0.00126     0.78943
      H   44    0.20862      0.00000     0.79020    0.00117     0.79138
      H   45    0.20792      0.00000     0.79074    0.00134     0.79208
      H   46    0.21087      0.00000     0.78672    0.00241     0.78913
      C   47   -0.61970      1.99884     4.58291    0.03795     6.61970
      C   48    0.09614      1.99887     3.87987    0.02512     5.90386
      C   49   -0.07217      1.99896     4.04914    0.02406     6.07217
      C   50   -0.19233      1.99906     4.17498    0.01829     6.19233
      C   51   -0.19405      1.99905     4.17673    0.01827     6.19405
      C   52   -0.19620      1.99919     4.17858    0.01844     6.19620
      H   53    0.20771      0.00000     0.79076    0.00153     0.79229
      C   54   -0.20156      1.99919     4.18341    0.01896     6.20156
      H   55    0.22083      0.00000     0.77669    0.00248     0.77917
      C   56   -0.20712      1.99919     4.18897    0.01896     6.20712
      H   57    0.21013      0.00000     0.78866    0.00121     0.78987
      H   58    0.21192      0.00000     0.78684    0.00124     0.78808
      H   59    0.20924      0.00000     0.78961    0.00115     0.79076
      C   60   -0.42915      1.99930     4.41433    0.01551     6.42915
      H   61    0.21077      0.00000     0.78678    0.00245     0.78923
      H   62    0.21761      0.00000     0.77990    0.00248     0.78239
      C   63   -0.37373      1.99940     4.36129    0.01305     6.37373
      H   64    0.19854      0.00000     0.79961    0.00184     0.80146
      H   65    0.19710      0.00000     0.80047    0.00243     0.80290
      C   66   -0.37388      1.99945     4.36159    0.01284     6.37388
      H   67    0.18985      0.00000     0.80851    0.00164     0.81015
      H   68    0.18689      0.00000     0.81134    0.00177     0.81311
      C   69   -0.58491      1.99947     4.57898    0.00645     6.58491
      H   70    0.19642      0.00000     0.80219    0.00140     0.80358
      H   71    0.20287      0.00000     0.79598    0.00115     0.79713
      H   72    0.19699      0.00000     0.80156    0.00145     0.80301
 =======================================================================
   * Total *   -0.00000     91.96436   187.17405    0.86159   280.00000

 Normal termination of Gaussian 16 at Thu Jan 23 03:36:03 2025.
