 Gaussian 16, Revision B.01,
 Gaussian 16:  ES64L-G16RevB.01 20-Dec-2017

 --------------------------------------------
 # nmr=giao b3lyp/def2TZVP pop=nbo scfcyc=200
 --------------------------------------------

 --------------
 DS-21 SPE NoRh
 --------------
 Symbolic Z-matrix:
 Charge =  0 Multiplicity = 1

                         Standard orientation:
 ---------------------------------------------------------------------
 Center     Atomic      Atomic             Coordinates (Angstroms)
 Number     Number       Type             X           Y           Z
 ---------------------------------------------------------------------
      1         15           0       -1.424897   -1.083851   -1.130277
      2         15           0        1.393600   -1.138429   -1.120313
      3          7           0        0.009573    0.761921    2.045197
      4          6           0       -2.357884    0.425986   -1.627736
      5          6           0       -2.095129    1.003590   -2.872483
      6          6           0       -2.741864    2.174377   -3.254752
      7          6           0       -3.657167    2.774443   -2.397053
      8          6           0       -3.924738    2.203801   -1.155672
      9          6           0       -3.279991    1.034033   -0.769936
     10          6           0       -2.611838   -2.048980   -0.104731
     11          6           0       -3.861377   -2.371091   -0.649144
     12          6           0       -4.754758   -3.159842    0.064421
     13          6           0       -4.410955   -3.640071    1.326235
     14          6           0       -3.171590   -3.324761    1.871142
     15          6           0       -2.273229   -2.536786    1.158351
     16          6           0        2.367442    0.337531   -1.637747
     17          6           0        3.197480    1.015243   -0.738431
     18          6           0        3.880473    2.155137   -1.143228
     19          6           0        3.744672    2.627018   -2.446633
     20          6           0        2.922825    1.956913   -3.345797
     21          6           0        2.235801    0.815498   -2.943728
     22          6           0        2.549957   -2.118336   -0.072937
     23          6           0        2.122628   -2.725563    1.109242
     24          6           0        2.990246   -3.534972    1.835648
     25          6           0        4.286762   -3.754016    1.382560
     26          6           0        4.716789   -3.158900    0.200584
     27          6           0        3.854260   -2.346144   -0.526774
     28          6           0       -0.010073   -0.563770   -0.093430
     29          6           0        0.001964    0.190448    0.993862
     30          1           0       -1.381219    0.536934   -3.541238
     31          1           0       -2.535538    2.613064   -4.223276
     32          1           0       -4.164683    3.682711   -2.695623
     33          1           0       -4.639719    2.667662   -0.486709
     34          1           0       -3.506389    0.591844    0.192437
     35          1           0       -4.149692   -1.992663   -1.622447
     36          1           0       -5.720523   -3.398016   -0.362449
     37          1           0       -5.108360   -4.253373    1.881607
     38          1           0       -2.901001   -3.690722    2.853410
     39          1           0       -1.312422   -2.295792    1.592802
     40          1           0        3.322925    0.649471    0.273376
     41          1           0        4.523175    2.673768   -0.442184
     42          1           0        4.281996    3.513532   -2.760358
     43          1           0        2.819308    2.319001   -4.361547
     44          1           0        1.594008    0.293476   -3.642390
     45          1           0        1.115110   -2.563323    1.469187
     46          1           0        2.651559   -3.993049    2.756489
     47          1           0        4.960336   -4.383904    1.949852
     48          1           0        5.726265   -3.322284   -0.155018
     49          1           0        4.208172   -1.877727   -1.437019
     50          6           0        0.032513    2.073366    2.544777
     51          6           0        0.042909    2.240569    3.929174
     52          6           0        0.044055    3.181655    1.691013
     53          6           0        0.066020    3.523296    4.462104
     54          1           0        0.033978    1.367889    4.567461
     55          6           0        0.066935    4.456768    2.235859
     56          1           0        0.035165    3.037744    0.618291
     57          6           0        0.077492    4.630262    3.619076
     58          1           0        0.074678    3.658096    5.536218
     59          1           0        0.075645    5.318312    1.581387
     60          1           0        0.095897    5.627885    4.037206
 ---------------------------------------------------------------------

 SCF Done:  E(RB3LYP) =  -1972.38494129     A.U. after   15 cycles

      1  P    Isotropic =   215.1118   Anisotropy =   116.4149

      2  P    Isotropic =   211.4451   Anisotropy =   117.9967

      3  N    Isotropic =    77.4670   Anisotropy =   110.1238

      4  C    Isotropic =    31.0577   Anisotropy =   207.4595

      5  C    Isotropic =    42.0513   Anisotropy =   181.3114

      6  C    Isotropic =    50.6149   Anisotropy =   182.2992

      7  C    Isotropic =    49.4680   Anisotropy =   187.7933

      8  C    Isotropic =    49.1561   Anisotropy =   184.6899

      9  C    Isotropic =    42.1240   Anisotropy =   187.5124

     10  C    Isotropic =    32.8438   Anisotropy =   191.6097

     11  C    Isotropic =    48.8075   Anisotropy =   184.8914

     12  C    Isotropic =    49.7758   Anisotropy =   183.8171

     13  C    Isotropic =    52.6258   Anisotropy =   180.5154

     14  C    Isotropic =    50.3831   Anisotropy =   181.4258

     15  C    Isotropic =    47.8300   Anisotropy =   182.8348

     16  C    Isotropic =    31.3180   Anisotropy =   207.4392

     17  C    Isotropic =    41.1886   Anisotropy =   186.7846

     18  C    Isotropic =    48.8034   Anisotropy =   185.7197

     19  C    Isotropic =    48.9868   Anisotropy =   188.4822

     20  C    Isotropic =    50.6618   Anisotropy =   182.1920

     21  C    Isotropic =    41.3361   Anisotropy =   181.0434

     22  C    Isotropic =    31.4433   Anisotropy =   191.8893

     23  C    Isotropic =    48.5731   Anisotropy =   183.3322

     24  C    Isotropic =    50.4355   Anisotropy =   181.4287

     25  C    Isotropic =    53.0496   Anisotropy =   179.6814

     26  C    Isotropic =    49.8650   Anisotropy =   183.3857

     27  C    Isotropic =    49.3527   Anisotropy =   184.2366

     28  C    Isotropic =   141.3400   Anisotropy =    32.7176

     29  C    Isotropic =    17.3602   Anisotropy =   179.1089

     30  H    Isotropic =    23.4892   Anisotropy =     8.2116

     31  H    Isotropic =    24.2693   Anisotropy =     5.5473

     32  H    Isotropic =    24.4367   Anisotropy =     4.0333

     33  H    Isotropic =    24.6519   Anisotropy =     6.0274

     34  H    Isotropic =    24.3445   Anisotropy =    10.2853

     35  H    Isotropic =    24.6050   Anisotropy =    11.3879

     36  H    Isotropic =    24.4098   Anisotropy =     5.5567

     37  H    Isotropic =    24.4902   Anisotropy =     4.3061

     38  H    Isotropic =    24.1767   Anisotropy =     6.5749

     39  H    Isotropic =    23.5387   Anisotropy =    10.3193

     40  H    Isotropic =    24.1963   Anisotropy =     9.6559

     41  H    Isotropic =    24.5872   Anisotropy =     6.0639

     42  H    Isotropic =    24.3591   Anisotropy =     4.0668

     43  H    Isotropic =    24.1887   Anisotropy =     5.2769

     44  H    Isotropic =    23.4146   Anisotropy =     8.1687

     45  H    Isotropic =    23.5783   Anisotropy =    10.3182

     46  H    Isotropic =    24.2311   Anisotropy =     6.5871

     47  H    Isotropic =    24.5465   Anisotropy =     4.2576

     48  H    Isotropic =    24.4845   Anisotropy =     5.7666

     49  H    Isotropic =    24.7721   Anisotropy =    11.8796

     50  C    Isotropic =    41.3501   Anisotropy =   134.2215

     51  C    Isotropic =    51.1472   Anisotropy =   165.4296

     52  C    Isotropic =    50.3010   Anisotropy =   169.3977

     53  C    Isotropic =    49.1156   Anisotropy =   184.9573

     54  H    Isotropic =    24.4974   Anisotropy =     8.2431

     55  C    Isotropic =    48.7166   Anisotropy =   184.7443

     56  H    Isotropic =    25.3023   Anisotropy =     7.3083

     57  C    Isotropic =    50.3588   Anisotropy =   186.4521

     58  H    Isotropic =    24.4395   Anisotropy =     5.1847

     59  H    Isotropic =    24.7996   Anisotropy =     7.1000

     60  H    Isotropic =    24.6217   Anisotropy =     4.4846

 The electronic state is 1-A.
 Alpha  occ. eigenvalues --  -77.05318 -77.05315 -14.35713 -10.25706 -10.24028
 Alpha  occ. eigenvalues --  -10.19325 -10.19237 -10.19206 -10.19172 -10.19065
 Alpha  occ. eigenvalues --  -10.18355 -10.18294 -10.18232 -10.18175 -10.18129
 Alpha  occ. eigenvalues --  -10.18074 -10.18040 -10.18017 -10.18011 -10.17998
 Alpha  occ. eigenvalues --  -10.17966 -10.17902 -10.17891 -10.17844 -10.17787
 Alpha  occ. eigenvalues --  -10.17391 -10.17327 -10.17320 -10.17281 -10.17255
 Alpha  occ. eigenvalues --  -10.17240 -10.17223 -10.17165 -10.17139 -10.17025
 Alpha  occ. eigenvalues --   -6.53772  -6.53771  -4.69947  -4.69945  -4.69861
 Alpha  occ. eigenvalues --   -4.69859  -4.69436  -4.69435  -0.97761  -0.87349
 Alpha  occ. eigenvalues --   -0.86309  -0.86194  -0.85489  -0.85408  -0.79491
 Alpha  occ. eigenvalues --   -0.77136  -0.76722  -0.76383  -0.75314  -0.75190
 Alpha  occ. eigenvalues --   -0.74802  -0.74583  -0.74383  -0.74337  -0.73868
 Alpha  occ. eigenvalues --   -0.66223  -0.64104  -0.63388  -0.62736  -0.61136
 Alpha  occ. eigenvalues --   -0.61003  -0.60500  -0.60445  -0.59906  -0.59825
 Alpha  occ. eigenvalues --   -0.57935  -0.56587  -0.56237  -0.52397  -0.52011
 Alpha  occ. eigenvalues --   -0.51946  -0.50915  -0.50027  -0.48414  -0.46815
 Alpha  occ. eigenvalues --   -0.45985  -0.45897  -0.45764  -0.45696  -0.45466
 Alpha  occ. eigenvalues --   -0.45351  -0.45033  -0.44762  -0.44318  -0.43532
 Alpha  occ. eigenvalues --   -0.43227  -0.42878  -0.42687  -0.42486  -0.42016
 Alpha  occ. eigenvalues --   -0.41429  -0.40626  -0.39497  -0.39258  -0.38146
 Alpha  occ. eigenvalues --   -0.37786  -0.37638  -0.37206  -0.37129  -0.36761
 Alpha  occ. eigenvalues --   -0.36343  -0.35886  -0.35211  -0.35036  -0.34677
 Alpha  occ. eigenvalues --   -0.34491  -0.33148  -0.32760  -0.32377  -0.27757
 Alpha  occ. eigenvalues --   -0.27570  -0.27107  -0.27010  -0.26458  -0.26380
 Alpha  occ. eigenvalues --   -0.26135  -0.25607  -0.25517  -0.25232  -0.23752
 Alpha  occ. eigenvalues --   -0.22158  -0.18722
 Alpha virt. eigenvalues --   -0.06537  -0.04074  -0.02948  -0.02744  -0.02599
 Alpha virt. eigenvalues --   -0.02450  -0.01861  -0.01463  -0.01159  -0.00558
 Alpha virt. eigenvalues --   -0.00199   0.02228   0.03468   0.04220   0.04729

 Mulliken charges:
               1
     1  P    0.171492
     2  P    0.181511
     3  N   -0.078458
     4  C    0.032138
     5  C   -0.158235
     6  C   -0.115956
     7  C   -0.095520
     8  C   -0.117762
     9  C   -0.156032
    10  C    0.009634
    11  C   -0.173423
    12  C   -0.110998
    13  C   -0.101653
    14  C   -0.138661
    15  C   -0.125728
    16  C    0.041338
    17  C   -0.170946
    18  C   -0.108295
    19  C   -0.096942
    20  C   -0.110725
    21  C   -0.170221
    22  C    0.002991
    23  C   -0.116237
    24  C   -0.140871
    25  C   -0.098036
    26  C   -0.121750
    27  C   -0.165615
    28  C   -0.299348
    29  C    0.105405
    30  H    0.114585
    31  H    0.107716
    32  H    0.110053
    33  H    0.108452
    34  H    0.136116
    35  H    0.115554
    36  H    0.106983
    37  H    0.106263
    38  H    0.103408
    39  H    0.137981
    40  H    0.133240
    41  H    0.109445
    42  H    0.110770
    43  H    0.108684
    44  H    0.121690
    45  H    0.119512
    46  H    0.102392
    47  H    0.105350
    48  H    0.106244
    49  H    0.121903
    50  C    0.226301
    51  C   -0.216549
    52  C   -0.218066
    53  C   -0.067329
    54  H    0.117023
    55  C   -0.075383
    56  H    0.148889
    57  C   -0.124066
    58  H    0.115773
    59  H    0.118394
    60  H    0.115572
 Sum of Mulliken charges =  -0.00000

 Dipole moment (field-independent basis, Debye):
    X=              0.0508    Y=              4.0584    Z=              1.8404  Tot=              4.4565
 Quadrupole moment (field-independent basis, Debye-Ang):
   XX=           -209.4560   YY=           -206.9456   ZZ=           -201.8260
   XY=              1.2672   XZ=             -0.6431   YZ=             -6.9891

 Summary of Natural Population Analysis:

                                       Natural Population
                Natural  -----------------------------------------------
    Atom  No    Charge         Core      Valence    Rydberg      Total
 -----------------------------------------------------------------------
      P    1    0.89383      9.99791     4.07336    0.03490    14.10617
      P    2    0.89352      9.99792     4.07366    0.03490    14.10648
      N    3   -0.40499      1.99905     5.37730    0.02864     7.40499
      C    4   -0.33492      1.99899     4.30269    0.03325     6.33492
      C    5   -0.18997      1.99910     4.17078    0.02010     6.18997
      C    6   -0.20617      1.99918     4.18763    0.01935     6.20617
      C    7   -0.20020      1.99919     4.18187    0.01915     6.20020
      C    8   -0.20401      1.99919     4.18589    0.01893     6.20401
      C    9   -0.19482      1.99908     4.17597    0.01977     6.19482
      C   10   -0.33026      1.99899     4.29879    0.03247     6.33026
      C   11   -0.20429      1.99909     4.18565    0.01956     6.20429
      C   12   -0.19731      1.99919     4.17947    0.01866     6.19731
      C   13   -0.21432      1.99919     4.19564    0.01949     6.21432
      C   14   -0.19715      1.99919     4.17928    0.01868     6.19715
      C   15   -0.21152      1.99908     4.19268    0.01976     6.21152
      C   16   -0.33610      1.99899     4.30376    0.03334     6.33610
      C   17   -0.19383      1.99908     4.17493    0.01982     6.19383
      C   18   -0.20443      1.99919     4.18633    0.01891     6.20443
      C   19   -0.19867      1.99919     4.18039    0.01909     6.19867
      C   20   -0.20663      1.99918     4.18806    0.01939     6.20663
      C   21   -0.18977      1.99910     4.17042    0.02026     6.18977
      C   22   -0.32999      1.99899     4.29861    0.03239     6.32999
      C   23   -0.21056      1.99908     4.19163    0.01984     6.21056
      C   24   -0.19621      1.99919     4.17838    0.01864     6.19621
      C   25   -0.21576      1.99919     4.19701    0.01956     6.21576
      C   26   -0.19696      1.99919     4.17908    0.01869     6.19696
      C   27   -0.20687      1.99909     4.18827    0.01952     6.20687
      C   28   -0.90582      1.99881     4.87242    0.03458     6.90582
      C   29    0.50704      1.99883     3.47160    0.02252     5.49296
      H   30    0.21513      0.00000     0.78324    0.00164     0.78487
      H   31    0.20888      0.00000     0.78985    0.00127     0.79112
      H   32    0.20791      0.00000     0.79092    0.00117     0.79209
      H   33    0.20823      0.00000     0.79042    0.00136     0.79177
      H   34    0.21425      0.00000     0.78356    0.00220     0.78575
      H   35    0.21090      0.00000     0.78735    0.00175     0.78910
      H   36    0.20785      0.00000     0.79088    0.00127     0.79215
      H   37    0.20704      0.00000     0.79179    0.00117     0.79296
      H   38    0.20662      0.00000     0.79210    0.00128     0.79338
      H   39    0.20857      0.00000     0.78941    0.00202     0.79143
      H   40    0.21355      0.00000     0.78427    0.00218     0.78645
      H   41    0.20857      0.00000     0.79007    0.00136     0.79143
      H   42    0.20828      0.00000     0.79055    0.00117     0.79172
      H   43    0.20912      0.00000     0.78961    0.00127     0.79088
      H   44    0.21597      0.00000     0.78242    0.00161     0.78403
      H   45    0.20852      0.00000     0.78943    0.00205     0.79148
      H   46    0.20658      0.00000     0.79214    0.00128     0.79342
      H   47    0.20682      0.00000     0.79201    0.00118     0.79318
      H   48    0.20745      0.00000     0.79128    0.00127     0.79255
      H   49    0.21129      0.00000     0.78696    0.00175     0.78871
      C   50    0.10026      1.99883     3.87816    0.02275     5.89974
      C   51   -0.18958      1.99909     4.17124    0.01925     6.18958
      C   52   -0.20349      1.99907     4.18579    0.01864     6.20349
      C   53   -0.19903      1.99920     4.18080    0.01903     6.19903
      H   54    0.22194      0.00000     0.77671    0.00135     0.77806
      C   55   -0.19385      1.99921     4.17604    0.01861     6.19385
      H   56    0.22260      0.00000     0.77579    0.00161     0.77740
      C   57   -0.20103      1.99920     4.18277    0.01906     6.20103
      H   58    0.21295      0.00000     0.78591    0.00113     0.78705
      H   59    0.21354      0.00000     0.78523    0.00123     0.78646
      H   60    0.21129      0.00000     0.78760    0.00111     0.78871
 =======================================================================
   * Total *   -0.00000     85.96602   167.20583    0.82815   254.00000

 Normal termination of Gaussian 16 at Thu Jan 23 02:24:34 2025.
