 Gaussian 16, Revision B.01,
 Gaussian 16:  ES64L-G16RevB.01 20-Dec-2017

 --------------------------------------------
 # nmr=giao b3lyp/def2TZVP pop=nbo scfcyc=200
 --------------------------------------------

 --------------
 DS-38 SPE NoRh
 --------------
 Symbolic Z-matrix:
 Charge =  0 Multiplicity = 1

                         Standard orientation:
 ---------------------------------------------------------------------
 Center     Atomic      Atomic             Coordinates (Angstroms)
 Number     Number       Type             X           Y           Z
 ---------------------------------------------------------------------
      1         15           0        1.563418   -0.548092   -0.993244
      2         15           0       -1.236311   -0.669688   -0.993647
      3          6           0       -2.743154    0.327795   -1.093408
      4          1           0       -2.807965    1.275550   -1.608119
      5          6           0       -3.768759   -0.328088   -0.515247
      6          6           0       -3.383166   -1.621458    0.124601
      7          6           0       -2.069943   -1.913714    0.025804
      8          1           0       -1.606313   -2.815367    0.398395
      9          6           0        3.724960   -1.309555    0.235783
     10          6           0        2.452441   -1.719478    0.066442
     11          1           0        2.052198   -2.660859    0.413951
     12          6           0        4.025585    0.018494   -0.383001
     13          6           0        2.980485    0.575024   -1.026324
     14          1           0        2.978958    1.530369   -1.527339
     15          6           0        5.381528    0.642660   -0.267572
     16          1           0        5.659662    0.789242    0.779341
     17          1           0        6.148690    0.002412   -0.712307
     18          1           0        5.414123    1.609252   -0.766818
     19          6           0        4.777364   -2.081279    0.970228
     20          1           0        5.621053   -2.317638    0.315713
     21          1           0        5.178368   -1.501818    1.805989
     22          1           0        4.380356   -3.015891    1.363798
     23          6           0       -5.183145    0.164784   -0.487396
     24          1           0       -5.855543   -0.542900   -0.979424
     25          1           0       -5.539773    0.277285    0.539853
     26          1           0       -5.274945    1.126704   -0.987618
     27          6           0       -4.398617   -2.487432    0.804829
     28          1           0       -4.895947   -1.949111    1.614814
     29          1           0       -5.180161   -2.800272    0.106058
     30          1           0       -3.938916   -3.381820    1.222285
     31          6           0        0.136497    0.280561   -0.008674
     32          6           0        0.168611    0.203029    1.504484
     33          6           0       -0.903729    1.106349    2.110725
     34          1           0        1.160693    0.522761    1.844418
     35          1           0        0.040827   -0.832154    1.820874
     36          6           0       -0.694382    2.544404    1.639168
     37          1           0       -0.859614    1.063848    3.200107
     38          1           0       -1.895613    0.754820    1.819913
     39          1           0       -1.525052    3.197161    1.902035
     40          1           0        0.196867    2.969973    2.114955
     41          6           0       -0.467012    2.691222    0.152225
     42          8           0        0.104687    1.618234   -0.520378
     43          8           0       -0.676181    3.682421   -0.478811
 ---------------------------------------------------------------------

 SCF Done:  E(RB3LYP) =  -1494.51231407     A.U. after   18 cycles

      1  P    Isotropic =   209.4540   Anisotropy =    72.2053

      2  P    Isotropic =   206.4901   Anisotropy =    84.5951

      3  C    Isotropic =    49.6811   Anisotropy =   151.3545

      4  H    Isotropic =    25.0453   Anisotropy =     5.5406

      5  C    Isotropic =    30.0987   Anisotropy =   158.8703

      6  C    Isotropic =    26.8542   Anisotropy =   158.8213

      7  C    Isotropic =    54.3268   Anisotropy =   147.6813

      8  H    Isotropic =    25.3469   Anisotropy =     5.2587

      9  C    Isotropic =    25.5651   Anisotropy =   158.1001

     10  C    Isotropic =    56.0627   Anisotropy =   144.8120

     11  H    Isotropic =    25.4464   Anisotropy =     5.2035

     12  C    Isotropic =    27.4901   Anisotropy =   159.6514

     13  C    Isotropic =    51.2515   Anisotropy =   147.1703

     14  H    Isotropic =    25.1789   Anisotropy =     5.7304

     15  C    Isotropic =   163.7639   Anisotropy =    30.1138

     16  H    Isotropic =    29.8952   Anisotropy =     7.1222

     17  H    Isotropic =    29.8094   Anisotropy =     8.0417

     18  H    Isotropic =    29.8152   Anisotropy =     6.5924

     19  C    Isotropic =   163.4600   Anisotropy =    30.3346

     20  H    Isotropic =    29.7571   Anisotropy =     8.0482

     21  H    Isotropic =    29.8362   Anisotropy =     7.1355

     22  H    Isotropic =    29.7976   Anisotropy =     6.4337

     23  C    Isotropic =   164.0076   Anisotropy =    30.0017

     24  H    Isotropic =    29.8457   Anisotropy =     8.2756

     25  H    Isotropic =    29.9712   Anisotropy =     6.9404

     26  H    Isotropic =    29.8343   Anisotropy =     6.5322

     27  C    Isotropic =   163.4621   Anisotropy =    30.6199

     28  H    Isotropic =    29.8811   Anisotropy =     7.0219

     29  H    Isotropic =    29.7571   Anisotropy =     8.1625

     30  H    Isotropic =    29.8055   Anisotropy =     6.5653

     31  C    Isotropic =    78.6186   Anisotropy =    33.7482

     32  C    Isotropic =   146.4263   Anisotropy =    11.4231

     33  C    Isotropic =   160.3448   Anisotropy =    13.4630

     34  H    Isotropic =    30.4310   Anisotropy =     7.2933

     35  H    Isotropic =    29.9525   Anisotropy =     3.5727

     36  C    Isotropic =   149.2337   Anisotropy =    20.3042

     37  H    Isotropic =    30.6368   Anisotropy =     9.8912

     38  H    Isotropic =    30.9332   Anisotropy =     7.7764

     39  H    Isotropic =    29.7359   Anisotropy =     7.7332

     40  H    Isotropic =    29.8655   Anisotropy =     7.4426

     41  C    Isotropic =    11.5618   Anisotropy =    88.6337

     42  O    Isotropic =    84.9629   Anisotropy =   199.6874

     43  O    Isotropic =  -124.8255   Anisotropy =   571.0988

 The electronic state is 1-A.
 Alpha  occ. eigenvalues --  -77.05340 -77.05211 -19.17487 -19.11743 -10.30824
 Alpha  occ. eigenvalues --  -10.26685 -10.19726 -10.19154 -10.19003 -10.18995
 Alpha  occ. eigenvalues --  -10.18893 -10.18743 -10.18721 -10.17522 -10.17489
 Alpha  occ. eigenvalues --  -10.17253 -10.17211 -10.17051 -10.16953 -10.16685
 Alpha  occ. eigenvalues --  -10.16502  -6.53928  -6.53805  -4.70072  -4.70021
 Alpha  occ. eigenvalues --   -4.69959  -4.69897  -4.69619  -4.69485  -1.10360
 Alpha  occ. eigenvalues --   -1.03081  -0.85196  -0.85013  -0.82731  -0.77855
 Alpha  occ. eigenvalues --   -0.76036  -0.75989  -0.73380  -0.73163  -0.68774
 Alpha  occ. eigenvalues --   -0.67314  -0.67236  -0.64143  -0.62089  -0.61435
 Alpha  occ. eigenvalues --   -0.56609  -0.55095  -0.53163  -0.50545  -0.50187
 Alpha  occ. eigenvalues --   -0.49746  -0.48932  -0.47911  -0.47248  -0.46238
 Alpha  occ. eigenvalues --   -0.45269  -0.44894  -0.44063  -0.44038  -0.43643
 Alpha  occ. eigenvalues --   -0.41691  -0.41520  -0.41114  -0.41075  -0.40557
 Alpha  occ. eigenvalues --   -0.40489  -0.40035  -0.39968  -0.39296  -0.36735
 Alpha  occ. eigenvalues --   -0.36457  -0.36067  -0.35265  -0.35152  -0.34063
 Alpha  occ. eigenvalues --   -0.33861  -0.33566  -0.32904  -0.32222  -0.28682
 Alpha  occ. eigenvalues --   -0.26691  -0.23887  -0.23437  -0.23281  -0.20388
 Alpha virt. eigenvalues --   -0.05946  -0.03610  -0.01320  -0.00379   0.01941
 Alpha virt. eigenvalues --    0.02533   0.03658   0.04075   0.04819   0.04872
 Alpha virt. eigenvalues --    0.06451   0.06538   0.07001   0.07230   0.07331

 Mulliken charges:
               1
     1  P    0.211362
     2  P    0.206430
     3  C   -0.302262
     4  H    0.134358
     5  C    0.080151
     6  C    0.032242
     7  C   -0.256957
     8  H    0.113736
     9  C    0.030830
    10  C   -0.245946
    11  H    0.113551
    12  C    0.086016
    13  C   -0.284131
    14  H    0.123676
    15  C   -0.359565
    16  H    0.115800
    17  H    0.117192
    18  H    0.120935
    19  C   -0.360909
    20  H    0.120342
    21  H    0.117514
    22  H    0.115607
    23  C   -0.359346
    24  H    0.118499
    25  H    0.114230
    26  H    0.122933
    27  C   -0.360021
    28  H    0.117046
    29  H    0.120450
    30  H    0.115628
    31  C    0.154471
    32  C   -0.198580
    33  C   -0.159998
    34  H    0.117072
    35  H    0.101486
    36  C   -0.203495
    37  H    0.102105
    38  H    0.131393
    39  H    0.124385
    40  H    0.116198
    41  C    0.228304
    42  O   -0.271183
    43  O   -0.261545
 Sum of Mulliken charges =  -0.00000

 Dipole moment (field-independent basis, Debye):
    X=              0.1059    Y=             -2.2095    Z=              4.9084  Tot=              5.3838
 Quadrupole moment (field-independent basis, Debye-Ang):
   XX=           -121.5178   YY=           -149.2779   ZZ=           -143.0940
   XY=              2.5527   XZ=             -0.0728   YZ=              1.8548

 Summary of Natural Population Analysis:

                                       Natural Population
                Natural  -----------------------------------------------
    Atom  No    Charge         Core      Valence    Rydberg      Total
 -----------------------------------------------------------------------
      P    1    0.83603      9.99822     4.12794    0.03782    14.16397
      P    2    0.81593      9.99818     4.14567    0.04022    14.18407
      C    3   -0.52092      1.99894     4.49519    0.02679     6.52092
      H    4    0.23456      0.00000     0.76366    0.00178     0.76544
      C    5   -0.02904      1.99900     4.00822    0.02182     6.02904
      C    6   -0.02228      1.99901     4.00132    0.02194     6.02228
      C    7   -0.53495      1.99894     4.50936    0.02665     6.53495
      H    8    0.22178      0.00000     0.77647    0.00176     0.77822
      C    9   -0.01929      1.99901     3.99811    0.02217     6.01929
      C   10   -0.52866      1.99894     4.50316    0.02657     6.52866
      H   11    0.22126      0.00000     0.77691    0.00183     0.77874
      C   12   -0.02632      1.99901     4.00514    0.02216     6.02632
      C   13   -0.50698      1.99894     4.48052    0.02751     6.50698
      H   14    0.23185      0.00000     0.76639    0.00176     0.76815
      C   15   -0.62000      1.99939     4.60785    0.01277     6.62000
      H   16    0.21232      0.00000     0.78626    0.00142     0.78768
      H   17    0.21148      0.00000     0.78683    0.00169     0.78852
      H   18    0.21736      0.00000     0.78149    0.00115     0.78264
      C   19   -0.62011      1.99939     4.60796    0.01276     6.62011
      H   20    0.21320      0.00000     0.78511    0.00169     0.78680
      H   21    0.21394      0.00000     0.78466    0.00140     0.78606
      H   22    0.21458      0.00000     0.78425    0.00117     0.78542
      C   23   -0.61933      1.99939     4.60730    0.01264     6.61933
      H   24    0.21194      0.00000     0.78640    0.00165     0.78806
      H   25    0.21170      0.00000     0.78686    0.00144     0.78830
      H   26    0.21800      0.00000     0.78087    0.00113     0.78200
      C   27   -0.61943      1.99939     4.60736    0.01269     6.61943
      H   28    0.21347      0.00000     0.78512    0.00141     0.78653
      H   29    0.21329      0.00000     0.78503    0.00168     0.78671
      H   30    0.21455      0.00000     0.78431    0.00115     0.78545
      C   31   -0.15736      1.99932     4.11516    0.04288     6.15736
      C   32   -0.44589      1.99928     4.42955    0.01706     6.44589
      C   33   -0.38848      1.99941     4.37441    0.01466     6.38848
      H   34    0.20841      0.00000     0.78859    0.00300     0.79159
      H   35    0.22965      0.00000     0.76904    0.00132     0.77035
      C   36   -0.50823      1.99927     4.49286    0.01610     6.50823
      H   37    0.21082      0.00000     0.78772    0.00145     0.78918
      H   38    0.21178      0.00000     0.78582    0.00240     0.78822
      H   39    0.23827      0.00000     0.76047    0.00125     0.76173
      H   40    0.23141      0.00000     0.76731    0.00129     0.76859
      C   41    0.77870      1.99934     3.18628    0.03568     5.22130
      O   42   -0.53560      1.99972     6.50741    0.02847     8.53560
      O   43   -0.53340      1.99973     6.50577    0.02790     8.53340
 =======================================================================
   * Total *    0.00000     57.98181   111.47613    0.54206   170.00000

 Normal termination of Gaussian 16 at Thu Jan 23 03:04:46 2025.
