 Gaussian 16, Revision B.01,
 Gaussian 16:  ES64L-G16RevB.01 20-Dec-2017

 --------------------------------------------
 # nmr=giao b3lyp/def2TZVP pop=nbo scfcyc=200
 --------------------------------------------

 --------------
 DS-39 SPE NoRh
 --------------
 Symbolic Z-matrix:
 Charge =  0 Multiplicity = 1

                         Standard orientation:
 ---------------------------------------------------------------------
 Center     Atomic      Atomic             Coordinates (Angstroms)
 Number     Number       Type             X           Y           Z
 ---------------------------------------------------------------------
      1         15           0        1.281825   -0.296264   -1.269906
      2         15           0       -1.533513   -0.374441   -1.086962
      3          6           0       -0.093684    0.272522    0.056230
      4          6           0        2.659482   -2.802628   -1.529843
      5          6           0        3.203975   -4.061193   -0.850941
      6          6           0        3.523766    1.186665   -0.106288
      7          6           0        4.787554    2.002648   -0.387896
      8          6           0       -3.226944   -2.674345   -1.073979
      9          6           0       -3.570711   -4.035951   -0.464901
     10          6           0       -3.571339    0.784177    0.613818
     11          6           0       -4.761289    1.742178    0.714920
     12          1           0        3.488790   -2.260776   -1.994557
     13          1           0        1.981042   -3.086385   -2.338097
     14          1           0        3.719069   -4.699699   -1.570199
     15          1           0        2.399206   -4.647626   -0.401304
     16          1           0        3.914702   -3.810863   -0.060691
     17          1           0        3.792225    0.298842    0.472338
     18          1           0        2.842859    1.769892    0.517890
     19          1           0        5.277658    2.291106    0.543113
     20          1           0        5.505999    1.430663   -0.978511
     21          1           0        4.555305    2.917308   -0.937858
     22          1           0       -3.009789   -2.798014   -2.138350
     23          1           0       -4.101626   -2.021647   -1.007613
     24          1           0       -4.426370   -4.484112   -0.971016
     25          1           0       -2.732144   -4.730369   -0.550792
     26          1           0       -3.820480   -3.944038    0.594384
     27          1           0       -2.786944    1.093753    1.306538
     28          1           0       -3.887828   -0.213963    0.923349
     29          1           0       -5.155920    1.762815    1.732736
     30          1           0       -4.475423    2.762505    0.451248
     31          1           0       -5.574508    1.441017    0.051084
     32          6           0        2.812549    0.772493   -1.398931
     33          1           0        2.537867    1.650663   -1.984348
     34          1           0        3.494546    0.191254   -2.029732
     35          6           0        1.917063   -1.893982   -0.542408
     36          1           0        1.058709   -2.416704   -0.120977
     37          1           0        2.564712   -1.641377    0.300349
     38          6           0       -2.027537   -2.023572   -0.372692
     39          1           0       -2.220628   -1.882538    0.691039
     40          1           0       -1.156088   -2.674037   -0.453114
     41          6           0       -3.004436    0.733592   -0.810731
     42          1           0       -3.769578    0.394324   -1.516441
     43          1           0       -2.711595    1.732693   -1.139571
     44          6           0        0.602283   -0.997494    3.456744
     45          1           0       -0.449555   -1.017232    3.754172
     46          1           0        0.851840   -2.002049    3.105442
     47          6           0        0.764553   -0.013895    2.313101
     48          1           0        0.493528    0.996807    2.619377
     49          1           0        1.798070    0.003054    1.952780
     50          8           0       -0.110766   -0.434784    1.236640
     51          6           0        1.477429   -0.625669    4.654650
     52          1           0        1.227574    0.364899    5.041719
     53          1           0        1.341859   -1.339571    5.467186
     54          1           0        2.538735   -0.623730    4.392698
     55          6           0       -0.019464    2.641868   -0.659889
     56          1           0        1.040294    2.756342   -0.901609
     57          1           0       -0.540336    2.348576   -1.577333
     58          6           0       -0.568571    3.947220   -0.109993
     59          1           0       -0.059940    4.167957    0.831676
     60          1           0       -1.626422    3.816906    0.128344
     61          8           0       -0.169440    1.631042    0.352733
     62          6           0       -0.385053    5.106105   -1.091077
     63          1           0       -0.903927    4.920193   -2.035457
     64          1           0       -0.786289    6.030267   -0.674121
     65          1           0        0.670013    5.278971   -1.317102
 ---------------------------------------------------------------------

 SCF Done:  E(RB3LYP) =  -1582.83434600     A.U. after   14 cycles

      1  P    Isotropic =   216.8771   Anisotropy =   201.4040

      2  P    Isotropic =   224.6082   Anisotropy =   174.6884

      3  C    Isotropic =    60.9958   Anisotropy =    15.5492

      4  C    Isotropic =   158.5027   Anisotropy =    17.0083

      5  C    Isotropic =   164.7609   Anisotropy =    31.5015

      6  C    Isotropic =   157.0987   Anisotropy =    18.9885

      7  C    Isotropic =   164.9124   Anisotropy =    32.5189

      8  C    Isotropic =   160.1978   Anisotropy =    15.6884

      9  C    Isotropic =   164.6554   Anisotropy =    32.0032

     10  C    Isotropic =   161.1978   Anisotropy =    14.7290

     11  C    Isotropic =   164.7984   Anisotropy =    32.8594

     12  H    Isotropic =    30.7795   Anisotropy =     6.3624

     13  H    Isotropic =    30.5229   Anisotropy =     6.8070

     14  H    Isotropic =    30.6822   Anisotropy =    11.5448

     15  H    Isotropic =    30.9929   Anisotropy =     7.3422

     16  H    Isotropic =    31.1047   Anisotropy =     7.7045

     17  H    Isotropic =    30.1404   Anisotropy =     5.3082

     18  H    Isotropic =    30.5363   Anisotropy =     6.7604

     19  H    Isotropic =    30.6769   Anisotropy =    10.7402

     20  H    Isotropic =    31.1834   Anisotropy =     8.9993

     21  H    Isotropic =    31.0672   Anisotropy =     8.1384

     22  H    Isotropic =    30.4886   Anisotropy =     7.1393

     23  H    Isotropic =    30.8405   Anisotropy =     6.2846

     24  H    Isotropic =    30.6868   Anisotropy =    11.5446

     25  H    Isotropic =    31.0085   Anisotropy =     7.8488

     26  H    Isotropic =    30.9659   Anisotropy =     7.4923

     27  H    Isotropic =    30.3551   Anisotropy =     7.2487

     28  H    Isotropic =    30.4938   Anisotropy =     5.9092

     29  H    Isotropic =    30.7769   Anisotropy =    11.0129

     30  H    Isotropic =    31.1835   Anisotropy =     7.4556

     31  H    Isotropic =    31.2812   Anisotropy =     9.1006

     32  C    Isotropic =   145.2386   Anisotropy =    37.7845

     33  H    Isotropic =    29.8001   Anisotropy =     4.2567

     34  H    Isotropic =    30.5048   Anisotropy =     5.8732

     35  C    Isotropic =   156.5141   Anisotropy =    41.2681

     36  H    Isotropic =    30.5194   Anisotropy =     8.2333

     37  H    Isotropic =    30.0118   Anisotropy =     4.2427

     38  C    Isotropic =   156.6805   Anisotropy =    40.6143

     39  H    Isotropic =    29.7004   Anisotropy =     3.5676

     40  H    Isotropic =    30.7105   Anisotropy =     8.7450

     41  C    Isotropic =   148.3160   Anisotropy =    45.0273

     42  H    Isotropic =    30.5975   Anisotropy =     5.9451

     43  H    Isotropic =    30.2591   Anisotropy =     4.7533

     44  C    Isotropic =   156.2674   Anisotropy =    19.1886

     45  H    Isotropic =    30.2450   Anisotropy =     5.7614

     46  H    Isotropic =    30.2597   Anisotropy =     4.8710

     47  C    Isotropic =   109.7621   Anisotropy =    69.2400

     48  H    Isotropic =    27.9354   Anisotropy =     6.4749

     49  H    Isotropic =    28.9505   Anisotropy =     3.2658

     50  O    Isotropic =   216.0600   Anisotropy =    43.3502

     51  C    Isotropic =   171.7396   Anisotropy =    23.1268

     52  H    Isotropic =    31.1451   Anisotropy =     8.7772

     53  H    Isotropic =    30.7674   Anisotropy =    11.0423

     54  H    Isotropic =    31.1615   Anisotropy =     8.0572

     55  C    Isotropic =   110.0478   Anisotropy =    70.6830

     56  H    Isotropic =    28.1086   Anisotropy =     6.3863

     57  H    Isotropic =    27.8523   Anisotropy =     5.7539

     58  C    Isotropic =   154.9803   Anisotropy =    22.5643

     59  H    Isotropic =    30.2857   Anisotropy =     4.8890

     60  H    Isotropic =    30.2245   Anisotropy =     6.5430

     61  O    Isotropic =   224.2611   Anisotropy =    75.1244

     62  C    Isotropic =   172.1567   Anisotropy =    22.5217

     63  H    Isotropic =    31.0732   Anisotropy =     8.3181

     64  H    Isotropic =    30.7561   Anisotropy =    11.0173

     65  H    Isotropic =    31.1127   Anisotropy =     8.6547

 The electronic state is 1-A.
 Alpha  occ. eigenvalues --  -77.02649 -77.02384 -19.14261 -19.13740 -10.28226
 Alpha  occ. eigenvalues --  -10.22597 -10.21529 -10.17552 -10.16978 -10.16959
 Alpha  occ. eigenvalues --  -10.16924 -10.16904 -10.16770 -10.16672 -10.16547
 Alpha  occ. eigenvalues --  -10.16540 -10.16253 -10.16206 -10.16036 -10.15972
 Alpha  occ. eigenvalues --  -10.15814 -10.15632 -10.15405  -6.51272  -6.51041
 Alpha  occ. eigenvalues --   -4.67428  -4.67372  -4.67210  -4.67136  -4.66888
 Alpha  occ. eigenvalues --   -4.66648  -1.07669  -1.01407  -0.80112  -0.79413
 Alpha  occ. eigenvalues --   -0.79069  -0.78718  -0.78181  -0.77630  -0.72411
 Alpha  occ. eigenvalues --   -0.70586  -0.70038  -0.68498  -0.67725  -0.67282
 Alpha  occ. eigenvalues --   -0.63123  -0.60613  -0.59972  -0.59613  -0.59255
 Alpha  occ. eigenvalues --   -0.58855  -0.58405  -0.53958  -0.52871  -0.51717
 Alpha  occ. eigenvalues --   -0.49519  -0.48582  -0.47727  -0.46709  -0.46036
 Alpha  occ. eigenvalues --   -0.45858  -0.45530  -0.44403  -0.43523  -0.42720
 Alpha  occ. eigenvalues --   -0.42535  -0.42256  -0.41735  -0.41141  -0.40939
 Alpha  occ. eigenvalues --   -0.40452  -0.39990  -0.39327  -0.39065  -0.38698
 Alpha  occ. eigenvalues --   -0.38167  -0.38086  -0.37529  -0.37468  -0.36999
 Alpha  occ. eigenvalues --   -0.36799  -0.35797  -0.35358  -0.34946  -0.34651
 Alpha  occ. eigenvalues --   -0.34568  -0.34274  -0.34154  -0.34045  -0.33583
 Alpha  occ. eigenvalues --   -0.33348  -0.33133  -0.32950  -0.32615  -0.32063
 Alpha  occ. eigenvalues --   -0.30447  -0.30077  -0.28730  -0.22857  -0.21899
 Alpha  occ. eigenvalues --   -0.16826
 Alpha virt. eigenvalues --    0.00760   0.01311   0.02573   0.02725   0.03348
 Alpha virt. eigenvalues --    0.04320   0.04749   0.05297   0.05645   0.05729
 Alpha virt. eigenvalues --    0.06283   0.06667   0.06785   0.07001   0.07356

 Mulliken charges:
               1
     1  P    0.108045
     2  P    0.113948
     3  C    0.344363
     4  C   -0.134929
     5  C   -0.326271
     6  C   -0.188259
     7  C   -0.314902
     8  C   -0.162153
     9  C   -0.323925
    10  C   -0.174713
    11  C   -0.328090
    12  H    0.083055
    13  H    0.097558
    14  H    0.110907
    15  H    0.101924
    16  H    0.098850
    17  H    0.088583
    18  H    0.110552
    19  H    0.108341
    20  H    0.102511
    21  H    0.100348
    22  H    0.097013
    23  H    0.091973
    24  H    0.109972
    25  H    0.101254
    26  H    0.101014
    27  H    0.106357
    28  H    0.088728
    29  H    0.106525
    30  H    0.097802
    31  H    0.098875
    32  C   -0.283547
    33  H    0.116414
    34  H    0.111537
    35  C   -0.303665
    36  H    0.124470
    37  H    0.085354
    38  C   -0.280078
    39  H    0.120219
    40  H    0.099380
    41  C   -0.266776
    42  H    0.115397
    43  H    0.098475
    44  C   -0.139703
    45  H    0.093754
    46  H    0.095102
    47  C   -0.045778
    48  H    0.109958
    49  H    0.068393
    50  O   -0.329568
    51  C   -0.341411
    52  H    0.104030
    53  H    0.116496
    54  H    0.104340
    55  C   -0.088387
    56  H    0.080758
    57  H    0.123859
    58  C   -0.137229
    59  H    0.093654
    60  H    0.102532
    61  O   -0.350342
    62  C   -0.347835
    63  H    0.110046
    64  H    0.118620
    65  H    0.106276
 Sum of Mulliken charges =  -0.00000

 Dipole moment (field-independent basis, Debye):
    X=              0.9252    Y=              1.0734    Z=              1.6269  Tot=              2.1575
 Quadrupole moment (field-independent basis, Debye-Ang):
   XX=           -162.7260   YY=           -159.7713   ZZ=           -170.1777
   XY=              0.0539   XZ=              0.6305   YZ=             -1.9564

 Summary of Natural Population Analysis:

                                       Natural Population
                Natural  -----------------------------------------------
    Atom  No    Charge         Core      Valence    Rydberg      Total
 -----------------------------------------------------------------------
      P    1    0.66809      9.99861     4.30168    0.03163    14.33191
      P    2    0.72669      9.99859     4.24149    0.03322    14.27331
      C    3    0.14447      1.99951     3.80319    0.05283     5.85553
      C    4   -0.38472      1.99945     4.37013    0.01514     6.38472
      C    5   -0.58268      1.99947     4.57679    0.00642     6.58268
      C    6   -0.39434      1.99945     4.38089    0.01399     6.39434
      C    7   -0.58607      1.99947     4.57970    0.00690     6.58607
      C    8   -0.38618      1.99945     4.37204    0.01470     6.38618
      C    9   -0.58131      1.99947     4.57537    0.00648     6.58131
      C   10   -0.39461      1.99945     4.38050    0.01466     6.39461
      C   11   -0.58451      1.99947     4.57846    0.00658     6.58451
      H   12    0.18548      0.00000     0.81218    0.00234     0.81452
      H   13    0.20126      0.00000     0.79679    0.00195     0.79874
      H   14    0.20275      0.00000     0.79608    0.00117     0.79725
      H   15    0.19529      0.00000     0.80331    0.00140     0.80471
      H   16    0.19384      0.00000     0.80469    0.00147     0.80616
      H   17    0.18669      0.00000     0.81133    0.00198     0.81331
      H   18    0.19274      0.00000     0.80520    0.00206     0.80726
      H   19    0.20112      0.00000     0.79756    0.00132     0.79888
      H   20    0.19520      0.00000     0.80321    0.00159     0.80480
      H   21    0.19391      0.00000     0.80455    0.00154     0.80609
      H   22    0.19951      0.00000     0.79834    0.00215     0.80049
      H   23    0.18757      0.00000     0.81034    0.00210     0.81243
      H   24    0.20173      0.00000     0.79707    0.00120     0.79827
      H   25    0.19479      0.00000     0.80365    0.00156     0.80521
      H   26    0.19522      0.00000     0.80330    0.00148     0.80478
      H   27    0.20168      0.00000     0.79572    0.00260     0.79832
      H   28    0.18646      0.00000     0.81163    0.00192     0.81354
      H   29    0.20005      0.00000     0.79863    0.00132     0.79995
      H   30    0.19169      0.00000     0.80677    0.00154     0.80831
      H   31    0.19292      0.00000     0.80549    0.00159     0.80708
      C   32   -0.68691      1.99939     4.66575    0.02177     6.68691
      H   33    0.21466      0.00000     0.78380    0.00154     0.78534
      H   34    0.22204      0.00000     0.77599    0.00197     0.77796
      C   35   -0.68425      1.99940     4.66174    0.02310     6.68425
      H   36    0.22195      0.00000     0.77498    0.00307     0.77805
      H   37    0.19404      0.00000     0.80239    0.00357     0.80596
      C   38   -0.68016      1.99939     4.65755    0.02321     6.68016
      H   39    0.20989      0.00000     0.78611    0.00401     0.79011
      H   40    0.21732      0.00000     0.78109    0.00159     0.78268
      C   41   -0.68888      1.99941     4.66684    0.02264     6.68888
      H   42    0.22113      0.00000     0.77731    0.00156     0.77887
      H   43    0.21505      0.00000     0.78344    0.00151     0.78495
      C   44   -0.39881      1.99944     4.38539    0.01399     6.39881
      H   45    0.20055      0.00000     0.79787    0.00158     0.79945
      H   46    0.19858      0.00000     0.79989    0.00153     0.80142
      C   47   -0.06380      1.99920     4.04607    0.01853     6.06380
      H   48    0.17548      0.00000     0.82213    0.00240     0.82452
      H   49    0.16194      0.00000     0.83557    0.00249     0.83806
      O   50   -0.54678      1.99973     6.51871    0.02835     8.54678
      C   51   -0.58772      1.99946     4.58219    0.00606     6.58772
      H   52    0.19730      0.00000     0.80123    0.00148     0.80270
      H   53    0.20744      0.00000     0.79146    0.00110     0.79256
      H   54    0.19626      0.00000     0.80231    0.00143     0.80374
      C   55   -0.06221      1.99921     4.04427    0.01873     6.06221
      H   56    0.16397      0.00000     0.83271    0.00332     0.83603
      H   57    0.17472      0.00000     0.82236    0.00292     0.82528
      C   58   -0.39628      1.99943     4.38242    0.01443     6.39628
      H   59    0.20060      0.00000     0.79768    0.00172     0.79940
      H   60    0.19696      0.00000     0.80074    0.00230     0.80304
      O   61   -0.55492      1.99972     6.52703    0.02816     8.55492
      C   62   -0.59015      1.99946     4.58431    0.00638     6.59015
      H   63    0.19932      0.00000     0.79927    0.00142     0.80068
      H   64    0.20916      0.00000     0.78977    0.00107     0.79084
      H   65    0.19779      0.00000     0.80080    0.00141     0.80221
 =======================================================================
   * Total *   -0.00000     61.98564   139.50725    0.50711   202.00000

 Normal termination of Gaussian 16 at Thu Jan 23 03:26:17 2025.
