 Gaussian 16, Revision B.01,
 Gaussian 16:  ES64L-G16RevB.01 20-Dec-2017

 --------------------------------------------
 # nmr=giao b3lyp/def2TZVP pop=nbo scfcyc=200
 --------------------------------------------

 --------------
 DS-46 SPE NoRh
 --------------
 Symbolic Z-matrix:
 Charge =  0 Multiplicity = 1

                         Standard orientation:
 ---------------------------------------------------------------------
 Center     Atomic      Atomic             Coordinates (Angstroms)
 Number     Number       Type             X           Y           Z
 ---------------------------------------------------------------------
      1         15           0        1.401265   -0.012342   -1.167940
      2         15           0       -1.301485    0.127019   -0.980488
      3          6           0        0.099688   -0.787614    0.014413
      4          6           0        4.527264   -1.010478    0.889046
      5          6           0        5.404846   -1.326810   -2.091825
      6          6           0        2.900947    3.329546    1.373933
      7          6           0        4.282798    2.664170   -1.337074
      8          6           0       -3.514874    3.363412   -1.080283
      9          6           0       -1.879241    3.757895    1.539129
     10          1           0        5.387716   -1.535369    1.311726
     11          1           0        4.782851    0.048711    0.828586
     12          1           0        3.693500   -1.116960    1.585501
     13          1           0        6.364914   -1.773644   -1.818235
     14          1           0        5.122834   -1.724592   -3.068597
     15          1           0        5.557245   -0.250655   -2.193581
     16          1           0        3.359008    4.320426    1.414068
     17          1           0        1.950730    3.381311    1.909489
     18          1           0        3.554039    2.638130    1.909788
     19          1           0        4.728360    3.656355   -1.442136
     20          1           0        5.002920    2.037347   -0.809274
     21          1           0        4.149778    2.258207   -2.341499
     22          1           0       -4.023510    2.647536   -1.728938
     23          1           0       -4.249770    4.120151   -0.791520
     24          1           0       -2.738571    3.864994   -1.661502
     25          1           0       -2.573224    4.496012    1.947016
     26          1           0       -1.400769    3.253353    2.382020
     27          1           0       -1.110829    4.298442    0.983610
     28          6           0       -4.121333    1.620110    1.422101
     29          1           0       -4.634775    0.879088    0.808153
     30          1           0       -3.695535    1.107435    2.286092
     31          1           0       -4.871506    2.326183    1.790114
     32          6           0        1.440581    3.899865   -1.318662
     33          1           0        1.259099    3.541007   -2.333354
     34          1           0        0.481291    3.942609   -0.800464
     35          1           0        1.834077    4.917858   -1.385841
     36          6           0        3.779631   -3.574753   -0.707045
     37          1           0        3.070942   -3.829924    0.083052
     38          1           0        3.389784   -3.953810   -1.653718
     39          1           0        4.710890   -4.106104   -0.494821
     40         14           0        2.652531    2.789804   -0.404547
     41         14           0        4.104724   -1.726158   -0.796918
     42         14           0       -2.798612    2.534322    0.450531
     43          6           0       -5.065343   -0.574282   -2.487231
     44          1           0       -5.486725    0.197338   -1.838855
     45          1           0       -4.568157   -0.079860   -3.323487
     46          1           0       -5.900413   -1.148365   -2.897344
     47          6           0       -4.781525   -2.478475   -0.053927
     48          1           0       -5.181551   -1.715803    0.617490
     49          1           0       -5.616483   -3.099176   -0.388888
     50          1           0       -4.106916   -3.112382    0.523637
     51          6           0       -3.154141   -3.031614   -2.636877
     52          1           0       -2.557044   -2.602845   -3.443191
     53          1           0       -2.516051   -3.709878   -2.066775
     54          1           0       -3.944591   -3.632316   -3.093868
     55         14           0       -3.912038   -1.712740   -1.528569
     56          8           0       -2.653188   -0.752186   -0.870054
     57          8           0       -1.598970    1.416270   -0.054634
     58          8           0        1.965899    1.217987   -0.277370
     59          8           0        2.647979   -1.005625   -1.373108
     60          7           0        0.256726   -0.507032    1.392153
     61          1           0        0.457054    0.471441    1.552479
     62         14           0       -0.072988   -1.417921    2.889438
     63          6           0        1.056765   -2.923738    3.066656
     64          1           0        2.110273   -2.647481    2.986034
     65          1           0        0.909587   -3.379186    4.050035
     66          1           0        0.847965   -3.694323    2.322261
     67          6           0        0.303297   -0.159895    4.245724
     68          1           0       -0.356251    0.709471    4.185686
     69          1           0        0.160136   -0.609605    5.230821
     70          1           0        1.335451    0.192722    4.194019
     71          6           0       -1.870947   -1.991158    3.008504
     72          1           0       -2.057888   -2.429040    3.992420
     73          1           0       -2.565528   -1.159839    2.874498
     74          1           0       -2.113696   -2.752546    2.265034
     75          6           0       -0.014611   -2.276988   -0.305600
     76          1           0       -0.886815   -2.706421    0.186628
     77          1           0       -0.119199   -2.448440   -1.378603
     78          1           0        0.874364   -2.807523    0.031940
 ---------------------------------------------------------------------

 SCF Done:  E(RB3LYP) =  -3164.24211777     A.U. after   15 cycles

      1  P    Isotropic =   102.1756   Anisotropy =   203.9672

      2  P    Isotropic =    94.2366   Anisotropy =   206.6562

      3  C    Isotropic =   107.2355   Anisotropy =    23.6482

      4  C    Isotropic =   180.5850   Anisotropy =     7.2784

      5  C    Isotropic =   182.0367   Anisotropy =    12.2054

      6  C    Isotropic =   182.0754   Anisotropy =    10.3153

      7  C    Isotropic =   181.7179   Anisotropy =    10.6166

      8  C    Isotropic =   182.7239   Anisotropy =     9.9562

      9  C    Isotropic =   181.5525   Anisotropy =    10.8356

     10  H    Isotropic =    31.9498   Anisotropy =    10.2371

     11  H    Isotropic =    31.5630   Anisotropy =     7.4566

     12  H    Isotropic =    31.3169   Anisotropy =     9.0374

     13  H    Isotropic =    32.0774   Anisotropy =    10.1996

     14  H    Isotropic =    31.5827   Anisotropy =     8.3503

     15  H    Isotropic =    31.6070   Anisotropy =     8.1388

     16  H    Isotropic =    32.0302   Anisotropy =    10.4877

     17  H    Isotropic =    31.6057   Anisotropy =     7.6524

     18  H    Isotropic =    31.5907   Anisotropy =     6.6844

     19  H    Isotropic =    31.9688   Anisotropy =    10.3620

     20  H    Isotropic =    31.6069   Anisotropy =     7.1752

     21  H    Isotropic =    31.4141   Anisotropy =     6.4853

     22  H    Isotropic =    31.4447   Anisotropy =     8.5064

     23  H    Isotropic =    32.0582   Anisotropy =    10.0706

     24  H    Isotropic =    31.5259   Anisotropy =     7.7548

     25  H    Isotropic =    32.0372   Anisotropy =    10.3062

     26  H    Isotropic =    31.5332   Anisotropy =     6.7475

     27  H    Isotropic =    31.5013   Anisotropy =     8.2896

     28  C    Isotropic =   179.9973   Anisotropy =     9.7227

     29  H    Isotropic =    31.4894   Anisotropy =     8.4664

     30  H    Isotropic =    31.4809   Anisotropy =     6.8541

     31  H    Isotropic =    31.9516   Anisotropy =    10.3764

     32  C    Isotropic =   182.7178   Anisotropy =     9.8539

     33  H    Isotropic =    31.3478   Anisotropy =     6.5301

     34  H    Isotropic =    31.5943   Anisotropy =    10.7832

     35  H    Isotropic =    32.0938   Anisotropy =    10.0809

     36  C    Isotropic =   181.1011   Anisotropy =    10.9301

     37  H    Isotropic =    31.5327   Anisotropy =     7.9258

     38  H    Isotropic =    31.6308   Anisotropy =     7.5167

     39  H    Isotropic =    32.0587   Anisotropy =    10.4215

     40  Si   Isotropic =   292.3915   Anisotropy =    22.5136

     41  Si   Isotropic =   293.6636   Anisotropy =    22.0975

     42  Si   Isotropic =   295.6796   Anisotropy =    24.2209

     43  C    Isotropic =   182.4438   Anisotropy =    10.4092

     44  H    Isotropic =    31.6261   Anisotropy =     6.9508

     45  H    Isotropic =    31.4102   Anisotropy =     7.0161

     46  H    Isotropic =    32.0253   Anisotropy =    10.5455

     47  C    Isotropic =   180.4428   Anisotropy =    10.3902

     48  H    Isotropic =    31.5829   Anisotropy =     6.2603

     49  H    Isotropic =    32.0369   Anisotropy =    10.6684

     50  H    Isotropic =    31.5762   Anisotropy =     7.1747

     51  C    Isotropic =   182.1481   Anisotropy =    10.2354

     52  H    Isotropic =    31.5058   Anisotropy =     6.9721

     53  H    Isotropic =    31.6203   Anisotropy =     6.5666

     54  H    Isotropic =    32.0682   Anisotropy =    10.6258

     55  Si   Isotropic =   296.8490   Anisotropy =    23.1698

     56  O    Isotropic =   209.0746   Anisotropy =   132.6472

     57  O    Isotropic =   202.9048   Anisotropy =   129.1484

     58  O    Isotropic =   198.1161   Anisotropy =   125.3529

     59  O    Isotropic =   211.0669   Anisotropy =   123.0587

     60  N    Isotropic =   221.7852   Anisotropy =    31.6836

     61  H    Isotropic =    30.8083   Anisotropy =    11.4412

     62  Si   Isotropic =   313.3513   Anisotropy =    24.6108

     63  C    Isotropic =   179.0539   Anisotropy =    12.6485

     64  H    Isotropic =    31.7160   Anisotropy =     7.7925

     65  H    Isotropic =    31.8917   Anisotropy =    10.4926

     66  H    Isotropic =    31.5616   Anisotropy =     4.9364

     67  C    Isotropic =   184.4601   Anisotropy =    10.5820

     68  H    Isotropic =    31.7293   Anisotropy =     7.4672

     69  H    Isotropic =    32.0723   Anisotropy =    10.7602

     70  H    Isotropic =    31.6891   Anisotropy =     7.4855

     71  C    Isotropic =   177.9157   Anisotropy =    11.9943

     72  H    Isotropic =    31.8433   Anisotropy =    10.2708

     73  H    Isotropic =    31.7360   Anisotropy =     7.9062

     74  H    Isotropic =    31.6916   Anisotropy =     6.1008

     75  C    Isotropic =   169.6856   Anisotropy =    14.0449

     76  H    Isotropic =    31.0241   Anisotropy =     6.7090

     77  H    Isotropic =    30.6126   Anisotropy =     7.2961

     78  H    Isotropic =    31.0483   Anisotropy =     9.1536

 The electronic state is 1-A.
 Alpha  occ. eigenvalues --  -77.08063 -77.07879 -66.11911 -66.11757 -66.11723
 Alpha  occ. eigenvalues --  -66.11494 -66.09639 -19.10947 -19.10829 -19.10691
 Alpha  occ. eigenvalues --  -19.10590 -14.27618 -10.18857 -10.16062 -10.14914
 Alpha  occ. eigenvalues --  -10.14892 -10.14886 -10.14865 -10.14771 -10.14765
 Alpha  occ. eigenvalues --  -10.14755 -10.14651 -10.14647 -10.14634 -10.14625
 Alpha  occ. eigenvalues --  -10.14473 -10.14329 -10.14143 -10.13930  -6.55611
 Alpha  occ. eigenvalues --   -6.55462  -5.27554  -5.27439  -5.27399  -5.27201
 Alpha  occ. eigenvalues --   -5.25476  -4.71963  -4.71808  -4.71721  -4.71573
 Alpha  occ. eigenvalues --   -4.71169  -4.71021  -3.63588  -3.63465  -3.63423
 Alpha  occ. eigenvalues --   -3.63265  -3.63257  -3.63224  -3.63151  -3.63140
 Alpha  occ. eigenvalues --   -3.63115  -3.63100  -3.62911  -3.62902  -3.61379
 Alpha  occ. eigenvalues --   -3.61256  -3.61213  -1.00212  -0.99955  -0.96255
 Alpha  occ. eigenvalues --   -0.96140  -0.86500  -0.73447  -0.71854  -0.71785
 Alpha  occ. eigenvalues --   -0.71515  -0.71408  -0.70698  -0.68483  -0.68431
 Alpha  occ. eigenvalues --   -0.68390  -0.68296  -0.68228  -0.68189  -0.68162
 Alpha  occ. eigenvalues --   -0.68078  -0.67707  -0.67460  -0.63675  -0.60213
 Alpha  occ. eigenvalues --   -0.55745  -0.52509  -0.52210  -0.49250  -0.47897
 Alpha  occ. eigenvalues --   -0.45043  -0.43840  -0.43803  -0.42976  -0.42761
 Alpha  occ. eigenvalues --   -0.42158  -0.42100  -0.41980  -0.41887  -0.41671
 Alpha  occ. eigenvalues --   -0.41503  -0.41308  -0.41270  -0.41239  -0.40878
 Alpha  occ. eigenvalues --   -0.40731  -0.40592  -0.40454  -0.40422  -0.40314
 Alpha  occ. eigenvalues --   -0.39859  -0.39781  -0.39654  -0.39597  -0.39531
 Alpha  occ. eigenvalues --   -0.39378  -0.39164  -0.38961  -0.38897  -0.38818
 Alpha  occ. eigenvalues --   -0.38685  -0.38635  -0.38596  -0.38406  -0.38236
 Alpha  occ. eigenvalues --   -0.38014  -0.37740  -0.37407  -0.37068  -0.36910
 Alpha  occ. eigenvalues --   -0.35859  -0.34580  -0.34404  -0.33737  -0.33598
 Alpha  occ. eigenvalues --   -0.33313  -0.32164  -0.30477  -0.30373  -0.30337
 Alpha  occ. eigenvalues --   -0.30045  -0.29971  -0.29812  -0.29210  -0.29005
 Alpha  occ. eigenvalues --   -0.28599  -0.28434  -0.22552  -0.20355  -0.14573
 Alpha virt. eigenvalues --    0.00353   0.00952   0.02036   0.02999   0.03084
 Alpha virt. eigenvalues --    0.03792   0.03986   0.04773   0.05162   0.05331
 Alpha virt. eigenvalues --    0.05792   0.05993   0.06266   0.06603   0.06750

 Mulliken charges:
               1
     1  P    0.365221
     2  P    0.366872
     3  C    0.175273
     4  C   -0.452404
     5  C   -0.457796
     6  C   -0.458187
     7  C   -0.467545
     8  C   -0.464548
     9  C   -0.468185
    10  H    0.113422
    11  H    0.113672
    12  H    0.129226
    13  H    0.108120
    14  H    0.122999
    15  H    0.127691
    16  H    0.111780
    17  H    0.123710
    18  H    0.123207
    19  H    0.118433
    20  H    0.116482
    21  H    0.131961
    22  H    0.130010
    23  H    0.110741
    24  H    0.126080
    25  H    0.113379
    26  H    0.119437
    27  H    0.122043
    28  C   -0.446343
    29  H    0.111898
    30  H    0.116972
    31  H    0.111540
    32  C   -0.452933
    33  H    0.131269
    34  H    0.110608
    35  H    0.110496
    36  C   -0.469789
    37  H    0.123619
    38  H    0.122298
    39  H    0.111863
    40  Si   0.559112
    41  Si   0.546367
    42  Si   0.546257
    43  C   -0.470876
    44  H    0.119286
    45  H    0.129276
    46  H    0.115964
    47  C   -0.444044
    48  H    0.124101
    49  H    0.110629
    50  H    0.117284
    51  C   -0.477262
    52  H    0.130806
    53  H    0.123066
    54  H    0.115076
    55  Si   0.550098
    56  O   -0.412797
    57  O   -0.412042
    58  O   -0.446817
    59  O   -0.406325
    60  N   -0.445752
    61  H    0.202957
    62  Si   0.459783
    63  C   -0.462045
    64  H    0.118657
    65  H    0.112348
    66  H    0.120572
    67  C   -0.482594
    68  H    0.117842
    69  H    0.112619
    70  H    0.122706
    71  C   -0.432216
    72  H    0.107888
    73  H    0.121806
    74  H    0.105433
    75  C   -0.438678
    76  H    0.112651
    77  H    0.134716
    78  H    0.111554
 Sum of Mulliken charges =  -0.00000

 Dipole moment (field-independent basis, Debye):
    X=             -0.2396    Y=              0.2823    Z=              1.4352  Tot=              1.4822
 Quadrupole moment (field-independent basis, Debye-Ang):
   XX=           -219.1867   YY=           -224.9678   ZZ=           -240.9438
   XY=              1.3299   XZ=              2.0203   YZ=              2.8348

 Summary of Natural Population Analysis:

                                       Natural Population
                Natural  -----------------------------------------------
    Atom  No    Charge         Core      Valence    Rydberg      Total
 -----------------------------------------------------------------------
      P    1    1.35890      9.99850     3.54324    0.09937    13.64110
      P    2    1.34568      9.99853     3.56296    0.09283    13.65432
      C    3   -0.44107      1.99949     4.39227    0.04931     6.44107
      C    4   -1.12557      1.99942     5.10479    0.02137     7.12557
      C    5   -1.12024      1.99942     5.10070    0.02012     7.12024
      C    6   -1.12132      1.99942     5.10132    0.02058     7.12132
      C    7   -1.12613      1.99942     5.10597    0.02074     7.12613
      C    8   -1.12455      1.99942     5.10437    0.02076     7.12455
      C    9   -1.11751      1.99942     5.09791    0.02018     7.11751
      H   10    0.22613      0.00000     0.77301    0.00085     0.77387
      H   11    0.23080      0.00000     0.76806    0.00114     0.76920
      H   12    0.24016      0.00000     0.75830    0.00154     0.75984
      H   13    0.22615      0.00000     0.77312    0.00073     0.77385
      H   14    0.23682      0.00000     0.76243    0.00075     0.76318
      H   15    0.23475      0.00000     0.76437    0.00088     0.76525
      H   16    0.22721      0.00000     0.77195    0.00085     0.77279
      H   17    0.23501      0.00000     0.76409    0.00089     0.76499
      H   18    0.23494      0.00000     0.76412    0.00094     0.76506
      H   19    0.22929      0.00000     0.76997    0.00073     0.77071
      H   20    0.22859      0.00000     0.77030    0.00111     0.77141
      H   21    0.23939      0.00000     0.75972    0.00089     0.76061
      H   22    0.23585      0.00000     0.76323    0.00092     0.76415
      H   23    0.22640      0.00000     0.77286    0.00074     0.77360
      H   24    0.23701      0.00000     0.76215    0.00084     0.76299
      H   25    0.22757      0.00000     0.77166    0.00077     0.77243
      H   26    0.23309      0.00000     0.76583    0.00108     0.76691
      H   27    0.23139      0.00000     0.76752    0.00109     0.76861
      C   28   -1.12165      1.99942     5.10108    0.02116     7.12165
      H   29    0.23371      0.00000     0.76515    0.00115     0.76629
      H   30    0.23338      0.00000     0.76541    0.00121     0.76662
      H   31    0.22613      0.00000     0.77305    0.00083     0.77387
      C   32   -1.12382      1.99942     5.10342    0.02098     7.12382
      H   33    0.24252      0.00000     0.75654    0.00093     0.75748
      H   34    0.23355      0.00000     0.76533    0.00112     0.76645
      H   35    0.22576      0.00000     0.77350    0.00073     0.77424
      C   36   -1.12174      1.99942     5.10200    0.02032     7.12174
      H   37    0.23204      0.00000     0.76695    0.00101     0.76796
      H   38    0.23668      0.00000     0.76252    0.00080     0.76332
      H   39    0.22682      0.00000     0.77238    0.00081     0.77318
     Si   40    1.91987      9.99800     2.04973    0.03240    12.08013
     Si   41    1.90488      9.99797     2.06651    0.03064    12.09512
     Si   42    1.91348      9.99797     2.05584    0.03271    12.08652
      C   43   -1.12440      1.99942     5.10448    0.02049     7.12440
      H   44    0.23006      0.00000     0.76893    0.00101     0.76994
      H   45    0.23815      0.00000     0.76096    0.00089     0.76185
      H   46    0.22827      0.00000     0.77100    0.00073     0.77173
      C   47   -1.12079      1.99942     5.10080    0.02057     7.12079
      H   48    0.23453      0.00000     0.76451    0.00096     0.76547
      H   49    0.22627      0.00000     0.77287    0.00086     0.77373
      H   50    0.23413      0.00000     0.76477    0.00110     0.76587
      C   51   -1.12587      1.99942     5.10583    0.02062     7.12587
      H   52    0.23938      0.00000     0.75972    0.00090     0.76062
      H   53    0.23297      0.00000     0.76606    0.00097     0.76703
      H   54    0.22807      0.00000     0.77117    0.00076     0.77193
     Si   55    1.92098      9.99794     2.04904    0.03205    12.07902
      O   56   -1.18673      1.99974     7.17197    0.01503     9.18673
      O   57   -1.16821      1.99976     7.15178    0.01667     9.16821
      O   58   -1.17392      1.99976     7.16119    0.01298     9.17392
      O   59   -1.16272      1.99976     7.15096    0.01200     9.16272
      N   60   -1.05094      1.99942     6.02048    0.03104     8.05094
      H   61    0.39905      0.00000     0.59770    0.00325     0.60095
     Si   62    1.80010      9.99802     2.16840    0.03349    12.19990
      C   63   -1.11225      1.99943     5.09176    0.02107     7.11225
      H   64    0.22802      0.00000     0.77092    0.00107     0.77198
      H   65    0.22545      0.00000     0.77374    0.00080     0.77455
      H   66    0.22805      0.00000     0.77108    0.00087     0.77195
      C   67   -1.10419      1.99943     5.08572    0.01904     7.10419
      H   68    0.22758      0.00000     0.77135    0.00107     0.77242
      H   69    0.22790      0.00000     0.77138    0.00073     0.77210
      H   70    0.23080      0.00000     0.76818    0.00102     0.76920
      C   71   -1.11189      1.99942     5.09098    0.02149     7.11189
      H   72    0.22339      0.00000     0.77573    0.00088     0.77661
      H   73    0.23109      0.00000     0.76772    0.00119     0.76891
      H   74    0.22507      0.00000     0.77362    0.00131     0.77493
      C   75   -0.62288      1.99936     4.60939    0.01412     6.62288
      H   76    0.20483      0.00000     0.79307    0.00209     0.79517
      H   77    0.22192      0.00000     0.77677    0.00131     0.77808
      H   78    0.20838      0.00000     0.78952    0.00210     0.79162
 =======================================================================
   * Total *   -0.00000    113.97555   175.15918    0.86527   290.00000

 Normal termination of Gaussian 16 at Thu Jan 23 04:18:41 2025.
