 Gaussian 16, Revision B.01,
 Gaussian 16:  ES64L-G16RevB.01 20-Dec-2017

 --------------------------------------------
 # nmr=giao b3lyp/def2TZVP pop=nbo scfcyc=200
 --------------------------------------------

 --------------
 DS-40 SPE NoRh
 --------------
 Symbolic Z-matrix:
 Charge =  0 Multiplicity = 1

                         Standard orientation:
 ---------------------------------------------------------------------
 Center     Atomic      Atomic             Coordinates (Angstroms)
 Number     Number       Type             X           Y           Z
 ---------------------------------------------------------------------
      1         15           0       -1.341085    0.086326   -1.098342
      2         15           0        1.455228    0.032252   -1.053918
      3          6           0        0.018714   -1.028723   -0.284327
      4          6           0       -3.051769    2.244742   -0.330070
      5          6           0       -3.503652    3.240068    0.746469
      6          6           0       -3.572926   -1.563197   -0.251967
      7          6           0       -4.736765   -2.467504   -0.677010
      8          6           0        2.986394    2.375522   -0.532476
      9          6           0        3.475196    3.434900    0.462878
     10          6           0        3.593624   -1.647186   -0.038789
     11          6           0        4.770344   -2.572985   -0.371105
     12          1           0       -3.914861    1.656815   -0.653619
     13          1           0       -2.704772    2.799640   -1.206412
     14          1           0       -2.642595    3.833191    1.071382
     15          1           0       -3.844429    2.686026    1.626631
     16          1           0       -3.962503   -0.762530    0.383480
     17          1           0       -2.876594   -2.133954    0.368845
     18          1           0       -5.426584   -1.895022   -1.305671
     19          1           0       -4.351636   -3.277304   -1.306308
     20          1           0        2.476664    2.868469   -1.364273
     21          1           0        3.854211    1.860537   -0.956615
     22          1           0        2.609666    3.950079    0.891888
     23          1           0        3.981099    2.939323    1.296781
     24          1           0        2.848164   -2.204088    0.537207
     25          1           0        3.950410   -0.844436    0.612494
     26          1           0        4.418091   -3.384673   -1.016770
     27          1           0        5.511410   -2.018198   -0.954396
     28          6           0       -2.837483   -0.962694   -1.456058
     29          1           0       -2.504956   -1.749175   -2.136103
     30          1           0       -3.512829   -0.329275   -2.037908
     31          6           0       -1.936033    1.317632    0.170010
     32          1           0       -1.075581    1.917226    0.470108
     33          1           0       -2.270822    0.763720    1.049818
     34          6           0        2.034878    1.362908    0.119906
     35          1           0        2.518580    0.893724    0.977758
     36          1           0        1.151991    1.881691    0.493901
     37          6           0        2.949278   -1.054079   -1.297490
     38          1           0        3.674274   -0.443971   -1.844240
     39          1           0        2.645384   -1.847375   -1.982818
     40          6           0        4.417417    4.456353   -0.173997
     41          1           0        4.747359    5.194799    0.558976
     42          1           0        5.309548    3.974439   -0.581520
     43          1           0        3.927764    4.995306   -0.988320
     44          6           0        5.432875   -3.161230    0.874960
     45          1           0        4.724777   -3.750392    1.460975
     46          1           0        6.263680   -3.815329    0.604325
     47          1           0        5.829822   -2.374482    1.521776
     48          6           0       -5.494412   -3.058590    0.510855
     49          1           0       -5.924265   -2.272928    1.137487
     50          1           0       -6.313040   -3.697470    0.175030
     51          1           0       -4.837951   -3.664481    1.139274
     52          6           0       -4.615437    4.171785    0.264057
     53          1           0       -5.503603    3.609036   -0.033735
     54          1           0       -4.913552    4.865924    1.051725
     55          1           0       -4.292270    4.764865   -0.594613
     56          6           0        0.015936   -2.366853   -1.041673
     57          1           0        0.883918   -2.955582   -0.744228
     58          1           0       -0.870055   -2.934832   -0.762186
     59          1           0        0.026283   -2.237284   -2.124342
     60          6           0        0.268879   -0.532129    2.146296
     61          1           0        1.358866   -0.473228    2.215883
     62          1           0       -0.118469    0.475710    1.980005
     63          8           0       -0.085050   -1.402433    1.060954
     64          6           0       -0.305510   -1.123941    3.416872
     65          1           0        0.070289   -2.135348    3.572923
     66          1           0       -0.015528   -0.513910    4.274335
     67          1           0       -1.394384   -1.163249    3.373283
 ---------------------------------------------------------------------

 SCF Done:  E(RB3LYP) =  -1546.92151146     A.U. after   14 cycles

      1  P    Isotropic =   221.1999   Anisotropy =   191.4068

      2  P    Isotropic =   217.9433   Anisotropy =   190.7886

      3  C    Isotropic =    88.2662   Anisotropy =    50.8231

      4  C    Isotropic =   149.9256   Anisotropy =    32.5772

      5  C    Isotropic =   150.8615   Anisotropy =    28.3311

      6  C    Isotropic =   151.8706   Anisotropy =    32.5280

      7  C    Isotropic =   151.3637   Anisotropy =    28.5264

      8  C    Isotropic =   148.2159   Anisotropy =    34.7074

      9  C    Isotropic =   151.2410   Anisotropy =    27.6290

     10  C    Isotropic =   150.4721   Anisotropy =    34.8625

     11  C    Isotropic =   151.4000   Anisotropy =    28.2817

     12  H    Isotropic =    30.8475   Anisotropy =     5.4645

     13  H    Isotropic =    30.5829   Anisotropy =     5.0774

     14  H    Isotropic =    30.4914   Anisotropy =     5.3799

     15  H    Isotropic =    30.4568   Anisotropy =     4.7626

     16  H    Isotropic =    30.4960   Anisotropy =     6.3980

     17  H    Isotropic =    30.4199   Anisotropy =     7.0846

     18  H    Isotropic =    30.7798   Anisotropy =     6.2938

     19  H    Isotropic =    30.5941   Anisotropy =     5.8183

     20  H    Isotropic =    30.5780   Anisotropy =     4.7915

     21  H    Isotropic =    30.8372   Anisotropy =     5.0053

     22  H    Isotropic =    30.4847   Anisotropy =     5.2251

     23  H    Isotropic =    30.5364   Anisotropy =     4.9721

     24  H    Isotropic =    30.6262   Anisotropy =     6.6579

     25  H    Isotropic =    30.2908   Anisotropy =     5.9408

     26  H    Isotropic =    30.5453   Anisotropy =     5.7306

     27  H    Isotropic =    30.7476   Anisotropy =     6.3289

     28  C    Isotropic =   151.9419   Anisotropy =    43.7377

     29  H    Isotropic =    30.0610   Anisotropy =     3.7655

     30  H    Isotropic =    30.5400   Anisotropy =     5.9975

     31  C    Isotropic =   156.2251   Anisotropy =    37.1081

     32  H    Isotropic =    30.2097   Anisotropy =     9.3135

     33  H    Isotropic =    29.5134   Anisotropy =     3.2527

     34  C    Isotropic =   153.4239   Anisotropy =    41.2828

     35  H    Isotropic =    29.2548   Anisotropy =     4.1098

     36  H    Isotropic =    30.0821   Anisotropy =     9.2607

     37  C    Isotropic =   152.0685   Anisotropy =    43.6902

     38  H    Isotropic =    30.5341   Anisotropy =     6.0651

     39  H    Isotropic =    29.9665   Anisotropy =     3.8312

     40  C    Isotropic =   166.8023   Anisotropy =    29.5169

     41  H    Isotropic =    30.7543   Anisotropy =    10.9007

     42  H    Isotropic =    31.0638   Anisotropy =     8.2663

     43  H    Isotropic =    31.0040   Anisotropy =     8.2313

     44  C    Isotropic =   166.8349   Anisotropy =    28.7789

     45  H    Isotropic =    31.0710   Anisotropy =     7.3342

     46  H    Isotropic =    30.7506   Anisotropy =    11.3021

     47  H    Isotropic =    31.0713   Anisotropy =     7.6531

     48  C    Isotropic =   166.8730   Anisotropy =    28.7210

     49  H    Isotropic =    31.0923   Anisotropy =     7.5813

     50  H    Isotropic =    30.7762   Anisotropy =    11.3305

     51  H    Isotropic =    31.0587   Anisotropy =     7.2824

     52  C    Isotropic =   166.7978   Anisotropy =    29.4720

     53  H    Isotropic =    31.0525   Anisotropy =     8.1290

     54  H    Isotropic =    30.7409   Anisotropy =    10.9195

     55  H    Isotropic =    31.0013   Anisotropy =     8.3598

     56  C    Isotropic =   158.9567   Anisotropy =    26.0968

     57  H    Isotropic =    30.4948   Anisotropy =     7.1908

     58  H    Isotropic =    30.4978   Anisotropy =     7.0463

     59  H    Isotropic =    30.3050   Anisotropy =     7.4030

     60  C    Isotropic =   112.1408   Anisotropy =    65.1901

     61  H    Isotropic =    28.0993   Anisotropy =     4.7154

     62  H    Isotropic =    28.1396   Anisotropy =     2.4805

     63  O    Isotropic =   222.4819   Anisotropy =    71.6677

     64  C    Isotropic =   166.0705   Anisotropy =    27.6791

     65  H    Isotropic =    30.7378   Anisotropy =     7.8391

     66  H    Isotropic =    31.0189   Anisotropy =    10.0139

     67  H    Isotropic =    30.6873   Anisotropy =     6.5556

 The electronic state is 1-A.
 Alpha  occ. eigenvalues --  -77.03008 -77.02615 -19.13187 -10.23942 -10.22074
 Alpha  occ. eigenvalues --  -10.17157 -10.16955 -10.16915 -10.16893 -10.16799
 Alpha  occ. eigenvalues --  -10.16745 -10.16719 -10.16562 -10.16502 -10.16473
 Alpha  occ. eigenvalues --  -10.16470 -10.16332 -10.16257 -10.16151 -10.15961
 Alpha  occ. eigenvalues --  -10.15927 -10.15808 -10.15607  -6.51599  -6.51234
 Alpha  occ. eigenvalues --   -4.67757  -4.67706  -4.67380  -4.67349  -4.67216
 Alpha  occ. eigenvalues --   -4.66852  -1.03516  -0.80658  -0.80347  -0.79687
 Alpha  occ. eigenvalues --   -0.79466  -0.78648  -0.74879  -0.74169  -0.72945
 Alpha  occ. eigenvalues --   -0.72222  -0.71979  -0.66199  -0.65206  -0.63244
 Alpha  occ. eigenvalues --   -0.63105  -0.62929  -0.60381  -0.58495  -0.58404
 Alpha  occ. eigenvalues --   -0.58175  -0.57791  -0.53724  -0.52717  -0.48469
 Alpha  occ. eigenvalues --   -0.48346  -0.47986  -0.47188  -0.47049  -0.46215
 Alpha  occ. eigenvalues --   -0.44491  -0.43694  -0.43327  -0.43039  -0.42821
 Alpha  occ. eigenvalues --   -0.42756  -0.42485  -0.41989  -0.41797  -0.40515
 Alpha  occ. eigenvalues --   -0.40370  -0.40158  -0.39741  -0.39155  -0.38753
 Alpha  occ. eigenvalues --   -0.38352  -0.37778  -0.36906  -0.36664  -0.36212
 Alpha  occ. eigenvalues --   -0.35879  -0.35813  -0.35511  -0.35282  -0.34891
 Alpha  occ. eigenvalues --   -0.34742  -0.34194  -0.34092  -0.33979  -0.33698
 Alpha  occ. eigenvalues --   -0.33260  -0.33051  -0.32737  -0.32664  -0.32317
 Alpha  occ. eigenvalues --   -0.30870  -0.30095  -0.29623  -0.24010  -0.21964
 Alpha  occ. eigenvalues --   -0.16819
 Alpha virt. eigenvalues --    0.01225   0.01880   0.02406   0.03524   0.03760
 Alpha virt. eigenvalues --    0.04283   0.04666   0.04908   0.05226   0.05562
 Alpha virt. eigenvalues --    0.05876   0.06166   0.06900   0.07272   0.07791

 Mulliken charges:
               1
     1  P    0.125870
     2  P    0.120903
     3  C    0.228736
     4  C   -0.204380
     5  C   -0.138155
     6  C   -0.221514
     7  C   -0.131119
     8  C   -0.183212
     9  C   -0.143034
    10  C   -0.218248
    11  C   -0.133612
    12  H    0.091947
    13  H    0.097405
    14  H    0.082221
    15  H    0.082467
    16  H    0.084523
    17  H    0.105687
    18  H    0.080265
    19  H    0.082411
    20  H    0.099461
    21  H    0.086480
    22  H    0.082562
    23  H    0.082290
    24  H    0.102795
    25  H    0.083287
    26  H    0.083768
    27  H    0.081677
    28  C   -0.282605
    29  H    0.117308
    30  H    0.119569
    31  C   -0.286645
    32  H    0.105564
    33  H    0.113511
    34  C   -0.267648
    35  H    0.093984
    36  H    0.099443
    37  C   -0.273204
    38  H    0.116699
    39  H    0.119109
    40  C   -0.326811
    41  H    0.110645
    42  H    0.101673
    43  H    0.104238
    44  C   -0.326451
    45  H    0.102162
    46  H    0.110330
    47  H    0.098983
    48  C   -0.326656
    49  H    0.098690
    50  H    0.109462
    51  H    0.102367
    52  C   -0.327618
    53  H    0.101887
    54  H    0.110751
    55  H    0.103562
    56  C   -0.473000
    57  H    0.124971
    58  H    0.131305
    59  H    0.142199
    60  C   -0.009475
    61  H    0.084751
    62  H    0.084296
    63  O   -0.333673
    64  C   -0.311933
    65  H    0.112362
    66  H    0.103255
    67  H    0.111162
 Sum of Mulliken charges =  -0.00000

 Dipole moment (field-independent basis, Debye):
    X=              0.3496    Y=              0.1458    Z=              1.8581  Tot=              1.8963
 Quadrupole moment (field-independent basis, Debye-Ang):
   XX=           -163.6051   YY=           -166.5220   ZZ=           -172.1089
   XY=             -0.5591   XZ=              0.6611   YZ=              5.0983

 Summary of Natural Population Analysis:

                                       Natural Population
                Natural  -----------------------------------------------
    Atom  No    Charge         Core      Valence    Rydberg      Total
 -----------------------------------------------------------------------
      P    1    0.75422      9.99852     4.21426    0.03299    14.24578
      P    2    0.75140      9.99852     4.21765    0.03243    14.24860
      C    3   -0.19630      1.99935     4.15183    0.04512     6.19630
      C    4   -0.38416      1.99942     4.36892    0.01582     6.38416
      C    5   -0.37439      1.99946     4.36171    0.01322     6.37439
      C    6   -0.39680      1.99943     4.38046    0.01691     6.39680
      C    7   -0.37682      1.99946     4.36404    0.01332     6.37682
      C    8   -0.38440      1.99942     4.36888    0.01610     6.38440
      C    9   -0.37488      1.99945     4.36219    0.01324     6.37488
      C   10   -0.39508      1.99943     4.37910    0.01655     6.39508
      C   11   -0.37691      1.99946     4.36408    0.01337     6.37691
      H   12    0.18841      0.00000     0.80922    0.00237     0.81159
      H   13    0.19696      0.00000     0.80078    0.00226     0.80304
      H   14    0.18769      0.00000     0.81061    0.00170     0.81231
      H   15    0.18846      0.00000     0.80995    0.00159     0.81154
      H   16    0.18453      0.00000     0.81321    0.00225     0.81547
      H   17    0.19562      0.00000     0.80132    0.00306     0.80438
      H   18    0.18712      0.00000     0.81115    0.00172     0.81288
      H   19    0.18709      0.00000     0.81119    0.00172     0.81291
      H   20    0.19898      0.00000     0.79893    0.00209     0.80102
      H   21    0.18710      0.00000     0.81044    0.00246     0.81290
      H   22    0.18799      0.00000     0.81031    0.00170     0.81201
      H   23    0.18810      0.00000     0.81031    0.00159     0.81190
      H   24    0.19135      0.00000     0.80580    0.00285     0.80865
      H   25    0.18419      0.00000     0.81365    0.00217     0.81581
      H   26    0.18770      0.00000     0.81058    0.00172     0.81230
      H   27    0.18789      0.00000     0.81039    0.00172     0.81211
      C   28   -0.69194      1.99940     4.67042    0.02212     6.69194
      H   29    0.22030      0.00000     0.77805    0.00166     0.77970
      H   30    0.22245      0.00000     0.77592    0.00162     0.77755
      C   31   -0.69090      1.99940     4.66925    0.02225     6.69090
      H   32    0.21226      0.00000     0.78562    0.00213     0.78774
      H   33    0.19907      0.00000     0.79699    0.00394     0.80093
      C   34   -0.68641      1.99939     4.66488    0.02214     6.68641
      H   35    0.19725      0.00000     0.79904    0.00371     0.80275
      H   36    0.21474      0.00000     0.78314    0.00212     0.78526
      C   37   -0.69317      1.99940     4.67141    0.02236     6.69317
      H   38    0.22210      0.00000     0.77620    0.00170     0.77790
      H   39    0.22042      0.00000     0.77792    0.00166     0.77958
      C   40   -0.58500      1.99947     4.57941    0.00612     6.58500
      H   41    0.20257      0.00000     0.79625    0.00118     0.79743
      H   42    0.19543      0.00000     0.80313    0.00145     0.80457
      H   43    0.19685      0.00000     0.80170    0.00145     0.80315
      C   44   -0.58543      1.99947     4.57980    0.00616     6.58543
      H   45    0.19522      0.00000     0.80333    0.00145     0.80478
      H   46    0.20213      0.00000     0.79664    0.00123     0.79787
      H   47    0.19383      0.00000     0.80471    0.00146     0.80617
      C   48   -0.58526      1.99947     4.57963    0.00616     6.58526
      H   49    0.19370      0.00000     0.80483    0.00147     0.80630
      H   50    0.20152      0.00000     0.79724    0.00123     0.79848
      H   51    0.19538      0.00000     0.80317    0.00145     0.80462
      C   52   -0.58527      1.99947     4.57968    0.00611     6.58527
      H   53    0.19533      0.00000     0.80323    0.00145     0.80467
      H   54    0.20265      0.00000     0.79617    0.00118     0.79735
      H   55    0.19650      0.00000     0.80205    0.00146     0.80350
      C   56   -0.62692      1.99935     4.61033    0.01725     6.62692
      H   57    0.21126      0.00000     0.78675    0.00199     0.78874
      H   58    0.21449      0.00000     0.78364    0.00187     0.78551
      H   59    0.21781      0.00000     0.78112    0.00106     0.78219
      C   60   -0.05411      1.99927     4.03775    0.01710     6.05411
      H   61    0.15903      0.00000     0.83866    0.00231     0.84097
      H   62    0.16375      0.00000     0.83375    0.00250     0.83625
      O   63   -0.55506      1.99974     6.52834    0.02698     8.55506
      C   64   -0.60019      1.99946     4.58993    0.01080     6.60019
      H   65    0.20799      0.00000     0.79071    0.00130     0.79201
      H   66    0.20515      0.00000     0.79396    0.00090     0.79485
      H   67    0.20542      0.00000     0.79330    0.00127     0.79458
 =======================================================================
   * Total *   -0.00000     61.98522   139.51902    0.49576   202.00000

 Normal termination of Gaussian 16 at Thu Jan 23 03:28:33 2025.
