 Gaussian 16, Revision B.01,
 Gaussian 16:  ES64L-G16RevB.01 20-Dec-2017

 --------------------------------------------
 # nmr=giao b3lyp/def2TZVP pop=nbo scfcyc=200
 --------------------------------------------

 --------------
 DS-44 SPE NoRh
 --------------
 Symbolic Z-matrix:
 Charge =  0 Multiplicity = 1

                         Standard orientation:
 ---------------------------------------------------------------------
 Center     Atomic      Atomic             Coordinates (Angstroms)
 Number     Number       Type             X           Y           Z
 ---------------------------------------------------------------------
      1         15           0       -1.416903    0.593883   -1.265918
      2         15           0        1.399878    0.447935   -1.190556
      3          6           0       -0.122355   -0.554908   -0.391037
      4          6           0       -3.048521    2.787329   -0.436568
      5          6           0       -3.468529    3.766629    0.665858
      6          6           0       -3.689602   -1.003239   -0.444690
      7          6           0       -4.854721   -1.898487   -0.886717
      8          6           0        3.051126    2.735001   -0.768893
      9          6           0        3.610119    3.798059    0.184647
     10          6           0        3.679085   -1.127286   -0.267147
     11          6           0        4.783709   -2.119411   -0.649820
     12          1           0       -3.929491    2.234652   -0.776373
     13          1           0       -2.683936    3.354094   -1.299169
     14          1           0       -2.589738    4.323738    1.006929
     15          1           0       -3.827247    3.199985    1.531018
     16          1           0       -4.084628   -0.183953    0.161549
     17          1           0       -3.017722   -1.573317    0.200441
     18          1           0       -5.517516   -1.329384   -1.546765
     19          1           0       -4.462744   -2.726007   -1.485962
     20          1           0        2.545256    3.227911   -1.603785
     21          1           0        3.884186    2.168570   -1.196338
     22          1           0        2.778954    4.365120    0.617093
     23          1           0        4.112437    3.303288    1.021520
     24          1           0        3.041360   -1.581229    0.497378
     25          1           0        4.137286   -0.250192    0.195761
     26          1           0        4.330084   -3.006680   -1.103980
     27          1           0        5.417227   -1.671210   -1.421224
     28          6           0       -2.908261   -0.447534   -1.640629
     29          1           0       -2.534158   -1.257269   -2.267338
     30          1           0       -3.557156    0.168681   -2.271899
     31          6           0       -1.962662    1.811257    0.034497
     32          1           0       -1.079541    2.373449    0.344690
     33          1           0       -2.307945    1.242944    0.900974
     34          6           0        2.069445    1.785974   -0.067273
     35          1           0        2.548827    1.323364    0.796031
     36          1           0        1.217403    2.356797    0.305023
     37          6           0        2.838588   -0.701827   -1.475602
     38          1           0        3.473440   -0.188573   -2.204730
     39          1           0        2.427171   -1.569333   -1.995046
     40          6           0        4.583269    4.757519   -0.500259
     41          1           0        4.963058    5.499284    0.202815
     42          1           0        5.442336    4.223490   -0.914255
     43          1           0        4.099525    5.296027   -1.319296
     44          6           0        5.646277   -2.536725    0.541243
     45          1           0        5.046574   -3.020625    1.316533
     46          1           0        6.420894   -3.241800    0.237232
     47          1           0        6.142613   -1.675228    0.993265
     48          6           0       -5.656999   -2.452202    0.290712
     49          1           0       -6.093014   -1.646910    0.888058
     50          1           0       -6.474723   -3.086138   -0.055412
     51          1           0       -5.028415   -3.053762    0.951827
     52          6           0       -4.550918    4.745321    0.210544
     53          1           0       -5.455739    4.219849   -0.102058
     54          1           0       -4.826588    5.427572    1.016197
     55          1           0       -4.208894    5.351872   -0.631929
     56          6           0        0.333250   -0.082572    2.004205
     57          1           0        1.419519   -0.202590    1.946157
     58          1           0        0.097296    0.978402    1.898958
     59          8           0       -0.284549   -0.845279    0.954665
     60          6           0       -0.184424   -0.609386    3.331517
     61          1           0        0.027247   -1.679461    3.389726
     62          1           0       -1.271960   -0.501599    3.353595
     63          6           0        0.444886    0.118719    4.519635
     64          1           0        0.224570    1.189434    4.498017
     65          1           0        0.058091   -0.275456    5.460058
     66          1           0        1.530431    0.000257    4.535453
     67          6           0        0.391249   -2.950185   -0.627974
     68          1           0        0.942678   -3.359261   -1.477240
     69          1           0        1.097557   -2.708783    0.165455
     70          6           0       -0.641185   -3.952017   -0.137612
     71          1           0       -1.177717   -3.521064    0.710445
     72          1           0       -1.372910   -4.116555   -0.932707
     73          6           0        0.004082   -5.280473    0.262572
     74          1           0        0.722495   -5.149522    1.074950
     75          1           0       -0.751441   -5.988552    0.604505
     76          1           0        0.529834   -5.740250   -0.577362
     77          8           0       -0.246852   -1.740807   -1.117030
 ---------------------------------------------------------------------

 SCF Done:  E(RB3LYP) =  -1740.14202238     A.U. after   18 cycles

      1  P    Isotropic =   214.8032   Anisotropy =   195.3223

      2  P    Isotropic =   207.4385   Anisotropy =   198.7309

      3  C    Isotropic =    57.6846   Anisotropy =    16.7168

      4  C    Isotropic =   150.4935   Anisotropy =    32.0004

      5  C    Isotropic =   150.7992   Anisotropy =    28.5591

      6  C    Isotropic =   152.1412   Anisotropy =    30.7585

      7  C    Isotropic =   151.4172   Anisotropy =    28.4765

      8  C    Isotropic =   149.0725   Anisotropy =    34.4892

      9  C    Isotropic =   151.2887   Anisotropy =    27.5455

     10  C    Isotropic =   147.7753   Anisotropy =    33.0634

     11  C    Isotropic =   151.7902   Anisotropy =    27.8444

     12  H    Isotropic =    30.8503   Anisotropy =     5.2902

     13  H    Isotropic =    30.5229   Anisotropy =     5.3955

     14  H    Isotropic =    30.5182   Anisotropy =     5.1897

     15  H    Isotropic =    30.4500   Anisotropy =     4.5841

     16  H    Isotropic =    30.6686   Anisotropy =     6.2324

     17  H    Isotropic =    30.5123   Anisotropy =     7.5418

     18  H    Isotropic =    30.8137   Anisotropy =     6.7354

     19  H    Isotropic =    30.6504   Anisotropy =     5.2301

     20  H    Isotropic =    30.5882   Anisotropy =     5.0059

     21  H    Isotropic =    30.9000   Anisotropy =     5.2285

     22  H    Isotropic =    30.4975   Anisotropy =     5.1459

     23  H    Isotropic =    30.5479   Anisotropy =     4.7163

     24  H    Isotropic =    30.7337   Anisotropy =     6.2237

     25  H    Isotropic =    30.2366   Anisotropy =     5.7460

     26  H    Isotropic =    30.5791   Anisotropy =     5.1712

     27  H    Isotropic =    30.6875   Anisotropy =     6.7505

     28  C    Isotropic =   153.4553   Anisotropy =    43.6079

     29  H    Isotropic =    29.6944   Anisotropy =     3.3847

     30  H    Isotropic =    30.7270   Anisotropy =     6.7839

     31  C    Isotropic =   158.2229   Anisotropy =    34.4176

     32  H    Isotropic =    30.4879   Anisotropy =     8.8802

     33  H    Isotropic =    29.7840   Anisotropy =     3.4839

     34  C    Isotropic =   152.6421   Anisotropy =    42.0122

     35  H    Isotropic =    29.4276   Anisotropy =     4.4138

     36  H    Isotropic =    30.1567   Anisotropy =     8.6203

     37  C    Isotropic =   151.5198   Anisotropy =    42.6967

     38  H    Isotropic =    30.3151   Anisotropy =     6.4383

     39  H    Isotropic =    29.9451   Anisotropy =     3.8313

     40  C    Isotropic =   166.8224   Anisotropy =    29.6491

     41  H    Isotropic =    30.7840   Anisotropy =    10.9982

     42  H    Isotropic =    31.0682   Anisotropy =     8.2241

     43  H    Isotropic =    30.9947   Anisotropy =     8.3860

     44  C    Isotropic =   166.8409   Anisotropy =    28.8857

     45  H    Isotropic =    31.0718   Anisotropy =     6.9165

     46  H    Isotropic =    30.7562   Anisotropy =    11.3975

     47  H    Isotropic =    31.0768   Anisotropy =     7.9412

     48  C    Isotropic =   166.8130   Anisotropy =    28.6745

     49  H    Isotropic =    31.1229   Anisotropy =     7.8136

     50  H    Isotropic =    30.8177   Anisotropy =    11.4147

     51  H    Isotropic =    31.1119   Anisotropy =     6.6692

     52  C    Isotropic =   166.8678   Anisotropy =    29.6157

     53  H    Isotropic =    31.0676   Anisotropy =     8.1798

     54  H    Isotropic =    30.7615   Anisotropy =    10.9786

     55  H    Isotropic =    30.9981   Anisotropy =     8.4737

     56  C    Isotropic =   105.0815   Anisotropy =    65.7362

     57  H    Isotropic =    28.3230   Anisotropy =     3.3617

     58  H    Isotropic =    28.3506   Anisotropy =     3.3811

     59  O    Isotropic =   217.0391   Anisotropy =   105.4047

     60  C    Isotropic =   155.2393   Anisotropy =    20.7132

     61  H    Isotropic =    30.2726   Anisotropy =     5.3666

     62  H    Isotropic =    30.1513   Anisotropy =     5.4512

     63  C    Isotropic =   171.9970   Anisotropy =    22.4296

     64  H    Isotropic =    31.1439   Anisotropy =     7.9035

     65  H    Isotropic =    30.7545   Anisotropy =    11.1013

     66  H    Isotropic =    31.1539   Anisotropy =     8.2047

     67  C    Isotropic =   108.8429   Anisotropy =    74.5621

     68  H    Isotropic =    28.2562   Anisotropy =     5.0612

     69  H    Isotropic =    28.2116   Anisotropy =     4.3389

     70  C    Isotropic =   153.0588   Anisotropy =    25.6559

     71  H    Isotropic =    30.2009   Anisotropy =     5.5224

     72  H    Isotropic =    30.3562   Anisotropy =     5.6308

     73  C    Isotropic =   172.2544   Anisotropy =    22.7057

     74  H    Isotropic =    31.2863   Anisotropy =     7.5704

     75  H    Isotropic =    30.8488   Anisotropy =    10.8302

     76  H    Isotropic =    31.2628   Anisotropy =     9.3334

     77  O    Isotropic =   218.9036   Anisotropy =    45.2663

 The electronic state is 1-A.
 Alpha  occ. eigenvalues --  -77.02833 -77.02168 -19.14024 -19.13639 -10.28195
 Alpha  occ. eigenvalues --  -10.22611 -10.21819 -10.17568 -10.17067 -10.17018
 Alpha  occ. eigenvalues --  -10.16878 -10.16771 -10.16751 -10.16680 -10.16679
 Alpha  occ. eigenvalues --  -10.16672 -10.16629 -10.16574 -10.16553 -10.16475
 Alpha  occ. eigenvalues --  -10.16029 -10.15927 -10.15810 -10.15757 -10.15607
 Alpha  occ. eigenvalues --  -10.15552 -10.15320  -6.51414  -6.50811  -4.67573
 Alpha  occ. eigenvalues --   -4.67520  -4.67020  -4.66969  -4.66916  -4.66418
 Alpha  occ. eigenvalues --   -1.07333  -1.01072  -0.80501  -0.80199  -0.79865
 Alpha  occ. eigenvalues --   -0.79733  -0.78963  -0.78754  -0.74587  -0.74009
 Alpha  occ. eigenvalues --   -0.72349  -0.71907  -0.71487  -0.68763  -0.66088
 Alpha  occ. eigenvalues --   -0.65046  -0.63243  -0.62603  -0.61893  -0.60196
 Alpha  occ. eigenvalues --   -0.59239  -0.58636  -0.58273  -0.57961  -0.57539
 Alpha  occ. eigenvalues --   -0.54423  -0.52630  -0.51552  -0.49288  -0.48371
 Alpha  occ. eigenvalues --   -0.47936  -0.47731  -0.47319  -0.46709  -0.45773
 Alpha  occ. eigenvalues --   -0.44500  -0.43859  -0.43238  -0.43035  -0.42798
 Alpha  occ. eigenvalues --   -0.42581  -0.42399  -0.41946  -0.41872  -0.41667
 Alpha  occ. eigenvalues --   -0.41481  -0.41023  -0.40335  -0.39794  -0.39525
 Alpha  occ. eigenvalues --   -0.38636  -0.38214  -0.38010  -0.37340  -0.37035
 Alpha  occ. eigenvalues --   -0.36695  -0.36201  -0.35772  -0.35632  -0.35560
 Alpha  occ. eigenvalues --   -0.35285  -0.35201  -0.34935  -0.34654  -0.34361
 Alpha  occ. eigenvalues --   -0.34277  -0.33952  -0.33845  -0.33590  -0.33336
 Alpha  occ. eigenvalues --   -0.33103  -0.32822  -0.32712  -0.32321  -0.32190
 Alpha  occ. eigenvalues --   -0.31419  -0.30382  -0.29627  -0.28477  -0.22720
 Alpha  occ. eigenvalues --   -0.21869  -0.16578
 Alpha virt. eigenvalues --    0.00690   0.01976   0.02382   0.02529   0.02992
 Alpha virt. eigenvalues --    0.03911   0.04011   0.04749   0.04817   0.04975
 Alpha virt. eigenvalues --    0.05246   0.05523   0.05930   0.06359   0.06926

 Mulliken charges:
               1
     1  P    0.129334
     2  P    0.108164
     3  C    0.328301
     4  C   -0.204200
     5  C   -0.136462
     6  C   -0.227847
     7  C   -0.133343
     8  C   -0.193188
     9  C   -0.139904
    10  C   -0.227960
    11  C   -0.130351
    12  H    0.093954
    13  H    0.096761
    14  H    0.080476
    15  H    0.081581
    16  H    0.080664
    17  H    0.105832
    18  H    0.078518
    19  H    0.082650
    20  H    0.101259
    21  H    0.089600
    22  H    0.082582
    23  H    0.081605
    24  H    0.083708
    25  H    0.091276
    26  H    0.082534
    27  H    0.084562
    28  C   -0.243893
    29  H    0.111065
    30  H    0.112320
    31  C   -0.278384
    32  H    0.100723
    33  H    0.112019
    34  C   -0.270902
    35  H    0.096724
    36  H    0.100961
    37  C   -0.243486
    38  H    0.118087
    39  H    0.116430
    40  C   -0.327084
    41  H    0.110621
    42  H    0.101226
    43  H    0.104447
    44  C   -0.326786
    45  H    0.099327
    46  H    0.111580
    47  H    0.100310
    48  C   -0.327666
    49  H    0.097672
    50  H    0.108278
    51  H    0.100278
    52  C   -0.327299
    53  H    0.102175
    54  H    0.109867
    55  H    0.103135
    56  C   -0.020870
    57  H    0.080249
    58  H    0.085381
    59  O   -0.340936
    60  C   -0.133984
    61  H    0.092911
    62  H    0.099392
    63  C   -0.345212
    64  H    0.108003
    65  H    0.118251
    66  H    0.105413
    67  C   -0.021444
    68  H    0.092439
    69  H    0.078603
    70  C   -0.162621
    71  H    0.107982
    72  H    0.090540
    73  C   -0.337754
    74  H    0.103770
    75  H    0.116490
    76  H    0.104270
    77  O   -0.362724
 Sum of Mulliken charges =  -0.00000

 Dipole moment (field-independent basis, Debye):
    X=              1.1267    Y=             -0.5321    Z=              2.9399  Tot=              3.1931
 Quadrupole moment (field-independent basis, Debye-Ang):
   XX=           -189.9431   YY=           -188.0148   ZZ=           -197.8589
   XY=             -1.5476   XZ=             -0.3462   YZ=              3.6735

 Summary of Natural Population Analysis:

                                       Natural Population
                Natural  -----------------------------------------------
    Atom  No    Charge         Core      Valence    Rydberg      Total
 -----------------------------------------------------------------------
      P    1    0.76080      9.99855     4.20677    0.03388    14.23920
      P    2    0.70351      9.99858     4.26494    0.03298    14.29649
      C    3    0.11657      1.99948     3.82989    0.05406     5.88343
      C    4   -0.38370      1.99942     4.36855    0.01573     6.38370
      C    5   -0.37460      1.99946     4.36184    0.01330     6.37460
      C    6   -0.39398      1.99943     4.37789    0.01667     6.39398
      C    7   -0.37591      1.99946     4.36320    0.01325     6.37591
      C    8   -0.38551      1.99942     4.36988    0.01621     6.38551
      C    9   -0.37484      1.99946     4.36212    0.01327     6.37484
      C   10   -0.39125      1.99942     4.37595    0.01588     6.39125
      C   11   -0.37747      1.99946     4.36455    0.01346     6.37747
      H   12    0.18926      0.00000     0.80842    0.00232     0.81074
      H   13    0.19633      0.00000     0.80132    0.00235     0.80367
      H   14    0.18709      0.00000     0.81119    0.00171     0.81291
      H   15    0.18821      0.00000     0.81019    0.00160     0.81179
      H   16    0.18137      0.00000     0.81639    0.00224     0.81863
      H   17    0.19808      0.00000     0.79902    0.00291     0.80192
      H   18    0.18623      0.00000     0.81203    0.00174     0.81377
      H   19    0.18815      0.00000     0.81014    0.00170     0.81185
      H   20    0.19971      0.00000     0.79819    0.00209     0.80029
      H   21    0.18688      0.00000     0.81072    0.00240     0.81312
      H   22    0.18818      0.00000     0.81012    0.00170     0.81182
      H   23    0.18767      0.00000     0.81073    0.00160     0.81233
      H   24    0.18262      0.00000     0.81502    0.00236     0.81738
      H   25    0.18621      0.00000     0.81154    0.00225     0.81379
      H   26    0.18828      0.00000     0.81006    0.00166     0.81172
      H   27    0.18957      0.00000     0.80872    0.00172     0.81043
      C   28   -0.68890      1.99940     4.66708    0.02242     6.68890
      H   29    0.23453      0.00000     0.76380    0.00167     0.76547
      H   30    0.21830      0.00000     0.78015    0.00155     0.78170
      C   31   -0.69418      1.99940     4.67261    0.02217     6.69418
      H   32    0.21058      0.00000     0.78736    0.00206     0.78942
      H   33    0.20029      0.00000     0.79540    0.00431     0.79971
      C   34   -0.69022      1.99938     4.66879    0.02205     6.69022
      H   35    0.19603      0.00000     0.80023    0.00373     0.80397
      H   36    0.21452      0.00000     0.78339    0.00209     0.78548
      C   37   -0.69407      1.99939     4.67259    0.02209     6.69407
      H   38    0.22295      0.00000     0.77538    0.00167     0.77705
      H   39    0.22611      0.00000     0.77232    0.00157     0.77389
      C   40   -0.58494      1.99947     4.57936    0.00611     6.58494
      H   41    0.20249      0.00000     0.79633    0.00119     0.79751
      H   42    0.19518      0.00000     0.80338    0.00144     0.80482
      H   43    0.19696      0.00000     0.80159    0.00145     0.80304
      C   44   -0.58542      1.99947     4.57980    0.00614     6.58542
      H   45    0.19357      0.00000     0.80497    0.00145     0.80643
      H   46    0.20288      0.00000     0.79590    0.00122     0.79712
      H   47    0.19442      0.00000     0.80413    0.00145     0.80558
      C   48   -0.58502      1.99947     4.57941    0.00613     6.58502
      H   49    0.19310      0.00000     0.80543    0.00148     0.80690
      H   50    0.20047      0.00000     0.79828    0.00125     0.79953
      H   51    0.19405      0.00000     0.80449    0.00146     0.80595
      C   52   -0.58521      1.99947     4.57963    0.00612     6.58521
      H   53    0.19547      0.00000     0.80308    0.00145     0.80453
      H   54    0.20206      0.00000     0.79675    0.00118     0.79794
      H   55    0.19623      0.00000     0.80231    0.00146     0.80377
      C   56   -0.05081      1.99921     4.03317    0.01843     6.05081
      H   57    0.16120      0.00000     0.83570    0.00310     0.83880
      H   58    0.16385      0.00000     0.83260    0.00355     0.83615
      O   59   -0.56025      1.99971     6.53129    0.02925     8.56025
      C   60   -0.39721      1.99943     4.38291    0.01487     6.39721
      H   61    0.19903      0.00000     0.79937    0.00160     0.80097
      H   62    0.20149      0.00000     0.79688    0.00163     0.79851
      C   63   -0.58953      1.99946     4.58383    0.00625     6.58953
      H   64    0.19815      0.00000     0.80043    0.00142     0.80185
      H   65    0.20914      0.00000     0.78981    0.00106     0.79086
      H   66    0.19747      0.00000     0.80109    0.00144     0.80253
      C   67   -0.06188      1.99920     4.04206    0.02062     6.06188
      H   68    0.17018      0.00000     0.82687    0.00295     0.82982
      H   69    0.17379      0.00000     0.82326    0.00295     0.82621
      C   70   -0.40295      1.99944     4.39015    0.01336     6.40295
      H   71    0.20292      0.00000     0.79510    0.00199     0.79708
      H   72    0.19535      0.00000     0.80253    0.00212     0.80465
      C   73   -0.59044      1.99946     4.58446    0.00651     6.59044
      H   74    0.19545      0.00000     0.80314    0.00141     0.80455
      H   75    0.20821      0.00000     0.79070    0.00109     0.79179
      H   76    0.19657      0.00000     0.80197    0.00146     0.80343
      O   77   -0.54942      1.99976     6.52949    0.02018     8.54942
 =======================================================================
   * Total *   -0.00000     69.98326   163.44011    0.57663   234.00000

 Normal termination of Gaussian 16 at Thu Jan 23 04:06:50 2025.
