 Gaussian 16, Revision B.01,
 Gaussian 16:  ES64L-G16RevB.01 20-Dec-2017

 --------------------------------------------
 # nmr=giao b3lyp/def2TZVP pop=nbo scfcyc=200
 --------------------------------------------

 --------------
 DS-49 SPE NoRh
 --------------
 Symbolic Z-matrix:
 Charge =  0 Multiplicity = 1

                         Standard orientation:
 ---------------------------------------------------------------------
 Center     Atomic      Atomic             Coordinates (Angstroms)
 Number     Number       Type             X           Y           Z
 ---------------------------------------------------------------------
      1         15           0        1.504467   -0.034841   -0.839421
      2         15           0       -1.181714    0.455792   -0.769570
      3          6           0        0.088624   -0.407174    0.441582
      4          6           0        5.497259   -1.069307   -0.163023
      5          6           0        3.913826   -3.704302   -0.594520
      6          6           0        3.333930    3.534655    1.108635
      7          6           0        4.435598    2.450229   -1.592185
      8          6           0       -3.617024    3.742228   -0.216156
      9          6           0       -1.178679    4.133751    1.665872
     10          1           0        6.314986   -1.639941    0.286516
     11          1           0        5.719142   -0.954046   -1.225960
     12          1           0        5.495250   -0.080208    0.297425
     13          1           0        4.694329   -4.292112   -0.103588
     14          1           0        2.965126   -4.221617   -0.444414
     15          1           0        4.133782   -3.691900   -1.664206
     16          1           0        3.840158    4.493622    0.969684
     17          1           0        2.441882    3.718199    1.709669
     18          1           0        4.001900    2.886430    1.679010
     19          1           0        4.894656    3.400273   -1.876864
     20          1           0        5.183325    1.872971   -1.047037
     21          1           0        4.201340    1.913036   -2.513470
     22          1           0       -4.265158    3.019712   -0.715054
     23          1           0       -4.254319    4.412351    0.366592
     24          1           0       -3.121098    4.341052   -0.983526
     25          1           0       -1.731414    4.823766    2.309075
     26          1           0       -0.426129    3.641387    2.284767
     27          1           0       -0.668344    4.730825    0.907738
     28          6           0       -3.174397    1.824799    2.210072
     29          1           0       -3.896684    1.129217    1.782379
     30          1           0       -2.425707    1.247098    2.754284
     31          1           0       -3.703795    2.457110    2.926975
     32          6           0        1.650042    3.801836   -1.505078
     33          1           0        1.379788    3.315973   -2.444925
     34          1           0        0.735040    3.944189   -0.929529
     35          1           0        2.063027    4.786542   -1.740322
     36          6           0        3.370499   -1.937947    1.922311
     37          1           0        3.286702   -0.915033    2.297629
     38          1           0        2.424590   -2.454829    2.091098
     39          1           0        4.132309   -2.442777    2.522448
     40         14           0        2.902982    2.778140   -0.552986
     41         14           0        3.871482   -1.966565    0.110187
     42         14           0       -2.363841    2.893189    0.898158
     43          6           0       -5.082215    0.020878   -2.036106
     44          1           0       -5.381548    0.888931   -1.445049
     45          1           0       -4.579071    0.381530   -2.936543
     46          1           0       -5.994620   -0.489906   -2.352599
     47          6           0       -4.829213   -1.672923    0.563564
     48          1           0       -5.152589   -0.813896    1.153390
     49          1           0       -5.715267   -2.273180    0.342092
     50          1           0       -4.161462   -2.278275    1.179652
     51          6           0       -3.482166   -2.643464   -2.053061
     52          1           0       -2.931663   -2.366279   -2.952909
     53          1           0       -2.858576   -3.323165   -1.469655
     54          1           0       -4.371315   -3.196209   -2.367452
     55         14           0       -4.002871   -1.150613   -1.035658
     56          8           0       -2.598228   -0.267571   -0.574844
     57          8           0       -1.377507    1.923427   -0.141933
     58          8           0        2.166166    1.269740   -0.137227
     59          8           0        2.662109   -1.150251   -0.822943
     60          7           0        0.178226    0.247138    1.715122
     61          1           0        0.708125   -0.293024    2.390380
     62          1           0        0.594885    1.165921    1.632285
     63          6           0       -0.268105   -1.870550    0.594682
     64          6           0       -0.995702   -2.287272    1.721194
     65          6           0        0.034647   -2.854865   -0.351161
     66          1           0       -1.286731   -1.564739    2.472877
     67          6           0       -0.360641   -4.166411   -0.126880
     68          1           0        0.578200   -2.612138   -1.252544
     69          6           0       -1.058036   -4.467693    1.036979
     70          1           0       -0.126890   -4.945538   -0.841291
     71          1           0       -1.375741   -5.482006    1.250703
     72          7           0       -1.378231   -3.543317    1.944102
 ---------------------------------------------------------------------

 SCF Done:  E(RB3LYP) =  -2963.31493791     A.U. after   30 cycles

      1  P    Isotropic =    94.1740   Anisotropy =   221.9524

      2  P    Isotropic =   109.5544   Anisotropy =   211.9446

      3  C    Isotropic =   103.6184   Anisotropy =    29.2471

      4  C    Isotropic =   180.5479   Anisotropy =    10.1861

      5  C    Isotropic =   182.6604   Anisotropy =    11.5570

      6  C    Isotropic =   181.8932   Anisotropy =    10.6802

      7  C    Isotropic =   181.9997   Anisotropy =    10.7545

      8  C    Isotropic =   181.4056   Anisotropy =    12.0330

      9  C    Isotropic =   181.4709   Anisotropy =    10.3981

     10  H    Isotropic =    32.0284   Anisotropy =    10.3410

     11  H    Isotropic =    31.5372   Anisotropy =     6.9174

     12  H    Isotropic =    31.6242   Anisotropy =     7.4970

     13  H    Isotropic =    32.2722   Anisotropy =    10.5125

     14  H    Isotropic =    31.7370   Anisotropy =     9.2816

     15  H    Isotropic =    31.6134   Anisotropy =     7.9470

     16  H    Isotropic =    31.9104   Anisotropy =    10.3291

     17  H    Isotropic =    31.4969   Anisotropy =     8.0809

     18  H    Isotropic =    31.5631   Anisotropy =     7.1243

     19  H    Isotropic =    31.9796   Anisotropy =    10.2084

     20  H    Isotropic =    31.5104   Anisotropy =     8.6033

     21  H    Isotropic =    31.3338   Anisotropy =     6.7250

     22  H    Isotropic =    31.5549   Anisotropy =     8.8729

     23  H    Isotropic =    31.9959   Anisotropy =    10.1529

     24  H    Isotropic =    31.5327   Anisotropy =     7.7021

     25  H    Isotropic =    31.9508   Anisotropy =    10.2692

     26  H    Isotropic =    31.4911   Anisotropy =     6.3252

     27  H    Isotropic =    31.4918   Anisotropy =     7.5839

     28  C    Isotropic =   180.4616   Anisotropy =     9.9882

     29  H    Isotropic =    31.4351   Anisotropy =     9.0035

     30  H    Isotropic =    30.6007   Anisotropy =     6.9296

     31  H    Isotropic =    31.9575   Anisotropy =    10.5139

     32  C    Isotropic =   182.5216   Anisotropy =     9.0965

     33  H    Isotropic =    31.3230   Anisotropy =     6.4201

     34  H    Isotropic =    31.4373   Anisotropy =    11.0890

     35  H    Isotropic =    32.0632   Anisotropy =    10.0687

     36  C    Isotropic =   182.2101   Anisotropy =     7.3256

     37  H    Isotropic =    32.0610   Anisotropy =     5.7418

     38  H    Isotropic =    32.5506   Anisotropy =     9.5486

     39  H    Isotropic =    32.2645   Anisotropy =    10.9882

     40  Si   Isotropic =   288.2575   Anisotropy =    22.9021

     41  Si   Isotropic =   290.4005   Anisotropy =    24.6182

     42  Si   Isotropic =   290.7255   Anisotropy =    21.1244

     43  C    Isotropic =   181.8457   Anisotropy =    11.8257

     44  H    Isotropic =    31.7152   Anisotropy =     7.4871

     45  H    Isotropic =    31.5862   Anisotropy =     7.0991

     46  H    Isotropic =    32.1615   Anisotropy =    10.5124

     47  C    Isotropic =   181.1450   Anisotropy =    10.7755

     48  H    Isotropic =    31.8222   Anisotropy =     6.7925

     49  H    Isotropic =    32.3980   Anisotropy =    10.6493

     50  H    Isotropic =    31.8431   Anisotropy =     8.8885

     51  C    Isotropic =   182.9983   Anisotropy =     8.6017

     52  H    Isotropic =    32.0518   Anisotropy =     6.5627

     53  H    Isotropic =    32.6479   Anisotropy =    12.1348

     54  H    Isotropic =    32.5869   Anisotropy =    10.6059

     55  Si   Isotropic =   293.3328   Anisotropy =    21.3784

     56  O    Isotropic =   201.4839   Anisotropy =   126.1305

     57  O    Isotropic =   196.3165   Anisotropy =    97.0327

     58  O    Isotropic =   200.1202   Anisotropy =   139.0957

     59  O    Isotropic =   202.0843   Anisotropy =   106.1799

     60  N    Isotropic =   228.4963   Anisotropy =    63.4132

     61  H    Isotropic =    31.4822   Anisotropy =    12.1528

     62  H    Isotropic =    29.9902   Anisotropy =    12.3878

     63  C    Isotropic =    39.7400   Anisotropy =   188.9432

     64  C    Isotropic =    26.8936   Anisotropy =   179.4025

     65  C    Isotropic =    44.2445   Anisotropy =   202.9857

     66  H    Isotropic =    22.5970   Anisotropy =    10.6381

     67  C    Isotropic =    57.2852   Anisotropy =   174.5417

     68  H    Isotropic =    23.9868   Anisotropy =     8.1426

     69  C    Isotropic =    31.6885   Anisotropy =   166.5520

     70  H    Isotropic =    24.6430   Anisotropy =     5.6247

     71  H    Isotropic =    23.2158   Anisotropy =     5.1164

     72  N    Isotropic =   -99.7567   Anisotropy =   587.6950

 The electronic state is 1-A.
 Alpha  occ. eigenvalues --  -77.09464 -77.08899 -66.12230 -66.12038 -66.12009
 Alpha  occ. eigenvalues --  -66.11848 -19.11874 -19.11585 -19.11576 -19.11229
 Alpha  occ. eigenvalues --  -14.30623 -14.29773 -10.20029 -10.19859 -10.19671
 Alpha  occ. eigenvalues --  -10.19060 -10.18359 -10.17832 -10.15377 -10.15292
 Alpha  occ. eigenvalues --  -10.15229 -10.15116 -10.15096 -10.15037 -10.14892
 Alpha  occ. eigenvalues --  -10.14880 -10.14665 -10.14473 -10.14404 -10.14319
 Alpha  occ. eigenvalues --   -6.56946  -6.56482  -5.27921  -5.27766  -5.27648
 Alpha  occ. eigenvalues --   -5.27550  -4.73264  -4.73063  -4.72813  -4.72588
 Alpha  occ. eigenvalues --   -4.72537  -4.72055  -3.63958  -3.63790  -3.63705
 Alpha  occ. eigenvalues --   -3.63625  -3.63613  -3.63584  -3.63473  -3.63464
 Alpha  occ. eigenvalues --   -3.63350  -3.63332  -3.63259  -3.63239  -1.01092
 Alpha  occ. eigenvalues --   -1.00820  -0.97067  -0.96863  -0.93892  -0.89102
 Alpha  occ. eigenvalues --   -0.80388  -0.76302  -0.72341  -0.71982  -0.71877
 Alpha  occ. eigenvalues --   -0.71487  -0.68919  -0.68752  -0.68674  -0.68563
 Alpha  occ. eigenvalues --   -0.68348  -0.68289  -0.68215  -0.68134  -0.67948
 Alpha  occ. eigenvalues --   -0.63006  -0.62190  -0.60701  -0.57113  -0.53638
 Alpha  occ. eigenvalues --   -0.52849  -0.51853  -0.50194  -0.48551  -0.45816
 Alpha  occ. eigenvalues --   -0.45305  -0.44514  -0.43863  -0.43550  -0.43246
 Alpha  occ. eigenvalues --   -0.42885  -0.42664  -0.42281  -0.42018  -0.41876
 Alpha  occ. eigenvalues --   -0.41714  -0.41596  -0.41333  -0.41209  -0.41018
 Alpha  occ. eigenvalues --   -0.40941  -0.40660  -0.40575  -0.40406  -0.40214
 Alpha  occ. eigenvalues --   -0.40080  -0.39794  -0.39704  -0.39547  -0.39405
 Alpha  occ. eigenvalues --   -0.39311  -0.39248  -0.39144  -0.39102  -0.38867
 Alpha  occ. eigenvalues --   -0.38741  -0.38591  -0.38164  -0.37826  -0.37641
 Alpha  occ. eigenvalues --   -0.36563  -0.35628  -0.35391  -0.34708  -0.34204
 Alpha  occ. eigenvalues --   -0.33931  -0.33421  -0.30892  -0.30536  -0.30396
 Alpha  occ. eigenvalues --   -0.30176  -0.30047  -0.29479  -0.29132  -0.29010
 Alpha  occ. eigenvalues --   -0.28276  -0.26005  -0.25577  -0.24353  -0.21207
 Alpha  occ. eigenvalues --   -0.16093
 Alpha virt. eigenvalues --   -0.02956  -0.02140   0.00251   0.00774   0.02086
 Alpha virt. eigenvalues --    0.02809   0.03440   0.04060   0.04324   0.04972
 Alpha virt. eigenvalues --    0.05374   0.05560   0.06074   0.06302   0.06355

 Mulliken charges:
               1
     1  P    0.367614
     2  P    0.393130
     3  C    0.291264
     4  C   -0.462140
     5  C   -0.463776
     6  C   -0.453489
     7  C   -0.457561
     8  C   -0.457832
     9  C   -0.475955
    10  H    0.115715
    11  H    0.126364
    12  H    0.113697
    13  H    0.110617
    14  H    0.132736
    15  H    0.122652
    16  H    0.114132
    17  H    0.122390
    18  H    0.118465
    19  H    0.116909
    20  H    0.118920
    21  H    0.129593
    22  H    0.122470
    23  H    0.110328
    24  H    0.121252
    25  H    0.117300
    26  H    0.115743
    27  H    0.121253
    28  C   -0.441968
    29  H    0.111388
    30  H    0.143609
    31  H    0.110389
    32  C   -0.447133
    33  H    0.132141
    34  H    0.126482
    35  H    0.111540
    36  C   -0.486715
    37  H    0.118001
    38  H    0.146096
    39  H    0.121219
    40  Si   0.545316
    41  Si   0.566989
    42  Si   0.555186
    43  C   -0.470611
    44  H    0.112598
    45  H    0.127105
    46  H    0.114586
    47  C   -0.460017
    48  H    0.114584
    49  H    0.108365
    50  H    0.155958
    51  C   -0.467622
    52  H    0.122761
    53  H    0.148507
    54  H    0.111372
    55  Si   0.552479
    56  O   -0.405116
    57  O   -0.427928
    58  O   -0.464646
    59  O   -0.422172
    60  N   -0.558248
    61  H    0.205881
    62  H    0.212712
    63  C   -0.074890
    64  C   -0.133513
    65  C   -0.181346
    66  H    0.147122
    67  C   -0.122088
    68  H    0.142730
    69  C   -0.044705
    70  H    0.110721
    71  H    0.114255
    72  N   -0.213168
 Sum of Mulliken charges =  -0.00000

 Dipole moment (field-independent basis, Debye):
    X=              1.5516    Y=              1.4322    Z=              0.0976  Tot=              2.1138
 Quadrupole moment (field-independent basis, Debye-Ang):
   XX=           -211.7760   YY=           -218.6562   ZZ=           -236.7935
   XY=             -2.9594   XZ=              6.2291   YZ=              9.5370

 Summary of Natural Population Analysis:

                                       Natural Population
                Natural  -----------------------------------------------
    Atom  No    Charge         Core      Valence    Rydberg      Total
 -----------------------------------------------------------------------
      P    1    1.34212      9.99856     3.56240    0.09692    13.65788
      P    2    1.40819      9.99855     3.49234    0.10092    13.59181
      C    3   -0.47377      1.99936     4.42988    0.04453     6.47377
      C    4   -1.12213      1.99942     5.10235    0.02036     7.12213
      C    5   -1.11947      1.99941     5.10012    0.01993     7.11947
      C    6   -1.12117      1.99942     5.10106    0.02069     7.12117
      C    7   -1.12589      1.99942     5.10589    0.02059     7.12589
      C    8   -1.12133      1.99942     5.10161    0.02030     7.12133
      C    9   -1.11889      1.99942     5.09921    0.02026     7.11889
      H   10    0.22926      0.00000     0.77000    0.00075     0.77074
      H   11    0.23812      0.00000     0.76107    0.00081     0.76188
      H   12    0.23067      0.00000     0.76829    0.00104     0.76933
      H   13    0.22798      0.00000     0.77128    0.00074     0.77202
      H   14    0.23794      0.00000     0.76106    0.00100     0.76206
      H   15    0.23673      0.00000     0.76252    0.00076     0.76327
      H   16    0.22931      0.00000     0.76984    0.00086     0.77069
      H   17    0.23359      0.00000     0.76535    0.00106     0.76641
      H   18    0.23350      0.00000     0.76561    0.00089     0.76650
      H   19    0.22959      0.00000     0.76970    0.00071     0.77041
      H   20    0.23239      0.00000     0.76666    0.00095     0.76761
      H   21    0.24079      0.00000     0.75836    0.00085     0.75921
      H   22    0.23374      0.00000     0.76524    0.00103     0.76626
      H   23    0.22752      0.00000     0.77174    0.00074     0.77248
      H   24    0.23587      0.00000     0.76334    0.00079     0.76413
      H   25    0.22921      0.00000     0.77000    0.00079     0.77079
      H   26    0.23070      0.00000     0.76817    0.00113     0.76930
      H   27    0.23146      0.00000     0.76749    0.00105     0.76854
      C   28   -1.12889      1.99940     5.10831    0.02118     7.12889
      H   29    0.23445      0.00000     0.76444    0.00111     0.76555
      H   30    0.25135      0.00000     0.74734    0.00130     0.74865
      H   31    0.22555      0.00000     0.77363    0.00082     0.77445
      C   32   -1.12703      1.99941     5.10662    0.02100     7.12703
      H   33    0.24425      0.00000     0.75486    0.00089     0.75575
      H   34    0.23948      0.00000     0.75949    0.00103     0.76052
      H   35    0.22673      0.00000     0.77255    0.00072     0.77327
      C   36   -1.13160      1.99941     5.11091    0.02127     7.13160
      H   37    0.23294      0.00000     0.76550    0.00156     0.76706
      H   38    0.24019      0.00000     0.75885    0.00096     0.75981
      H   39    0.23153      0.00000     0.76767    0.00079     0.76847
     Si   40    1.91673      9.99799     2.05284    0.03244    12.08327
     Si   41    1.89694      9.99798     2.06913    0.03596    12.10306
     Si   42    1.90274      9.99797     2.06279    0.03650    12.09726
      C   43   -1.12268      1.99942     5.10310    0.02016     7.12268
      H   44    0.22917      0.00000     0.76977    0.00106     0.77083
      H   45    0.23770      0.00000     0.76152    0.00078     0.76230
      H   46    0.22888      0.00000     0.77039    0.00073     0.77112
      C   47   -1.12425      1.99941     5.10418    0.02067     7.12425
      H   48    0.23007      0.00000     0.76891    0.00102     0.76993
      H   49    0.22737      0.00000     0.77182    0.00081     0.77263
      H   50    0.24917      0.00000     0.74981    0.00103     0.75083
      C   51   -1.12622      1.99941     5.10631    0.02050     7.12622
      H   52    0.23678      0.00000     0.76241    0.00081     0.76322
      H   53    0.24162      0.00000     0.75730    0.00108     0.75838
      H   54    0.22767      0.00000     0.77162    0.00071     0.77233
     Si   55    1.92223      9.99789     2.04949    0.03039    12.07777
      O   56   -1.18115      1.99973     7.17053    0.01088     9.18115
      O   57   -1.15675      1.99977     7.14365    0.01333     9.15675
      O   58   -1.17612      1.99977     7.16314    0.01322     9.17612
      O   59   -1.15498      1.99977     7.14218    0.01303     9.15498
      N   60   -0.84081      1.99954     5.81000    0.03126     7.84081
      H   61    0.35703      0.00000     0.63969    0.00328     0.64297
      H   62    0.37671      0.00000     0.62138    0.00191     0.62329
      C   63   -0.07932      1.99897     4.05381    0.02653     6.07932
      C   64    0.02384      1.99912     3.95205    0.02500     5.97616
      C   65   -0.18752      1.99907     4.16911    0.01934     6.18752
      H   66    0.19957      0.00000     0.79783    0.00260     0.80043
      C   67   -0.24940      1.99915     4.23084    0.01940     6.24940
      H   68    0.22462      0.00000     0.77354    0.00184     0.77538
      C   69    0.00906      1.99923     3.96575    0.02596     5.99094
      H   70    0.21300      0.00000     0.78569    0.00130     0.78700
      H   71    0.18665      0.00000     0.81196    0.00139     0.81335
      N   72   -0.41330      1.99948     5.38073    0.03310     7.41330
 =======================================================================
   * Total *   -0.00000    107.97488   173.12401    0.90111   282.00000

 Normal termination of Gaussian 16 at Thu Jan 23 04:24:58 2025.
