 Gaussian 16, Revision B.01,
 Gaussian 16:  ES64L-G16RevB.01 20-Dec-2017

 --------------------------------------------
 # nmr=giao b3lyp/def2TZVP pop=nbo scfcyc=200
 --------------------------------------------

 -------------
 DS-4 SPE NoRh
 -------------
 Symbolic Z-matrix:
 Charge =  0 Multiplicity = 1

                         Standard orientation:
 ---------------------------------------------------------------------
 Center     Atomic      Atomic             Coordinates (Angstroms)
 Number     Number       Type             X           Y           Z
 ---------------------------------------------------------------------
      1         15           0        1.417790   -0.271810   -0.659389
      2         15           0       -1.400239   -0.288693   -0.671153
      3          6           0       -1.651675    2.121444    0.814485
      4          6           0       -2.199086    3.376872    1.064290
      5          6           0       -3.194228    3.885534    0.238290
      6          6           0       -3.646223    3.136496   -0.844842
      7          6           0       -3.097879    1.886924   -1.103966
      8          6           0       -2.099902    1.366686   -0.271114
      9          1           0       -0.880538    1.736477    1.467120
     10          1           0       -1.845470    3.955184    1.909792
     11          1           0       -3.619201    4.861406    0.438003
     12          1           0       -4.424010    3.525752   -1.488795
     13          1           0       -3.466276    1.312212   -1.944715
     14          6           0       -3.813827   -1.171230    0.542675
     15          6           0       -4.765102   -2.136060    0.860550
     16          6           0       -4.631223   -3.435309    0.384728
     17          6           0       -3.541315   -3.774408   -0.413149
     18          6           0       -2.591377   -2.814162   -0.738651
     19          6           0       -2.719880   -1.505550   -0.259306
     20          1           0       -3.931035   -0.161645    0.915413
     21          1           0       -5.611642   -1.869150    1.479567
     22          1           0       -5.374683   -4.182549    0.631770
     23          1           0       -3.436182   -4.784789   -0.787487
     24          1           0       -1.746944   -3.080026   -1.362909
     25          6           0        2.508177   -2.799875   -0.121099
     26          6           0        3.537445   -3.708035    0.092971
     27          6           0        4.858037   -3.268553    0.147579
     28          6           0        5.144386   -1.918313   -0.013752
     29          6           0        4.116522   -1.002810   -0.220814
     30          6           0        2.789306   -1.436089   -0.267895
     31          1           0        1.485505   -3.156298   -0.167855
     32          1           0        3.309109   -4.759166    0.217236
     33          1           0        5.658797   -3.977740    0.312936
     34          1           0        6.169579   -1.571576    0.025668
     35          1           0        4.354965    0.046501   -0.339202
     36          6           0        2.073232    2.390788   -1.257587
     37          6           0        2.532437    3.672925   -0.968501
     38          6           0        2.953675    3.985594    0.317885
     39          6           0        2.916845    3.017025    1.319296
     40          6           0        2.459808    1.737135    1.033985
     41          6           0        2.039047    1.414530   -0.261064
     42          1           0        1.731754    2.152313   -2.257261
     43          1           0        2.556573    4.424319   -1.747518
     44          1           0        3.310650    4.983331    0.543586
     45          1           0        3.243570    3.261014    2.322568
     46          1           0        2.437075    0.993083    1.820011
     47          6           0        0.008225   -0.592320    0.494805
     48          6           0       -0.009785   -1.169295    1.692011
     49          1           0       -0.941867   -1.415403    2.190325
     50          1           0        0.903177   -1.445368    2.208997
 ---------------------------------------------------------------------

 SCF Done:  E(RB3LYP) =  -1687.09224760     A.U. after   14 cycles

      1  P    Isotropic =   233.4842   Anisotropy =    98.1817

      2  P    Isotropic =   232.4660   Anisotropy =    85.3215

      3  C    Isotropic =    45.5431   Anisotropy =   191.0959

      4  C    Isotropic =    49.8946   Anisotropy =   184.5356

      5  C    Isotropic =    51.3763   Anisotropy =   184.3927

      6  C    Isotropic =    50.1169   Anisotropy =   183.7259

      7  C    Isotropic =    45.6003   Anisotropy =   186.6237

      8  C    Isotropic =    38.5589   Anisotropy =   197.3890

      9  H    Isotropic =    24.7507   Anisotropy =     8.2939

     10  H    Isotropic =    24.7591   Anisotropy =     6.7948

     11  H    Isotropic =    24.5883   Anisotropy =     4.1876

     12  H    Isotropic =    24.3987   Anisotropy =     4.8274

     13  H    Isotropic =    24.2851   Anisotropy =     9.7254

     14  C    Isotropic =    44.8596   Anisotropy =   188.4449

     15  C    Isotropic =    49.8964   Anisotropy =   183.0457

     16  C    Isotropic =    50.3916   Anisotropy =   185.2337

     17  C    Isotropic =    49.7008   Anisotropy =   183.0868

     18  C    Isotropic =    43.6120   Anisotropy =   181.9327

     19  C    Isotropic =    33.6826   Anisotropy =   199.3226

     20  H    Isotropic =    24.8546   Anisotropy =    13.0991

     21  H    Isotropic =    24.5464   Anisotropy =     6.6959

     22  H    Isotropic =    24.4244   Anisotropy =     4.3235

     23  H    Isotropic =    24.2129   Anisotropy =     5.5415

     24  H    Isotropic =    23.7339   Anisotropy =     9.4673

     25  C    Isotropic =    47.7829   Anisotropy =   184.4501

     26  C    Isotropic =    50.5058   Anisotropy =   182.0915

     27  C    Isotropic =    53.2284   Anisotropy =   180.1647

     28  C    Isotropic =    49.7374   Anisotropy =   183.6238

     29  C    Isotropic =    49.5109   Anisotropy =   184.5870

     30  C    Isotropic =    31.9244   Anisotropy =   192.6650

     31  H    Isotropic =    24.0655   Anisotropy =    10.3721

     32  H    Isotropic =    24.3595   Anisotropy =     6.0241

     33  H    Isotropic =    24.6057   Anisotropy =     4.1965

     34  H    Isotropic =    24.5524   Anisotropy =     6.3850

     35  H    Isotropic =    25.0669   Anisotropy =    13.0411

     36  C    Isotropic =    38.8882   Anisotropy =   184.9788

     37  C    Isotropic =    49.9478   Anisotropy =   184.9075

     38  C    Isotropic =    48.1114   Anisotropy =   190.6141

     39  C    Isotropic =    49.0545   Anisotropy =   185.6079

     40  C    Isotropic =    40.6157   Anisotropy =   191.3991

     41  C    Isotropic =    38.4964   Anisotropy =   200.1339

     42  H    Isotropic =    23.9186   Anisotropy =     7.3557

     43  H    Isotropic =    24.4233   Anisotropy =     4.8445

     44  H    Isotropic =    24.2783   Anisotropy =     3.7811

     45  H    Isotropic =    24.1912   Anisotropy =     5.6866

     46  H    Isotropic =    23.8167   Anisotropy =    10.2908

     47  C    Isotropic =    17.2779   Anisotropy =   187.1987

     48  C    Isotropic =    43.3488   Anisotropy =   182.3338

     49  H    Isotropic =    25.8832   Anisotropy =     6.1547

     50  H    Isotropic =    25.1001   Anisotropy =     4.8919

 The electronic state is 1-A.
 Alpha  occ. eigenvalues --  -77.05030 -77.04997 -10.19387 -10.18964 -10.18717
 Alpha  occ. eigenvalues --  -10.18595 -10.18413 -10.18401 -10.18387 -10.18337
 Alpha  occ. eigenvalues --  -10.18310 -10.18179 -10.18121 -10.17982 -10.17899
 Alpha  occ. eigenvalues --  -10.17889 -10.17836 -10.17773 -10.17762 -10.17720
 Alpha  occ. eigenvalues --  -10.17707 -10.17685 -10.17641 -10.17617 -10.17540
 Alpha  occ. eigenvalues --  -10.17474 -10.17406 -10.17295  -6.53595  -6.53570
 Alpha  occ. eigenvalues --   -4.69757  -4.69728  -4.69706  -4.69685  -4.69239
 Alpha  occ. eigenvalues --   -4.69209  -0.86575  -0.86288  -0.85818  -0.85692
 Alpha  occ. eigenvalues --   -0.79572  -0.76568  -0.75674  -0.75540  -0.75163
 Alpha  occ. eigenvalues --   -0.75063  -0.74794  -0.74617  -0.74579  -0.66307
 Alpha  occ. eigenvalues --   -0.64256  -0.61329  -0.61126  -0.60904  -0.60832
 Alpha  occ. eigenvalues --   -0.60110  -0.60087  -0.59473  -0.56441  -0.53751
 Alpha  occ. eigenvalues --   -0.52390  -0.52204  -0.50336  -0.49541  -0.46612
 Alpha  occ. eigenvalues --   -0.46159  -0.45994  -0.45923  -0.45738  -0.45431
 Alpha  occ. eigenvalues --   -0.45240  -0.45196  -0.44165  -0.43061  -0.42985
 Alpha  occ. eigenvalues --   -0.42737  -0.42567  -0.42377  -0.41335  -0.40835
 Alpha  occ. eigenvalues --   -0.38339  -0.37766  -0.37632  -0.37408  -0.37141
 Alpha  occ. eigenvalues --   -0.36076  -0.35436  -0.35060  -0.35042  -0.34803
 Alpha  occ. eigenvalues --   -0.33706  -0.32597  -0.31074  -0.29696  -0.28017
 Alpha  occ. eigenvalues --   -0.27061  -0.26832  -0.26525  -0.26352  -0.25922
 Alpha  occ. eigenvalues --   -0.25791  -0.25470  -0.22155  -0.18945
 Alpha virt. eigenvalues --   -0.05812  -0.03676  -0.02850  -0.02379  -0.02229
 Alpha virt. eigenvalues --   -0.01742  -0.01251  -0.01008  -0.00884   0.03377
 Alpha virt. eigenvalues --    0.04139   0.04782   0.05328   0.05926   0.06399

 Mulliken charges:
               1
     1  P    0.161140
     2  P    0.135552
     3  C   -0.137595
     4  C   -0.125349
     5  C   -0.101095
     6  C   -0.103985
     7  C   -0.178730
     8  C    0.043671
     9  H    0.139607
    10  H    0.105653
    11  H    0.108665
    12  H    0.109366
    13  H    0.110249
    14  C   -0.150117
    15  C   -0.124605
    16  C   -0.097143
    17  C   -0.111074
    18  C   -0.166560
    19  C    0.015593
    20  H    0.141818
    21  H    0.108060
    22  H    0.109893
    23  H    0.109205
    24  H    0.114545
    25  C   -0.206965
    26  C   -0.106601
    27  C   -0.109435
    28  C   -0.121919
    29  C   -0.175360
    30  C    0.053719
    31  H    0.126425
    32  H    0.106406
    33  H    0.106797
    34  H    0.106534
    35  H    0.139267
    36  C   -0.138550
    37  C   -0.105734
    38  C   -0.096742
    39  C   -0.091620
    40  C   -0.190172
    41  C    0.036136
    42  H    0.118708
    43  H    0.111739
    44  H    0.112394
    45  H    0.109939
    46  H    0.113647
    47  C   -0.152193
    48  C   -0.244551
    49  H    0.141717
    50  H    0.139654
 Sum of Mulliken charges =  -0.00000

 Dipole moment (field-independent basis, Debye):
    X=             -0.1666    Y=              0.7693    Z=              2.1912  Tot=              2.3283
 Quadrupole moment (field-independent basis, Debye-Ang):
   XX=           -168.6457   YY=           -160.1236   ZZ=           -179.1950
   XY=              3.0854   XZ=              2.0202   YZ=             -0.9369

 Summary of Natural Population Analysis:

                                       Natural Population
                Natural  -----------------------------------------------
    Atom  No    Charge         Core      Valence    Rydberg      Total
 -----------------------------------------------------------------------
      P    1    0.82921      9.99781     4.13906    0.03392    14.17079
      P    2    0.83156      9.99782     4.13698    0.03364    14.16844
      C    3   -0.20623      1.99908     4.18705    0.02011     6.20623
      C    4   -0.19813      1.99919     4.18025    0.01869     6.19813
      C    5   -0.20753      1.99919     4.18907    0.01927     6.20753
      C    6   -0.20059      1.99919     4.18277    0.01864     6.20059
      C    7   -0.19901      1.99909     4.18007    0.01985     6.19901
      C    8   -0.32381      1.99899     4.29234    0.03247     6.32381
      H    9    0.21670      0.00000     0.78127    0.00203     0.78330
      H   10    0.20795      0.00000     0.79076    0.00130     0.79205
      H   11    0.20786      0.00000     0.79097    0.00117     0.79214
      H   12    0.20908      0.00000     0.78965    0.00126     0.79092
      H   13    0.21221      0.00000     0.78604    0.00175     0.78779
      C   14   -0.20269      1.99908     4.18373    0.01988     6.20269
      C   15   -0.20204      1.99919     4.18395    0.01890     6.20204
      C   16   -0.20406      1.99919     4.18563    0.01924     6.20406
      C   17   -0.20187      1.99919     4.18398    0.01870     6.20187
      C   18   -0.19603      1.99909     4.17705    0.01989     6.19603
      C   19   -0.32526      1.99899     4.29325    0.03302     6.32526
      H   20    0.21595      0.00000     0.78198    0.00207     0.78405
      H   21    0.20771      0.00000     0.79098    0.00131     0.79229
      H   22    0.20812      0.00000     0.79072    0.00117     0.79188
      H   23    0.20901      0.00000     0.78973    0.00126     0.79099
      H   24    0.21143      0.00000     0.78681    0.00176     0.78857
      C   25   -0.20952      1.99909     4.19043    0.02000     6.20952
      C   26   -0.19764      1.99919     4.17981    0.01864     6.19764
      C   27   -0.21519      1.99919     4.19649    0.01951     6.21519
      C   28   -0.19646      1.99919     4.17853    0.01874     6.19646
      C   29   -0.21085      1.99909     4.19214    0.01962     6.21085
      C   30   -0.32364      1.99899     4.29219    0.03245     6.32364
      H   31    0.20890      0.00000     0.78937    0.00173     0.79110
      H   32    0.20762      0.00000     0.79112    0.00126     0.79238
      H   33    0.20728      0.00000     0.79155    0.00117     0.79272
      H   34    0.20742      0.00000     0.79131    0.00128     0.79258
      H   35    0.21460      0.00000     0.78365    0.00175     0.78540
      C   36   -0.18316      1.99910     4.16387    0.02019     6.18316
      C   37   -0.20469      1.99918     4.18615    0.01936     6.20469
      C   38   -0.19378      1.99919     4.17564    0.01895     6.19378
      C   39   -0.20688      1.99919     4.18881    0.01889     6.20688
      C   40   -0.19180      1.99908     4.17266    0.02006     6.19180
      C   41   -0.33063      1.99899     4.29778    0.03386     6.33063
      H   42    0.22084      0.00000     0.77762    0.00153     0.77916
      H   43    0.21108      0.00000     0.78767    0.00125     0.78892
      H   44    0.20901      0.00000     0.78981    0.00117     0.79099
      H   45    0.20849      0.00000     0.79014    0.00137     0.79151
      H   46    0.20947      0.00000     0.78801    0.00252     0.79053
      C   47   -0.61599      1.99908     4.57428    0.04263     6.61599
      C   48   -0.32416      1.99901     4.30517    0.01997     6.32416
      H   49    0.20025      0.00000     0.79668    0.00307     0.79975
      H   50    0.19990      0.00000     0.79756    0.00255     0.80010
 =======================================================================
   * Total *    0.00000     71.97262   135.34253    0.68485   208.00000

 Normal termination of Gaussian 16 at Thu Jan 23 00:34:14 2025.
