 Gaussian 16, Revision B.01,
 Gaussian 16:  ES64L-G16RevB.01 20-Dec-2017

 --------------------------------------------
 # nmr=giao b3lyp/def2TZVP pop=nbo scfcyc=200
 --------------------------------------------

 --------------
 DS-48 SPE NoRh
 --------------
 Symbolic Z-matrix:
 Charge =  0 Multiplicity = 1

                         Standard orientation:
 ---------------------------------------------------------------------
 Center     Atomic      Atomic             Coordinates (Angstroms)
 Number     Number       Type             X           Y           Z
 ---------------------------------------------------------------------
      1         15           0       -1.022344   -0.051335   -0.615893
      2          6           0       -1.883079   -2.744559   -0.784571
      3          1           0       -2.817165   -3.262097   -0.568832
      4          6           0       -3.284778   -1.212157    0.617781
      5          1           0       -3.296926   -0.170254    0.905724
      6          6           0       -3.032747    1.853482   -0.847615
      7          1           0       -3.917676    1.446807   -0.347963
      8          6           0       -1.745462    2.125838    1.258353
      9          1           0       -1.805054    3.168344    0.955935
     10          7           0       -2.108161   -1.360033   -0.282510
     11          7           0       -1.818400    1.401335   -0.072206
     12          6           0       -3.185848   -2.035581    1.907951
     13          1           0       -4.036453   -1.806189    2.553459
     14          1           0       -3.209351   -3.109359    1.714408
     15          1           0       -2.273327   -1.810150    2.463598
     16          6           0       -4.609037   -1.492751   -0.108089
     17          1           0       -4.692967   -0.908163   -1.024534
     18          1           0       -4.731395   -2.546430   -0.365592
     19          1           0       -5.445727   -1.226524    0.541731
     20          6           0       -0.777779   -3.507807   -0.044729
     21          1           0        0.203909   -3.093537   -0.264287
     22          1           0       -0.927480   -3.488642    1.033729
     23          1           0       -0.773112   -4.553467   -0.363863
     24          6           0       -1.686455   -2.830093   -2.295986
     25          1           0       -1.704863   -3.875549   -2.611053
     26          1           0       -2.480026   -2.302643   -2.828276
     27          1           0       -0.724804   -2.413722   -2.596142
     28          6           0       -2.931067    1.867022    2.202573
     29          1           0       -3.900330    1.945246    1.711035
     30          1           0       -2.861571    0.891089    2.684232
     31          1           0       -2.914162    2.618328    2.995504
     32          6           0       -0.458629    2.049566    2.079946
     33          1           0       -0.382431    1.140383    2.671284
     34          1           0        0.441146    2.169552    1.484661
     35          1           0       -0.494890    2.874691    2.793253
     36          6           0       -3.190344    3.383619   -0.886177
     37          1           0       -3.988210    3.630846   -1.586879
     38          1           0       -3.466602    3.821643    0.070392
     39          1           0       -2.274664    3.861321   -1.240242
     40          6           0       -3.078123    1.362326   -2.292432
     41          1           0       -2.347116    1.901503   -2.890614
     42          1           0       -2.916737    0.290570   -2.399726
     43          1           0       -4.065948    1.583020   -2.699473
     44          6           0        0.487216   -0.247453    0.428166
     45          7           0        0.536279   -0.788591    1.600980
     46          7           0        0.569644   -1.294885    2.612647
     47          6           0        4.044108    1.202663    0.589587
     48          6           0        3.982976   -0.278237    0.916570
     49          1           0        4.919337    1.417311   -0.028493
     50          1           0        4.117368    1.800979    1.502910
     51          1           0        4.986020   -0.691925    0.984169
     52          1           0        3.484411   -0.445645    1.881753
     53         15           0        1.947643    0.149151   -0.636009
     54          7           0        2.812440    1.527397   -0.141474
     55          7           0        3.247500   -0.909159   -0.197271
     56          6           0        3.054465   -2.385134   -0.108453
     57          1           0        2.241602   -2.605866    0.595269
     58          6           0        2.497946    2.969089   -0.273041
     59          1           0        2.338927    3.343928    0.748716
     60          6           0        2.695148   -2.983918   -1.465236
     61          1           0        3.539747   -2.899328   -2.152220
     62          1           0        2.457855   -4.041636   -1.347799
     63          1           0        1.833253   -2.493946   -1.920039
     64          6           0        4.313887   -3.074355    0.426587
     65          1           0        4.533576   -2.816354    1.460940
     66          1           0        4.164428   -4.154312    0.388677
     67          1           0        5.182999   -2.834672   -0.190573
     68          6           0        1.233941    3.265874   -1.073803
     69          1           0        1.030028    4.336190   -1.012241
     70          1           0        1.356638    3.008881   -2.125345
     71          1           0        0.356765    2.741773   -0.697864
     72          6           0        3.682914    3.745271   -0.863000
     73          1           0        3.429452    4.804514   -0.921941
     74          1           0        4.583308    3.662154   -0.254937
     75          1           0        3.918100    3.395422   -1.871378
 ---------------------------------------------------------------------

 SCF Done:  E(RB3LYP) =  -1839.56355288     A.U. after   19 cycles

      1  P    Isotropic =   141.7019   Anisotropy =   124.8407

      2  C    Isotropic =   131.6527   Anisotropy =    39.1257

      3  H    Isotropic =    28.6471   Anisotropy =     3.5063

      4  C    Isotropic =   128.2667   Anisotropy =    45.8173

      5  H    Isotropic =    28.4448   Anisotropy =     9.0027

      6  C    Isotropic =   127.1656   Anisotropy =    47.5288

      7  H    Isotropic =    28.5849   Anisotropy =     3.8406

      8  C    Isotropic =   123.8977   Anisotropy =    50.5170

      9  H    Isotropic =    28.0032   Anisotropy =     3.6279

     10  N    Isotropic =   159.0781   Anisotropy =    34.8364

     11  N    Isotropic =   165.4896   Anisotropy =    46.9799

     12  C    Isotropic =   153.7764   Anisotropy =    40.6901

     13  H    Isotropic =    30.8675   Anisotropy =    10.0680

     14  H    Isotropic =    30.5900   Anisotropy =     5.8814

     15  H    Isotropic =    31.1948   Anisotropy =     5.3768

     16  C    Isotropic =   162.1507   Anisotropy =    37.8949

     17  H    Isotropic =    30.9951   Anisotropy =     6.7059

     18  H    Isotropic =    30.6091   Anisotropy =     6.8282

     19  H    Isotropic =    31.1328   Anisotropy =    10.0539

     20  C    Isotropic =   157.8006   Anisotropy =    40.5071

     21  H    Isotropic =    30.3536   Anisotropy =    10.3131

     22  H    Isotropic =    30.6196   Anisotropy =     3.9565

     23  H    Isotropic =    31.0606   Anisotropy =    10.0172

     24  C    Isotropic =   159.8760   Anisotropy =    34.8668

     25  H    Isotropic =    30.9146   Anisotropy =     9.9151

     26  H    Isotropic =    30.7128   Anisotropy =     7.2977

     27  H    Isotropic =    30.0081   Anisotropy =     4.8776

     28  C    Isotropic =   163.6343   Anisotropy =    27.7705

     29  H    Isotropic =    30.1738   Anisotropy =     6.5129

     30  H    Isotropic =    31.1631   Anisotropy =     5.5009

     31  H    Isotropic =    31.1306   Anisotropy =    10.8368

     32  C    Isotropic =   160.4209   Anisotropy =    33.3838

     33  H    Isotropic =    30.5335   Anisotropy =     4.7211

     34  H    Isotropic =    29.8324   Anisotropy =    10.5363

     35  H    Isotropic =    31.0014   Anisotropy =     9.4188

     36  C    Isotropic =   158.7601   Anisotropy =    34.5702

     37  H    Isotropic =    31.0135   Anisotropy =    10.0591

     38  H    Isotropic =    30.2689   Anisotropy =     7.7556

     39  H    Isotropic =    31.0973   Anisotropy =     6.8509

     40  C    Isotropic =   158.6817   Anisotropy =    27.4430

     41  H    Isotropic =    30.8140   Anisotropy =     6.5906

     42  H    Isotropic =    29.5680   Anisotropy =     7.9947

     43  H    Isotropic =    30.9995   Anisotropy =     9.6173

     44  C    Isotropic =   143.8038   Anisotropy =    82.1452

     45  N    Isotropic =   -39.7630   Anisotropy =   358.7225

     46  N    Isotropic =  -114.6405   Anisotropy =   141.1025

     47  C    Isotropic =   127.9984   Anisotropy =    43.4978

     48  C    Isotropic =   130.9253   Anisotropy =    35.8426

     49  H    Isotropic =    28.6706   Anisotropy =     9.3221

     50  H    Isotropic =    29.1572   Anisotropy =     7.3659

     51  H    Isotropic =    28.7653   Anisotropy =     7.2464

     52  H    Isotropic =    28.4996   Anisotropy =     7.1340

     53  P    Isotropic =   156.1787   Anisotropy =   227.4331

     54  N    Isotropic =   183.0399   Anisotropy =    69.2521

     55  N    Isotropic =   167.3573   Anisotropy =    61.9439

     56  C    Isotropic =   129.9000   Anisotropy =    42.6595

     57  H    Isotropic =    28.3175   Anisotropy =     6.7529

     58  C    Isotropic =   124.9852   Anisotropy =    43.9970

     59  H    Isotropic =    28.3776   Anisotropy =     4.2035

     60  C    Isotropic =   156.3201   Anisotropy =    32.3869

     61  H    Isotropic =    30.8914   Anisotropy =     7.3895

     62  H    Isotropic =    30.9848   Anisotropy =     8.1290

     63  H    Isotropic =    29.9526   Anisotropy =     7.7978

     64  C    Isotropic =   158.3775   Anisotropy =    33.4564

     65  H    Isotropic =    30.3819   Anisotropy =     8.1213

     66  H    Isotropic =    30.9392   Anisotropy =     9.2675

     67  H    Isotropic =    30.9697   Anisotropy =     8.3413

     68  C    Isotropic =   159.6162   Anisotropy =    33.4531

     69  H    Isotropic =    31.0135   Anisotropy =     7.9223

     70  H    Isotropic =    30.6644   Anisotropy =     5.0925

     71  H    Isotropic =    29.5846   Anisotropy =    14.4912

     72  C    Isotropic =   159.0336   Anisotropy =    37.7663

     73  H    Isotropic =    31.0385   Anisotropy =     9.8643

     74  H    Isotropic =    30.2520   Anisotropy =     8.4275

     75  H    Isotropic =    31.1107   Anisotropy =     7.4297

 The electronic state is 1-A.
 Alpha  occ. eigenvalues --  -77.07878 -77.07712 -14.44096 -14.36769 -14.31179
 Alpha  occ. eigenvalues --  -14.30940 -14.30738 -14.29628 -10.21221 -10.20982
 Alpha  occ. eigenvalues --  -10.20756 -10.20740 -10.20109 -10.19859 -10.19853
 Alpha  occ. eigenvalues --  -10.19773 -10.18582 -10.16307 -10.16195 -10.16128
 Alpha  occ. eigenvalues --  -10.16025 -10.15765 -10.15684 -10.15643 -10.15602
 Alpha  occ. eigenvalues --  -10.15549 -10.15495 -10.15212 -10.15021  -6.55596
 Alpha  occ. eigenvalues --   -6.55547  -4.71795  -4.71768  -4.71752  -4.71693
 Alpha  occ. eigenvalues --   -4.71248  -4.71212  -1.10060  -0.93974  -0.90988
 Alpha  occ. eigenvalues --   -0.88719  -0.88393  -0.83425  -0.79405  -0.79054
 Alpha  occ. eigenvalues --   -0.78412  -0.75688  -0.75564  -0.73267  -0.72641
 Alpha  occ. eigenvalues --   -0.69302  -0.69043  -0.68842  -0.68658  -0.68461
 Alpha  occ. eigenvalues --   -0.67897  -0.63894  -0.62456  -0.61083  -0.60274
 Alpha  occ. eigenvalues --   -0.59457  -0.56612  -0.56202  -0.56038  -0.52791
 Alpha  occ. eigenvalues --   -0.50440  -0.49482  -0.49205  -0.48716  -0.48204
 Alpha  occ. eigenvalues --   -0.48005  -0.47206  -0.46905  -0.46656  -0.45477
 Alpha  occ. eigenvalues --   -0.45366  -0.44965  -0.44477  -0.43895  -0.43374
 Alpha  occ. eigenvalues --   -0.43180  -0.42657  -0.42441  -0.41498  -0.40840
 Alpha  occ. eigenvalues --   -0.40529  -0.40175  -0.39779  -0.39653  -0.39200
 Alpha  occ. eigenvalues --   -0.39047  -0.38795  -0.38607  -0.38405  -0.38241
 Alpha  occ. eigenvalues --   -0.37949  -0.37863  -0.37554  -0.37102  -0.36214
 Alpha  occ. eigenvalues --   -0.36127  -0.35836  -0.35515  -0.35456  -0.35286
 Alpha  occ. eigenvalues --   -0.35019  -0.34737  -0.34296  -0.34185  -0.34071
 Alpha  occ. eigenvalues --   -0.33777  -0.33536  -0.32753  -0.32390  -0.32012
 Alpha  occ. eigenvalues --   -0.27418  -0.25279  -0.24110  -0.22728  -0.21284
 Alpha  occ. eigenvalues --   -0.19477  -0.17607
 Alpha virt. eigenvalues --   -0.03923  -0.01867   0.01921   0.02869   0.03489
 Alpha virt. eigenvalues --    0.04041   0.04435   0.04679   0.05299   0.05752
 Alpha virt. eigenvalues --    0.06064   0.06395   0.06736   0.07070   0.07388

 Mulliken charges:
               1
     1  P    0.264281
     2  C    0.018554
     3  H    0.062482
     4  C    0.047121
     5  H    0.041088
     6  C    0.047843
     7  H    0.068075
     8  C    0.021179
     9  H    0.088935
    10  N   -0.175699
    11  N   -0.257170
    12  C   -0.363233
    13  H    0.105751
    14  H    0.111903
    15  H    0.128602
    16  C   -0.354231
    17  H    0.121074
    18  H    0.103307
    19  H    0.106360
    20  C   -0.303249
    21  H    0.070338
    22  H    0.121814
    23  H    0.098687
    24  C   -0.337073
    25  H    0.104534
    26  H    0.107864
    27  H    0.121618
    28  C   -0.346223
    29  H    0.121656
    30  H    0.126643
    31  H    0.112730
    32  C   -0.377536
    33  H    0.122447
    34  H    0.130023
    35  H    0.111624
    36  C   -0.378025
    37  H    0.111860
    38  H    0.124865
    39  H    0.126920
    40  C   -0.373980
    41  H    0.113047
    42  H    0.137031
    43  H    0.109226
    44  C   -0.163915
    45  N    0.122364
    46  N   -0.233952
    47  C   -0.095956
    48  C   -0.163270
    49  H    0.085917
    50  H    0.080215
    51  H    0.106437
    52  H    0.095534
    53  P    0.228122
    54  N   -0.156407
    55  N   -0.195571
    56  C    0.013824
    57  H    0.085647
    58  C    0.016304
    59  H    0.059171
    60  C   -0.342002
    61  H    0.103575
    62  H    0.106865
    63  H    0.132308
    64  C   -0.367002
    65  H    0.126048
    66  H    0.110717
    67  H    0.114660
    68  C   -0.361063
    69  H    0.103157
    70  H    0.113343
    71  H    0.136015
    72  C   -0.337573
    73  H    0.102971
    74  H    0.119058
    75  H    0.111398
 Sum of Mulliken charges =  -0.00000

 Dipole moment (field-independent basis, Debye):
    X=             -0.5884    Y=              1.2655    Z=              0.5801  Tot=              1.5113
 Quadrupole moment (field-independent basis, Debye-Ang):
   XX=           -188.7367   YY=           -191.3971   ZZ=           -210.6157
   XY=             -0.7262   XZ=              2.8403   YZ=              4.0925

 Summary of Natural Population Analysis:

                                       Natural Population
                Natural  -----------------------------------------------
    Atom  No    Charge         Core      Valence    Rydberg      Total
 -----------------------------------------------------------------------
      P    1    1.24862      9.99781     3.69824    0.05533    13.75138
      C    2   -0.03037      1.99936     4.01281    0.01820     6.03037
      H    3    0.18622      0.00000     0.81096    0.00282     0.81378
      C    4   -0.04413      1.99935     4.02648    0.01829     6.04413
      H    5    0.21133      0.00000     0.78523    0.00344     0.78867
      C    6   -0.02494      1.99936     4.00727    0.01832     6.02494
      H    7    0.16512      0.00000     0.83164    0.00324     0.83488
      C    8   -0.02730      1.99931     4.00851    0.01947     6.02730
      H    9    0.18497      0.00000     0.81233    0.00270     0.81503
      N   10   -0.77642      1.99948     5.74147    0.03546     7.77642
      N   11   -0.77296      1.99951     5.74199    0.03146     7.77296
      C   12   -0.61300      1.99942     4.60089    0.01269     6.61300
      H   13    0.20253      0.00000     0.79627    0.00119     0.79747
      H   14    0.19786      0.00000     0.80090    0.00124     0.80214
      H   15    0.20912      0.00000     0.78885    0.00203     0.79088
      C   16   -0.60689      1.99941     4.59496    0.01252     6.60689
      H   17    0.20708      0.00000     0.79177    0.00114     0.79292
      H   18    0.19508      0.00000     0.80367    0.00124     0.80492
      H   19    0.20405      0.00000     0.79494    0.00100     0.79595
      C   20   -0.60743      1.99941     4.59517    0.01285     6.60743
      H   21    0.20107      0.00000     0.79709    0.00184     0.79893
      H   22    0.20845      0.00000     0.78992    0.00163     0.79155
      H   23    0.20030      0.00000     0.79854    0.00116     0.79970
      C   24   -0.59900      1.99941     4.58788    0.01170     6.59900
      H   25    0.20165      0.00000     0.79733    0.00102     0.79835
      H   26    0.20563      0.00000     0.79313    0.00124     0.79437
      H   27    0.20845      0.00000     0.79024    0.00132     0.79155
      C   28   -0.62063      1.99941     4.60853    0.01269     6.62063
      H   29    0.20143      0.00000     0.79746    0.00111     0.79857
      H   30    0.20339      0.00000     0.79525    0.00136     0.79661
      H   31    0.20920      0.00000     0.78963    0.00117     0.79080
      C   32   -0.59812      1.99939     4.58573    0.01300     6.59812
      H   33    0.19755      0.00000     0.79945    0.00299     0.80245
      H   34    0.21578      0.00000     0.78236    0.00186     0.78422
      H   35    0.20496      0.00000     0.79398    0.00106     0.79504
      C   36   -0.60841      1.99941     4.59619    0.01281     6.60841
      H   37    0.21051      0.00000     0.78840    0.00109     0.78949
      H   38    0.20214      0.00000     0.79682    0.00104     0.79786
      H   39    0.20689      0.00000     0.79169    0.00142     0.79311
      C   40   -0.60552      1.99940     4.59308    0.01303     6.60552
      H   41    0.20688      0.00000     0.79170    0.00142     0.79312
      H   42    0.22229      0.00000     0.77636    0.00135     0.77771
      H   43    0.20445      0.00000     0.79450    0.00105     0.79555
      C   44   -0.78612      1.99900     4.73939    0.04773     6.78612
      N   45    0.04859      1.99940     4.91784    0.03417     6.95141
      N   46   -0.08704      1.99966     5.05918    0.02820     7.08704
      C   47   -0.20613      1.99936     4.19095    0.01582     6.20613
      C   48   -0.22627      1.99936     4.20925    0.01766     6.22627
      H   49    0.17609      0.00000     0.82126    0.00266     0.82391
      H   50    0.18075      0.00000     0.81649    0.00276     0.81925
      H   51    0.20215      0.00000     0.79613    0.00172     0.79785
      H   52    0.16448      0.00000     0.83219    0.00333     0.83552
      P   53    1.24097      9.99793     3.70479    0.05631    13.75903
      N   54   -0.74374      1.99951     5.71226    0.03196     7.74374
      N   55   -0.72327      1.99955     5.68778    0.03593     7.72327
      C   56   -0.03477      1.99938     4.01751    0.01789     6.03477
      H   57    0.16916      0.00000     0.82622    0.00462     0.83084
      C   58   -0.01774      1.99938     3.99983    0.01852     6.01774
      H   59    0.16336      0.00000     0.83250    0.00414     0.83664
      C   60   -0.59820      1.99942     4.58628    0.01250     6.59820
      H   61    0.20538      0.00000     0.79305    0.00157     0.79462
      H   62    0.20382      0.00000     0.79511    0.00107     0.79618
      H   63    0.21533      0.00000     0.78334    0.00134     0.78467
      C   64   -0.59830      1.99943     4.58660    0.01227     6.59830
      H   65    0.20554      0.00000     0.79353    0.00093     0.79446
      H   66    0.21071      0.00000     0.78829    0.00100     0.78929
      H   67    0.20191      0.00000     0.79652    0.00157     0.79809
      C   68   -0.60907      1.99940     4.59685    0.01281     6.60907
      H   69    0.20460      0.00000     0.79438    0.00102     0.79540
      H   70    0.20996      0.00000     0.78868    0.00136     0.79004
      H   71    0.22608      0.00000     0.77280    0.00112     0.77392
      C   72   -0.59846      1.99943     4.58692    0.01212     6.59846
      H   73    0.20540      0.00000     0.79352    0.00108     0.79460
      H   74    0.20244      0.00000     0.79658    0.00098     0.79756
      H   75    0.20448      0.00000     0.79405    0.00147     0.79552
 =======================================================================
   * Total *    0.00000     73.97966   169.28970    0.73063   244.00000

 Normal termination of Gaussian 16 at Thu Jan 23 04:37:19 2025.
