 Gaussian 16, Revision B.01,
 Gaussian 16:  ES64L-G16RevB.01 20-Dec-2017

 --------------------------------------------
 # nmr=giao b3lyp/def2TZVP pop=nbo scfcyc=200
 --------------------------------------------

 --------------
 DS-51 SPE NoRh
 --------------
 Symbolic Z-matrix:
 Charge =  0 Multiplicity = 1

                         Standard orientation:
 ---------------------------------------------------------------------
 Center     Atomic      Atomic             Coordinates (Angstroms)
 Number     Number       Type             X           Y           Z
 ---------------------------------------------------------------------
      1         15           0        1.334758   -0.467980   -0.908300
      2         15           0       -1.399485   -0.349608   -0.979376
      3          6           0       -0.080752   -0.641628    0.403806
      4          6           0        5.130101   -0.792806    0.697237
      5          6           0        4.862812   -2.058395   -2.116484
      6          6           0        2.717066    3.663981    0.005000
      7          6           0        4.094656    2.089704   -2.288530
      8          6           0       -4.090220    2.913254   -1.386920
      9          6           0       -1.651150    3.821887    0.277263
     10          1           0        6.178937   -1.097848    0.725860
     11          1           0        5.091839    0.225892    0.307928
     12          1           0        4.759972   -0.777728    1.722415
     13          1           0        5.909527   -2.370497   -2.071655
     14          1           0        4.337186   -2.778913   -2.745830
     15          1           0        4.836030   -1.084721   -2.610478
     16          1           0        3.110496    4.611749   -0.370806
     17          1           0        1.775665    3.872281    0.515414
     18          1           0        3.425369    3.275940    0.739373
     19          1           0        4.472532    3.003153   -2.757467
     20          1           0        4.863352    1.735552   -1.600472
     21          1           0        3.974934    1.345918   -3.079499
     22          1           0       -4.770421    2.098605   -1.641260
     23          1           0       -4.695760    3.741731   -1.006864
     24          1           0       -3.608546    3.252168   -2.306208
     25          1           0       -2.181882    4.601841    0.828677
     26          1           0       -0.810908    3.489729    0.887145
     27          1           0       -1.261138    4.274496   -0.635647
     28          6           0       -3.623253    1.713328    1.444936
     29          1           0       -4.319560    0.906163    1.212358
     30          1           0       -2.880724    1.327849    2.143378
     31          1           0       -4.186679    2.501488    1.949984
     32          6           0        1.168779    3.028027   -2.631594
     33          1           0        1.037184    2.300978   -3.434349
     34          1           0        0.202297    3.167764   -2.145757
     35          1           0        1.465662    3.978833   -3.081280
     36          6           0        4.059201   -3.696410    0.397574
     37          1           0        3.606331   -3.661135    1.390549
     38          1           0        3.473605   -4.383376   -0.218401
     39          1           0        5.061168   -4.119380    0.505172
     40         14           0        2.471519    2.453682   -1.406152
     41         14           0        4.153539   -1.987670   -0.373343
     42         14           0       -2.813616    2.398486   -0.105869
     43          6           0       -5.133253   -1.146226   -2.138282
     44          1           0       -5.420158   -0.158519   -1.774381
     45          1           0       -4.591158   -1.017412   -3.077397
     46          1           0       -6.052735   -1.692441   -2.364310
     47          6           0       -5.021410   -2.206545    0.790048
     48          1           0       -5.320394   -1.225535    1.163395
     49          1           0       -5.925823   -2.811659    0.686138
     50          1           0       -4.391522   -2.678281    1.546679
     51          6           0       -3.675028   -3.806789   -1.483461
     52          1           0       -3.069458   -3.777814   -2.390386
     53          1           0       -3.129455   -4.377537   -0.729542
     54          1           0       -4.587496   -4.361631   -1.716587
     55         14           0       -4.130090   -2.092223   -0.857776
     56          8           0       -2.686081   -1.220045   -0.536775
     57          8           0       -1.860112    1.181708   -0.859771
     58          8           0        1.928142    1.008551   -0.650548
     59          8           0        2.520799   -1.460231   -0.463128
     60         14           0        0.388170    0.451852    3.017756
     61          6           0        2.196529   -0.051284    3.185049
     62          1           0        2.824558    0.528287    2.506881
     63          1           0        2.536050    0.145446    4.205653
     64          1           0        2.361195   -1.112119    2.986045
     65          6           0        0.182748    2.272407    3.430802
     66          1           0       -0.853606    2.598686    3.333899
     67          1           0        0.489135    2.453356    4.464752
     68          1           0        0.801728    2.900004    2.787183
     69          6           0       -0.706120   -0.594342    4.143788
     70          1           0       -0.497562   -0.344162    5.187261
     71          1           0       -1.766430   -0.399269    3.966841
     72          1           0       -0.534972   -1.665861    4.024896
     73          6           0       -0.169037   -2.066400    0.990837
     74          1           0       -1.095626   -2.094272    1.568067
     75          1           0        0.652370   -2.158765    1.705998
     76          8           0       -0.127412    0.336319    1.387074
     77          6           0       -0.122445   -3.279076    0.055110
     78          1           0       -0.260042   -4.186383    0.648075
     79          1           0       -0.908869   -3.257560   -0.696459
     80          1           0        0.833368   -3.365577   -0.456379
 ---------------------------------------------------------------------

 SCF Done:  E(RB3LYP) =  -3223.45330936     A.U. after   17 cycles

      1  P    Isotropic =    90.7585   Anisotropy =   230.3609

      2  P    Isotropic =    91.5919   Anisotropy =   239.5415

      3  C    Isotropic =    86.7313   Anisotropy =    28.0327

      4  C    Isotropic =   180.3229   Anisotropy =     8.7337

      5  C    Isotropic =   182.2628   Anisotropy =    11.0073

      6  C    Isotropic =   181.3959   Anisotropy =     9.6645

      7  C    Isotropic =   181.2032   Anisotropy =    11.1725

      8  C    Isotropic =   180.9024   Anisotropy =    12.6949

      9  C    Isotropic =   180.8926   Anisotropy =     9.2379

     10  H    Isotropic =    32.0127   Anisotropy =    10.4555

     11  H    Isotropic =    31.5047   Anisotropy =     7.7614

     12  H    Isotropic =    31.3585   Anisotropy =     7.8823

     13  H    Isotropic =    32.0827   Anisotropy =     9.9636

     14  H    Isotropic =    31.5195   Anisotropy =     8.1461

     15  H    Isotropic =    31.4059   Anisotropy =     8.3730

     16  H    Isotropic =    32.0263   Anisotropy =    10.4346

     17  H    Isotropic =    31.4184   Anisotropy =     8.5375

     18  H    Isotropic =    31.5818   Anisotropy =     6.2543

     19  H    Isotropic =    31.9239   Anisotropy =    10.1884

     20  H    Isotropic =    31.5653   Anisotropy =     7.2785

     21  H    Isotropic =    31.4072   Anisotropy =     6.8120

     22  H    Isotropic =    31.5359   Anisotropy =     8.9939

     23  H    Isotropic =    31.9923   Anisotropy =     9.8876

     24  H    Isotropic =    31.5438   Anisotropy =     7.5649

     25  H    Isotropic =    32.1125   Anisotropy =     9.4279

     26  H    Isotropic =    31.3138   Anisotropy =     9.6097

     27  H    Isotropic =    31.5960   Anisotropy =     7.3072

     28  C    Isotropic =   180.4690   Anisotropy =     7.8307

     29  H    Isotropic =    31.4647   Anisotropy =     9.1537

     30  H    Isotropic =    31.2630   Anisotropy =     9.1602

     31  H    Isotropic =    31.9547   Anisotropy =     9.9631

     32  C    Isotropic =   182.6050   Anisotropy =     9.2425

     33  H    Isotropic =    31.4434   Anisotropy =     6.5848

     34  H    Isotropic =    31.4758   Anisotropy =    11.2997

     35  H    Isotropic =    32.1570   Anisotropy =    10.0041

     36  C    Isotropic =   181.9373   Anisotropy =    11.4850

     37  H    Isotropic =    31.5888   Anisotropy =     6.4506

     38  H    Isotropic =    31.4984   Anisotropy =     7.1892

     39  H    Isotropic =    32.0456   Anisotropy =    10.5019

     40  Si   Isotropic =   293.6328   Anisotropy =    21.9916

     41  Si   Isotropic =   296.2245   Anisotropy =    25.5747

     42  Si   Isotropic =   294.2459   Anisotropy =    23.5710

     43  C    Isotropic =   181.9964   Anisotropy =    10.2172

     44  H    Isotropic =    31.5252   Anisotropy =     8.1747

     45  H    Isotropic =    31.3195   Anisotropy =     6.8727

     46  H    Isotropic =    31.9877   Anisotropy =    10.4297

     47  C    Isotropic =   180.7368   Anisotropy =    10.8954

     48  H    Isotropic =    31.5053   Anisotropy =     7.0208

     49  H    Isotropic =    31.9928   Anisotropy =    10.5865

     50  H    Isotropic =    31.5565   Anisotropy =     6.5100

     51  C    Isotropic =   181.7504   Anisotropy =     9.7443

     52  H    Isotropic =    31.5103   Anisotropy =     7.1225

     53  H    Isotropic =    31.5640   Anisotropy =     6.8249

     54  H    Isotropic =    32.0813   Anisotropy =    10.3869

     55  Si   Isotropic =   295.3315   Anisotropy =    25.4968

     56  O    Isotropic =   206.0891   Anisotropy =   141.8583

     57  O    Isotropic =   207.4616   Anisotropy =   138.0744

     58  O    Isotropic =   198.6424   Anisotropy =   138.0775

     59  O    Isotropic =   205.1694   Anisotropy =   145.4309

     60  Si   Isotropic =   296.8793   Anisotropy =    42.2848

     61  C    Isotropic =   179.2026   Anisotropy =    11.0866

     62  H    Isotropic =    31.4557   Anisotropy =     7.5421

     63  H    Isotropic =    31.8982   Anisotropy =     9.9147

     64  H    Isotropic =    31.6537   Anisotropy =     6.2425

     65  C    Isotropic =   181.2635   Anisotropy =     9.2906

     66  H    Isotropic =    31.6144   Anisotropy =     7.3489

     67  H    Isotropic =    32.1366   Anisotropy =    10.3656

     68  H    Isotropic =    31.5191   Anisotropy =     7.6265

     69  C    Isotropic =   179.3593   Anisotropy =    13.1704

     70  H    Isotropic =    31.9715   Anisotropy =    10.5305

     71  H    Isotropic =    31.5368   Anisotropy =     6.8870

     72  H    Isotropic =    31.6050   Anisotropy =     5.6562

     73  C    Isotropic =   147.4156   Anisotropy =    22.0343

     74  H    Isotropic =    30.0042   Anisotropy =     3.1116

     75  H    Isotropic =    30.0692   Anisotropy =     5.1432

     76  O    Isotropic =   249.2601   Anisotropy =    49.9011

     77  C    Isotropic =   171.6094   Anisotropy =    16.7251

     78  H    Isotropic =    31.1446   Anisotropy =     9.6971

     79  H    Isotropic =    30.5672   Anisotropy =    10.0157

     80  H    Isotropic =    30.3430   Anisotropy =     8.8844

 The electronic state is 1-A.
 Alpha  occ. eigenvalues --  -77.08105 -77.08055 -66.11908 -66.11797 -66.11588
 Alpha  occ. eigenvalues --  -66.11374 -66.11030 -19.10741 -19.10718 -19.10574
 Alpha  occ. eigenvalues --  -19.10523 -19.10511 -10.20895 -10.16546 -10.14993
 Alpha  occ. eigenvalues --  -10.14827 -10.14806 -10.14779 -10.14770 -10.14717
 Alpha  occ. eigenvalues --  -10.14705 -10.14659 -10.14618 -10.14508 -10.14501
 Alpha  occ. eigenvalues --  -10.14484 -10.14465 -10.14411 -10.14341 -10.14108
 Alpha  occ. eigenvalues --   -6.55661  -6.55599  -5.27548  -5.27444  -5.27260
 Alpha  occ. eigenvalues --   -5.27070  -5.26740  -4.72007  -4.71951  -4.71774
 Alpha  occ. eigenvalues --   -4.71715  -4.71222  -4.71148  -3.63581  -3.63478
 Alpha  occ. eigenvalues --   -3.63289  -3.63260  -3.63252  -3.63153  -3.63147
 Alpha  occ. eigenvalues --   -3.63093  -3.62975  -3.62957  -3.62778  -3.62776
 Alpha  occ. eigenvalues --   -3.62720  -3.62478  -3.62461  -1.00627  -0.99940
 Alpha  occ. eigenvalues --   -0.98902  -0.96146  -0.96097  -0.76888  -0.72022
 Alpha  occ. eigenvalues --   -0.71803  -0.71504  -0.71364  -0.71264  -0.68428
 Alpha  occ. eigenvalues --   -0.68420  -0.68312  -0.68291  -0.68177  -0.68101
 Alpha  occ. eigenvalues --   -0.68060  -0.67965  -0.67913  -0.67781  -0.67220
 Alpha  occ. eigenvalues --   -0.61808  -0.60429  -0.56588  -0.52640  -0.52249
 Alpha  occ. eigenvalues --   -0.50077  -0.46443  -0.44560  -0.43945  -0.43739
 Alpha  occ. eigenvalues --   -0.43062  -0.42796  -0.42609  -0.42244  -0.42006
 Alpha  occ. eigenvalues --   -0.41897  -0.41785  -0.41629  -0.41503  -0.41317
 Alpha  occ. eigenvalues --   -0.41210  -0.41005  -0.40903  -0.40712  -0.40671
 Alpha  occ. eigenvalues --   -0.40439  -0.40197  -0.40078  -0.39740  -0.39658
 Alpha  occ. eigenvalues --   -0.39606  -0.39448  -0.39405  -0.39351  -0.39277
 Alpha  occ. eigenvalues --   -0.39106  -0.38876  -0.38812  -0.38699  -0.38665
 Alpha  occ. eigenvalues --   -0.38584  -0.38343  -0.38247  -0.37930  -0.37676
 Alpha  occ. eigenvalues --   -0.37318  -0.37224  -0.36360  -0.35400  -0.34737
 Alpha  occ. eigenvalues --   -0.34583  -0.33935  -0.33403  -0.33224  -0.33088
 Alpha  occ. eigenvalues --   -0.31890  -0.30687  -0.30425  -0.30250  -0.29924
 Alpha  occ. eigenvalues --   -0.29734  -0.29246  -0.28925  -0.28555  -0.28225
 Alpha  occ. eigenvalues --   -0.27960  -0.25649  -0.19864  -0.15116
 Alpha virt. eigenvalues --    0.00514   0.00826   0.01959   0.03011   0.03349
 Alpha virt. eigenvalues --    0.03563   0.04089   0.04903   0.05270   0.05624
 Alpha virt. eigenvalues --    0.05768   0.06036   0.06362   0.06511   0.06762

 Mulliken charges:
               1
     1  P    0.343432
     2  P    0.348140
     3  C    0.280929
     4  C   -0.456886
     5  C   -0.461770
     6  C   -0.459148
     7  C   -0.481282
     8  C   -0.461590
     9  C   -0.489226
    10  H    0.113002
    11  H    0.114574
    12  H    0.132771
    13  H    0.110096
    14  H    0.122959
    15  H    0.126653
    16  H    0.113780
    17  H    0.125779
    18  H    0.116378
    19  H    0.117361
    20  H    0.118437
    21  H    0.124907
    22  H    0.117094
    23  H    0.107123
    24  H    0.121343
    25  H    0.112162
    26  H    0.138088
    27  H    0.119340
    28  C   -0.436670
    29  H    0.105290
    30  H    0.119366
    31  H    0.109969
    32  C   -0.450966
    33  H    0.129351
    34  H    0.128358
    35  H    0.108562
    36  C   -0.465595
    37  H    0.117767
    38  H    0.123075
    39  H    0.113557
    40  Si   0.555081
    41  Si   0.543733
    42  Si   0.568700
    43  C   -0.453236
    44  H    0.108521
    45  H    0.131804
    46  H    0.115178
    47  C   -0.446731
    48  H    0.119480
    49  H    0.109408
    50  H    0.121250
    51  C   -0.484211
    52  H    0.130498
    53  H    0.129074
    54  H    0.117966
    55  Si   0.542243
    56  O   -0.417674
    57  O   -0.404727
    58  O   -0.417652
    59  O   -0.401486
    60  Si   0.539906
    61  C   -0.489014
    62  H    0.134449
    63  H    0.114173
    64  H    0.116659
    65  C   -0.481430
    66  H    0.127274
    67  H    0.113411
    68  H    0.123325
    69  C   -0.462370
    70  H    0.114034
    71  H    0.127119
    72  H    0.125283
    73  C   -0.207578
    74  H    0.095918
    75  H    0.079148
    76  O   -0.420774
    77  C   -0.405679
    78  H    0.102590
    79  H    0.138271
    80  H    0.131555
 Sum of Mulliken charges =  -0.00000

 Dipole moment (field-independent basis, Debye):
    X=              0.1622    Y=              0.2728    Z=              1.6929  Tot=              1.7224
 Quadrupole moment (field-independent basis, Debye-Ang):
   XX=           -223.5082   YY=           -232.5187   ZZ=           -243.0008
   XY=              1.2457   XZ=             -0.2275   YZ=             -1.7817

 Summary of Natural Population Analysis:

                                       Natural Population
                Natural  -----------------------------------------------
    Atom  No    Charge         Core      Valence    Rydberg      Total
 -----------------------------------------------------------------------
      P    1    1.34037      9.99852     3.56073    0.10038    13.65963
      P    2    1.36453      9.99854     3.53669    0.10025    13.63547
      C    3   -0.29844      1.99939     4.25095    0.04810     6.29844
      C    4   -1.12428      1.99941     5.10383    0.02104     7.12428
      C    5   -1.12259      1.99942     5.10272    0.02045     7.12259
      C    6   -1.11979      1.99942     5.09979    0.02058     7.11979
      C    7   -1.12499      1.99942     5.10492    0.02064     7.12499
      C    8   -1.11866      1.99942     5.09893    0.02031     7.11866
      C    9   -1.12204      1.99941     5.10193    0.02070     7.12204
      H   10    0.22685      0.00000     0.77233    0.00082     0.77315
      H   11    0.23249      0.00000     0.76637    0.00113     0.76751
      H   12    0.23665      0.00000     0.76251    0.00084     0.76335
      H   13    0.22629      0.00000     0.77299    0.00073     0.77371
      H   14    0.23592      0.00000     0.76329    0.00079     0.76408
      H   15    0.23498      0.00000     0.76406    0.00096     0.76502
      H   16    0.22660      0.00000     0.77258    0.00082     0.77340
      H   17    0.23537      0.00000     0.76352    0.00111     0.76463
      H   18    0.23303      0.00000     0.76605    0.00092     0.76697
      H   19    0.22925      0.00000     0.77002    0.00073     0.77075
      H   20    0.22817      0.00000     0.77074    0.00109     0.77183
      H   21    0.23517      0.00000     0.76382    0.00101     0.76483
      H   22    0.22967      0.00000     0.76925    0.00109     0.77033
      H   23    0.22604      0.00000     0.77313    0.00082     0.77396
      H   24    0.23629      0.00000     0.76283    0.00087     0.76371
      H   25    0.22643      0.00000     0.77272    0.00085     0.77357
      H   26    0.24105      0.00000     0.75786    0.00108     0.75895
      H   27    0.23073      0.00000     0.76823    0.00104     0.76927
      C   28   -1.12310      1.99941     5.10250    0.02119     7.12310
      H   29    0.23107      0.00000     0.76775    0.00118     0.76893
      H   30    0.23818      0.00000     0.76061    0.00121     0.76182
      H   31    0.22575      0.00000     0.77334    0.00091     0.77425
      C   32   -1.12543      1.99941     5.10498    0.02104     7.12543
      H   33    0.24185      0.00000     0.75723    0.00092     0.75815
      H   34    0.23989      0.00000     0.75917    0.00094     0.76011
      H   35    0.22502      0.00000     0.77424    0.00074     0.77498
      C   36   -1.12019      1.99942     5.10063    0.02014     7.12019
      H   37    0.23287      0.00000     0.76620    0.00093     0.76713
      H   38    0.23545      0.00000     0.76361    0.00094     0.76455
      H   39    0.22726      0.00000     0.77199    0.00076     0.77274
     Si   40    1.92060      9.99797     2.04944    0.03200    12.07940
     Si   41    1.91748      9.99792     2.05364    0.03097    12.08252
     Si   42    1.90638      9.99794     2.05744    0.03824    12.09362
      C   43   -1.12332      1.99942     5.10341    0.02049     7.12332
      H   44    0.22884      0.00000     0.77008    0.00107     0.77116
      H   45    0.24016      0.00000     0.75899    0.00085     0.75984
      H   46    0.22794      0.00000     0.77133    0.00073     0.77206
      C   47   -1.11961      1.99942     5.09970    0.02049     7.11961
      H   48    0.23062      0.00000     0.76833    0.00105     0.76938
      H   49    0.22651      0.00000     0.77263    0.00086     0.77349
      H   50    0.23556      0.00000     0.76355    0.00089     0.76444
      C   51   -1.12738      1.99942     5.10727    0.02069     7.12738
      H   52    0.23893      0.00000     0.76024    0.00083     0.76107
      H   53    0.23448      0.00000     0.76456    0.00096     0.76552
      H   54    0.22844      0.00000     0.77081    0.00074     0.77156
     Si   55    1.92285      9.99792     2.04782    0.03141    12.07715
      O   56   -1.18540      1.99974     7.17419    0.01146     9.18540
      O   57   -1.15494      1.99975     7.14172    0.01346     9.15494
      O   58   -1.16499      1.99975     7.15220    0.01304     9.16499
      O   59   -1.18108      1.99974     7.16956    0.01178     9.18108
     Si   60    1.90486      9.99782     2.05748    0.03983    12.09514
      C   61   -1.13466      1.99942     5.11248    0.02276     7.13466
      H   62    0.23924      0.00000     0.75953    0.00123     0.76076
      H   63    0.22732      0.00000     0.77181    0.00087     0.77268
      H   64    0.22892      0.00000     0.76982    0.00126     0.77108
      C   65   -1.12163      1.99942     5.10112    0.02109     7.12163
      H   66    0.23238      0.00000     0.76669    0.00094     0.76762
      H   67    0.22740      0.00000     0.77179    0.00081     0.77260
      H   68    0.23414      0.00000     0.76476    0.00110     0.76586
      C   69   -1.13145      1.99942     5.10961    0.02242     7.13145
      H   70    0.22753      0.00000     0.77164    0.00083     0.77247
      H   71    0.23318      0.00000     0.76580    0.00102     0.76682
      H   72    0.23204      0.00000     0.76706    0.00090     0.76796
      C   73   -0.41871      1.99935     4.40342    0.01594     6.41871
      H   74    0.20251      0.00000     0.79470    0.00279     0.79749
      H   75    0.19378      0.00000     0.80371    0.00250     0.80622
      O   76   -0.87523      1.99972     6.85759    0.01792     8.87523
      C   77   -0.59797      1.99943     4.59132    0.00722     6.59797
      H   78    0.19954      0.00000     0.79904    0.00142     0.80046
      H   79    0.20816      0.00000     0.79029    0.00155     0.79184
      H   80    0.21290      0.00000     0.78559    0.00150     0.78710
 =======================================================================
   * Total *   -0.00000    115.97477   181.14725    0.87799   298.00000

 Normal termination of Gaussian 16 at Thu Jan 30 11:08:33 2025.
