 Gaussian 16, Revision B.01,
 Gaussian 16:  ES64L-G16RevB.01 20-Dec-2017

 --------------------------------------------
 # nmr=giao b3lyp/def2TZVP pop=nbo scfcyc=200
 --------------------------------------------

 --------------
 DS-56 SPE NoRh
 --------------
 Symbolic Z-matrix:
 Charge =  0 Multiplicity = 1

                         Standard orientation:
 ---------------------------------------------------------------------
 Center     Atomic      Atomic             Coordinates (Angstroms)
 Number     Number       Type             X           Y           Z
 ---------------------------------------------------------------------
      1         15           0        1.452526    0.181985   -1.137358
      2         15           0       -1.288543    0.256446   -1.074152
      3          6           0        0.122063   -0.407400    0.170494
      4          6           0        5.587375   -0.808246   -1.468117
      5          6           0        3.921013   -3.388664   -1.048921
      6          6           0        4.244848    2.802960    0.773569
      7          6           0        3.813077    2.916218   -2.308296
      8          6           0       -3.705000    3.018242   -2.026980
      9          6           0       -1.999275    4.469837    0.106963
     10          1           0        6.510515   -1.340755   -1.223059
     11          1           0        5.455895   -0.861717   -2.550955
     12          1           0        5.731101    0.237565   -1.192483
     13          1           0        4.786855   -3.972744   -0.725102
     14          1           0        3.031614   -3.821593   -0.590944
     15          1           0        3.835430   -3.496340   -2.132860
     16          1           0        4.868703    3.700116    0.801641
     17          1           0        3.752774    2.712219    1.744027
     18          1           0        4.907844    1.945216    0.648198
     19          1           0        4.548797    3.722811   -2.363588
     20          1           0        4.339225    1.980734   -2.505556
     21          1           0        3.087344    3.082890   -3.105385
     22          1           0       -4.121898    2.068193   -2.364159
     23          1           0       -4.527298    3.736598   -1.979769
     24          1           0       -3.002529    3.379915   -2.781284
     25          1           0       -2.721574    5.284760    0.208956
     26          1           0       -1.463226    4.383203    1.054434
     27          1           0       -1.281716    4.754968   -0.663300
     28          6           0       -4.148732    2.416268    0.983545
     29          1           0       -4.625668    1.460391    0.769388
     30          1           0       -3.691715    2.354439    1.972063
     31          1           0       -4.932967    3.176140    1.029472
     32          6           0        1.897711    4.446279   -0.415653
     33          1           0        1.150914    4.500642   -1.209135
     34          1           0        1.376170    4.441506    0.542669
     35          1           0        2.501977    5.356151   -0.460632
     36          6           0        4.274553   -1.356966    1.295381
     37          1           0        4.291231   -0.301951    1.572820
     38          1           0        3.446394   -1.834337    1.819506
     39          1           0        5.203420   -1.809810    1.653712
     40         14           0        2.988225    2.933798   -0.617220
     41         14           0        4.135566   -1.590134   -0.563754
     42         14           0       -2.891079    2.879096   -0.334053
     43          6           0       -5.501767   -0.788208   -1.300455
     44          1           0       -5.717232   -0.227013   -0.390542
     45          1           0       -5.484614   -0.089148   -2.138903
     46          1           0       -6.334228   -1.476607   -1.465938
     47          6           0       -3.904753   -2.892328    0.329677
     48          1           0       -4.115851   -2.342795    1.247395
     49          1           0       -4.682097   -3.650576    0.208616
     50          1           0       -2.950709   -3.407043    0.449246
     51          6           0       -3.619395   -2.749093   -2.748055
     52          1           0       -3.766498   -2.145201   -3.645015
     53          1           0       -2.628118   -3.201814   -2.789866
     54          1           0       -4.349694   -3.561918   -2.785826
     55         14           0       -3.899121   -1.763255   -1.166640
     56          8           0       -2.642653   -0.611636   -0.968496
     57          8           0       -1.679101    1.661539   -0.377873
     58          8           0        1.947927    1.570189   -0.463055
     59          8           0        2.730006   -0.779136   -1.141883
     60          7           0        0.254664    0.264034    1.414790
     61          1           0        0.638192    1.187884    1.257944
     62          6           0        0.150313   -1.927761    0.234207
     63          6           0        0.624802   -2.575634    1.376847
     64          6           0       -0.215332   -2.728550   -0.857753
     65          1           0        0.966456   -1.988703    2.213408
     66          6           0       -0.141655   -4.114579   -0.791697
     67          1           0       -0.549184   -2.271499   -1.779966
     68          6           0        0.296742   -4.743119    0.369531
     69          1           0       -0.431382   -4.706999   -1.651160
     70          1           0        0.342422   -5.823694    0.424397
     71         14           0       -0.561034    0.210806    3.009801
     72          6           0        0.490217   -0.628436    4.344334
     73          1           0        1.537857   -0.325847    4.279047
     74          1           0        0.123722   -0.322354    5.328328
     75          1           0        0.446592   -1.718739    4.314188
     76          6           0       -2.240295   -0.637156    2.916153
     77          1           0       -2.138670   -1.692763    2.662354
     78          1           0       -2.732878   -0.579164    3.890816
     79          1           0       -2.893379   -0.168249    2.179745
     80          6           0       -0.710661    2.030831    3.499437
     81          1           0       -1.170546    2.123865    4.486134
     82          1           0        0.272368    2.506303    3.558994
     83          1           0       -1.316071    2.597572    2.792092
     84          6           0        0.684870   -3.964078    1.451266
     85          1           0        1.044000   -4.433923    2.358670
 ---------------------------------------------------------------------

 SCF Done:  E(RB3LYP) =  -3356.03132311     A.U. after   15 cycles

      1  P    Isotropic =   120.8116   Anisotropy =   210.7709

      2  P    Isotropic =    76.3943   Anisotropy =   247.4227

      3  C    Isotropic =    94.3856   Anisotropy =    30.9627

      4  C    Isotropic =   181.3302   Anisotropy =    11.7092

      5  C    Isotropic =   183.6436   Anisotropy =     9.4890

      6  C    Isotropic =   180.7883   Anisotropy =     9.5091

      7  C    Isotropic =   183.1517   Anisotropy =     9.8359

      8  C    Isotropic =   182.7056   Anisotropy =     9.9824

      9  C    Isotropic =   180.5862   Anisotropy =    10.6311

     10  H    Isotropic =    32.1722   Anisotropy =    10.5109

     11  H    Isotropic =    31.7193   Anisotropy =     7.5577

     12  H    Isotropic =    31.7531   Anisotropy =     7.5188

     13  H    Isotropic =    32.7309   Anisotropy =    10.6959

     14  H    Isotropic =    33.1326   Anisotropy =    14.4829

     15  H    Isotropic =    32.3006   Anisotropy =     7.6771

     16  H    Isotropic =    31.9547   Anisotropy =    10.6330

     17  H    Isotropic =    31.4851   Anisotropy =     6.2403

     18  H    Isotropic =    31.5095   Anisotropy =     7.6323

     19  H    Isotropic =    32.0508   Anisotropy =    10.2051

     20  H    Isotropic =    31.3986   Anisotropy =     8.7148

     21  H    Isotropic =    31.4306   Anisotropy =     7.7448

     22  H    Isotropic =    31.2951   Anisotropy =     8.6931

     23  H    Isotropic =    32.0588   Anisotropy =     9.9575

     24  H    Isotropic =    31.4458   Anisotropy =     7.8425

     25  H    Isotropic =    31.9741   Anisotropy =    10.1293

     26  H    Isotropic =    31.4412   Anisotropy =     6.7142

     27  H    Isotropic =    31.5487   Anisotropy =     8.3382

     28  C    Isotropic =   179.6701   Anisotropy =     8.3352

     29  H    Isotropic =    31.5486   Anisotropy =     8.1645

     30  H    Isotropic =    31.4635   Anisotropy =     7.1581

     31  H    Isotropic =    32.0092   Anisotropy =    10.5649

     32  C    Isotropic =   180.3892   Anisotropy =    12.1317

     33  H    Isotropic =    31.5828   Anisotropy =     7.4901

     34  H    Isotropic =    31.5573   Anisotropy =     7.1558

     35  H    Isotropic =    31.9529   Anisotropy =    10.1137

     36  C    Isotropic =   180.4401   Anisotropy =     9.3571

     37  H    Isotropic =    31.7195   Anisotropy =     7.2060

     38  H    Isotropic =    31.6362   Anisotropy =     9.2897

     39  H    Isotropic =    32.1899   Anisotropy =    10.7659

     40  Si   Isotropic =   292.3314   Anisotropy =    24.7698

     41  Si   Isotropic =   294.6068   Anisotropy =    20.9180

     42  Si   Isotropic =   294.5068   Anisotropy =    27.3648

     43  C    Isotropic =   180.1885   Anisotropy =    11.6497

     44  H    Isotropic =    31.6393   Anisotropy =     6.7210

     45  H    Isotropic =    31.5515   Anisotropy =     6.8339

     46  H    Isotropic =    32.0492   Anisotropy =    10.5141

     47  C    Isotropic =   181.3684   Anisotropy =     7.1158

     48  H    Isotropic =    32.1065   Anisotropy =     6.4911

     49  H    Isotropic =    32.5772   Anisotropy =    10.9597

     50  H    Isotropic =    32.6537   Anisotropy =    11.4705

     51  C    Isotropic =   182.2855   Anisotropy =    11.2650

     52  H    Isotropic =    31.4941   Anisotropy =     8.0387

     53  H    Isotropic =    31.1933   Anisotropy =     8.0492

     54  H    Isotropic =    32.1362   Anisotropy =    10.0092

     55  Si   Isotropic =   297.2072   Anisotropy =    28.3068

     56  O    Isotropic =   208.9847   Anisotropy =   109.2027

     57  O    Isotropic =   197.6006   Anisotropy =   125.6121

     58  O    Isotropic =   188.7189   Anisotropy =    95.4606

     59  O    Isotropic =   208.3245   Anisotropy =    99.7120

     60  N    Isotropic =   219.1068   Anisotropy =    44.0195

     61  H    Isotropic =    30.5386   Anisotropy =    13.2053

     62  C    Isotropic =    32.7413   Anisotropy =   191.7967

     63  C    Isotropic =    51.6584   Anisotropy =   188.6054

     64  C    Isotropic =    50.6961   Anisotropy =   188.2476

     65  H    Isotropic =    23.9051   Anisotropy =     7.3552

     66  C    Isotropic =    50.5692   Anisotropy =   184.6570

     67  H    Isotropic =    24.2034   Anisotropy =     7.3428

     68  C    Isotropic =    55.8483   Anisotropy =   177.6513

     69  H    Isotropic =    24.3670   Anisotropy =     5.2175

     70  H    Isotropic =    24.6298   Anisotropy =     2.9983

     71  Si   Isotropic =   307.3974   Anisotropy =    46.7795

     72  C    Isotropic =   178.7318   Anisotropy =    14.9319

     73  H    Isotropic =    31.4817   Anisotropy =     6.4089

     74  H    Isotropic =    31.8166   Anisotropy =    10.1448

     75  H    Isotropic =    31.1288   Anisotropy =     7.3283

     76  C    Isotropic =   181.8022   Anisotropy =     8.5031

     77  H    Isotropic =    32.0881   Anisotropy =     6.1327

     78  H    Isotropic =    32.0959   Anisotropy =    10.1493

     79  H    Isotropic =    31.9313   Anisotropy =     8.9282

     80  C    Isotropic =   181.8699   Anisotropy =    11.7216

     81  H    Isotropic =    31.9492   Anisotropy =    10.4883

     82  H    Isotropic =    31.5190   Anisotropy =     6.6251

     83  H    Isotropic =    31.4931   Anisotropy =     9.8912

     84  C    Isotropic =    50.6126   Anisotropy =   183.8343

     85  H    Isotropic =    24.3352   Anisotropy =     6.0573

 The electronic state is 1-A.
 Alpha  occ. eigenvalues --  -77.09133 -77.08773 -66.12235 -66.11831 -66.11810
 Alpha  occ. eigenvalues --  -66.11557 -66.09666 -19.11657 -19.11148 -19.11053
 Alpha  occ. eigenvalues --  -19.10816 -14.27584 -10.19821 -10.18093 -10.16945
 Alpha  occ. eigenvalues --  -10.16912 -10.16600 -10.16584 -10.16267 -10.15245
 Alpha  occ. eigenvalues --  -10.15061 -10.14947 -10.14823 -10.14816 -10.14808
 Alpha  occ. eigenvalues --  -10.14778 -10.14653 -10.14568 -10.14451 -10.14209
 Alpha  occ. eigenvalues --  -10.14115 -10.14076 -10.13950 -10.13814  -6.56615
 Alpha  occ. eigenvalues --   -6.56254  -5.27913  -5.27488  -5.27457  -5.27248
 Alpha  occ. eigenvalues --   -5.25506  -4.72945  -4.72717  -4.72594  -4.72350
 Alpha  occ. eigenvalues --   -4.72201  -4.71836  -3.63948  -3.63617  -3.63613
 Alpha  occ. eigenvalues --   -3.63511  -3.63498  -3.63290  -3.63201  -3.63191
 Alpha  occ. eigenvalues --   -3.63173  -3.63146  -3.62955  -3.62934  -3.61412
 Alpha  occ. eigenvalues --   -3.61288  -3.61235  -1.00771  -1.00282  -0.96820
 Alpha  occ. eigenvalues --   -0.96338  -0.87223  -0.84455  -0.75281  -0.74140
 Alpha  occ. eigenvalues --   -0.72205  -0.71917  -0.71449  -0.71407  -0.70880
 Alpha  occ. eigenvalues --   -0.68775  -0.68597  -0.68396  -0.68250  -0.68186
 Alpha  occ. eigenvalues --   -0.68165  -0.67976  -0.67805  -0.67603  -0.67351
 Alpha  occ. eigenvalues --   -0.66342  -0.60948  -0.60778  -0.59869  -0.56242
 Alpha  occ. eigenvalues --   -0.53486  -0.52678  -0.51049  -0.48472  -0.47645
 Alpha  occ. eigenvalues --   -0.45373  -0.44546  -0.43907  -0.43772  -0.43033
 Alpha  occ. eigenvalues --   -0.42893  -0.42825  -0.42580  -0.42360  -0.42194
 Alpha  occ. eigenvalues --   -0.41984  -0.41743  -0.41676  -0.41493  -0.41153
 Alpha  occ. eigenvalues --   -0.41071  -0.41033  -0.40913  -0.40757  -0.40560
 Alpha  occ. eigenvalues --   -0.40260  -0.40207  -0.40100  -0.39867  -0.39685
 Alpha  occ. eigenvalues --   -0.39551  -0.39492  -0.39416  -0.39149  -0.39074
 Alpha  occ. eigenvalues --   -0.38989  -0.38972  -0.38762  -0.38708  -0.38578
 Alpha  occ. eigenvalues --   -0.38398  -0.38327  -0.38199  -0.38075  -0.37827
 Alpha  occ. eigenvalues --   -0.37480  -0.36396  -0.36164  -0.35669  -0.34730
 Alpha  occ. eigenvalues --   -0.34500  -0.33981  -0.33905  -0.33669  -0.33450
 Alpha  occ. eigenvalues --   -0.32430  -0.30524  -0.30346  -0.30303  -0.30266
 Alpha  occ. eigenvalues --   -0.29891  -0.29767  -0.29180  -0.28995  -0.28836
 Alpha  occ. eigenvalues --   -0.28399  -0.25160  -0.24763  -0.23004  -0.20197
 Alpha  occ. eigenvalues --   -0.15172
 Alpha virt. eigenvalues --   -0.01079  -0.01055   0.00510   0.01045   0.02097
 Alpha virt. eigenvalues --    0.03110   0.03164   0.03627   0.04114   0.04801
 Alpha virt. eigenvalues --    0.05227   0.05411   0.05878   0.06053   0.06100

 Mulliken charges:
               1
     1  P    0.369717
     2  P    0.346831
     3  C    0.269214
     4  C   -0.484874
     5  C   -0.475058
     6  C   -0.456413
     7  C   -0.466114
     8  C   -0.475366
     9  C   -0.463900
    10  H    0.114971
    11  H    0.123835
    12  H    0.116967
    13  H    0.104700
    14  H    0.166934
    15  H    0.116026
    16  H    0.116323
    17  H    0.121533
    18  H    0.120768
    19  H    0.114863
    20  H    0.137384
    21  H    0.128241
    22  H    0.124661
    23  H    0.112012
    24  H    0.121963
    25  H    0.112000
    26  H    0.125184
    27  H    0.118499
    28  C   -0.464509
    29  H    0.117728
    30  H    0.133716
    31  H    0.115490
    32  C   -0.443087
    33  H    0.116098
    34  H    0.121095
    35  H    0.113094
    36  C   -0.456688
    37  H    0.128246
    38  H    0.131827
    39  H    0.110044
    40  Si   0.535552
    41  Si   0.558945
    42  Si   0.563303
    43  C   -0.484135
    44  H    0.119030
    45  H    0.120131
    46  H    0.116331
    47  C   -0.463684
    48  H    0.127105
    49  H    0.109602
    50  H    0.158555
    51  C   -0.452894
    52  H    0.120891
    53  H    0.122379
    54  H    0.111002
    55  Si   0.536411
    56  O   -0.380600
    57  O   -0.402511
    58  O   -0.444777
    59  O   -0.380673
    60  N   -0.475024
    61  H    0.199404
    62  C   -0.006172
    63  C   -0.261003
    64  C   -0.237742
    65  H    0.207910
    66  C   -0.112425
    67  H    0.140996
    68  C   -0.125161
    69  H    0.102634
    70  H    0.101763
    71  Si   0.487235
    72  C   -0.486491
    73  H    0.115509
    74  H    0.114647
    75  H    0.126188
    76  C   -0.475488
    77  H    0.142336
    78  H    0.112434
    79  H    0.130147
    80  C   -0.480505
    81  H    0.111034
    82  H    0.115332
    83  H    0.107071
    84  C   -0.126346
    85  H    0.097800
 Sum of Mulliken charges =  -0.00000

 Dipole moment (field-independent basis, Debye):
    X=              0.1494    Y=              1.0857    Z=              1.0596  Tot=              1.5244
 Quadrupole moment (field-independent basis, Debye-Ang):
   XX=           -246.1707   YY=           -249.9699   ZZ=           -267.9210
   XY=              1.9365   XZ=              2.2340   YZ=              0.7361

 Summary of Natural Population Analysis:

                                       Natural Population
                Natural  -----------------------------------------------
    Atom  No    Charge         Core      Valence    Rydberg      Total
 -----------------------------------------------------------------------
      P    1    1.40767      9.99853     3.49567    0.09813    13.59233
      P    2    1.35811      9.99855     3.55330    0.09004    13.64189
      C    3   -0.42570      1.99932     4.37221    0.05416     6.42570
      C    4   -1.12047      1.99942     5.10074    0.02030     7.12047
      C    5   -1.12113      1.99941     5.10130    0.02041     7.12113
      C    6   -1.12239      1.99942     5.10226    0.02071     7.12239
      C    7   -1.12586      1.99942     5.10575    0.02068     7.12586
      C    8   -1.12281      1.99942     5.10293    0.02046     7.12281
      C    9   -1.11837      1.99942     5.09881    0.02014     7.11837
      H   10    0.22869      0.00000     0.77048    0.00083     0.77131
      H   11    0.23664      0.00000     0.76246    0.00091     0.76336
      H   12    0.22747      0.00000     0.77145    0.00107     0.77253
      H   13    0.22503      0.00000     0.77415    0.00082     0.77497
      H   14    0.24806      0.00000     0.75089    0.00104     0.75194
      H   15    0.23540      0.00000     0.76374    0.00086     0.76460
      H   16    0.22873      0.00000     0.77045    0.00082     0.77127
      H   17    0.23539      0.00000     0.76364    0.00097     0.76461
      H   18    0.23111      0.00000     0.76786    0.00103     0.76889
      H   19    0.22856      0.00000     0.77072    0.00072     0.77144
      H   20    0.23910      0.00000     0.76005    0.00086     0.76090
      H   21    0.23883      0.00000     0.76032    0.00085     0.76117
      H   22    0.23587      0.00000     0.76311    0.00101     0.76413
      H   23    0.22716      0.00000     0.77209    0.00075     0.77284
      H   24    0.23579      0.00000     0.76337    0.00084     0.76421
      H   25    0.22810      0.00000     0.77115    0.00075     0.77190
      H   26    0.23353      0.00000     0.76540    0.00107     0.76647
      H   27    0.23482      0.00000     0.76419    0.00099     0.76518
      C   28   -1.12321      1.99941     5.10274    0.02105     7.12321
      H   29    0.23328      0.00000     0.76555    0.00116     0.76672
      H   30    0.23405      0.00000     0.76505    0.00090     0.76595
      H   31    0.22795      0.00000     0.77121    0.00084     0.77205
      C   32   -1.11987      1.99942     5.10013    0.02031     7.11987
      H   33    0.23565      0.00000     0.76336    0.00098     0.76435
      H   34    0.23547      0.00000     0.76360    0.00093     0.76453
      H   35    0.22844      0.00000     0.77083    0.00073     0.77156
      C   36   -1.12491      1.99941     5.10445    0.02105     7.12491
      H   37    0.23438      0.00000     0.76460    0.00102     0.76562
      H   38    0.24025      0.00000     0.75861    0.00114     0.75975
      H   39    0.22653      0.00000     0.77255    0.00091     0.77347
     Si   40    1.91614      9.99796     2.05419    0.03172    12.08386
     Si   41    1.90176      9.99791     2.06314    0.03719    12.09824
     Si   42    1.91063      9.99795     2.05434    0.03708    12.08937
      C   43   -1.12071      1.99942     5.10114    0.02014     7.12071
      H   44    0.22900      0.00000     0.76994    0.00106     0.77100
      H   45    0.23180      0.00000     0.76720    0.00101     0.76820
      H   46    0.22919      0.00000     0.77005    0.00075     0.77081
      C   47   -1.12977      1.99941     5.10926    0.02109     7.12977
      H   48    0.23584      0.00000     0.76332    0.00084     0.76416
      H   49    0.22585      0.00000     0.77335    0.00080     0.77415
      H   50    0.24627      0.00000     0.75279    0.00095     0.75373
      C   51   -1.12135      1.99942     5.10171    0.02022     7.12135
      H   52    0.23367      0.00000     0.76553    0.00080     0.76633
      H   53    0.23387      0.00000     0.76514    0.00099     0.76613
      H   54    0.22735      0.00000     0.77192    0.00073     0.77265
     Si   55    1.92649      9.99784     2.04503    0.03065    12.07351
      O   56   -1.19182      1.99973     7.17777    0.01432     9.19182
      O   57   -1.16252      1.99975     7.14534    0.01743     9.16252
      O   58   -1.18171      1.99976     7.16977    0.01219     9.18171
      O   59   -1.16666      1.99974     7.15450    0.01243     9.16666
      N   60   -1.05863      1.99945     6.02730    0.03188     8.05863
      H   61    0.39940      0.00000     0.59644    0.00416     0.60060
      C   62   -0.04127      1.99898     4.01711    0.02519     6.04127
      C   63   -0.22976      1.99906     4.20969    0.02101     6.22976
      C   64   -0.22554      1.99908     4.20701    0.01945     6.22554
      H   65    0.21833      0.00000     0.77921    0.00246     0.78167
      C   66   -0.20332      1.99918     4.18533    0.01881     6.20332
      H   67    0.21590      0.00000     0.78218    0.00192     0.78410
      C   68   -0.23152      1.99918     4.21224    0.02010     6.23152
      H   69    0.20674      0.00000     0.79196    0.00130     0.79326
      H   70    0.20733      0.00000     0.79144    0.00122     0.79267
     Si   71    1.81353      9.99795     2.15307    0.03544    12.18647
      C   72   -1.11895      1.99943     5.09841    0.02110     7.11895
      H   73    0.23165      0.00000     0.76746    0.00089     0.76835
      H   74    0.22706      0.00000     0.77209    0.00085     0.77294
      H   75    0.22701      0.00000     0.77204    0.00096     0.77299
      C   76   -1.12150      1.99941     5.10102    0.02106     7.12150
      H   77    0.23899      0.00000     0.76005    0.00097     0.76101
      H   78    0.22671      0.00000     0.77247    0.00082     0.77329
      H   79    0.23537      0.00000     0.76334    0.00129     0.76463
      C   80   -1.10685      1.99943     5.08736    0.02006     7.10685
      H   81    0.22628      0.00000     0.77282    0.00090     0.77372
      H   82    0.22616      0.00000     0.77282    0.00102     0.77384
      H   83    0.22628      0.00000     0.77241    0.00130     0.77372
      C   84   -0.20343      1.99918     4.18548    0.01877     6.20343
      H   85    0.20532      0.00000     0.79339    0.00128     0.79468
 =======================================================================
   * Total *   -0.00000    123.97035   197.04079    0.98886   322.00000

 Normal termination of Gaussian 16 at Thu Jan 23 16:16:06 2025.
