 Gaussian 16, Revision B.01,
 Gaussian 16:  ES64L-G16RevB.01 20-Dec-2017

 --------------------------------------------
 # nmr=giao b3lyp/def2TZVP pop=nbo scfcyc=200
 --------------------------------------------

 --------------
 DS-50 SPE NoRh
 --------------
 Symbolic Z-matrix:
 Charge =  0 Multiplicity = 1

                         Standard orientation:
 ---------------------------------------------------------------------
 Center     Atomic      Atomic             Coordinates (Angstroms)
 Number     Number       Type             X           Y           Z
 ---------------------------------------------------------------------
      1         15           0        1.494478   -0.002595   -0.836856
      2         15           0       -1.196202    0.456132   -0.762525
      3          6           0        0.082806   -0.388815    0.448874
      4          6           0        5.496503   -1.056337   -0.167482
      5          6           0        3.892251   -3.672775   -0.635704
      6          6           0        3.321283    3.568604    1.114490
      7          6           0        4.417652    2.485029   -1.586569
      8          6           0       -3.679938    3.706361   -0.211900
      9          6           0       -1.246923    4.137887    1.666385
     10          1           0        6.309080   -1.635704    0.278851
     11          1           0        5.721754   -0.933427   -1.228758
     12          1           0        5.499120   -0.070938    0.302294
     13          1           0        4.662440   -4.275078   -0.148357
     14          1           0        2.934531   -4.178630   -0.497288
     15          1           0        4.117592   -3.646914   -1.703201
     16          1           0        3.826184    4.527749    0.977031
     17          1           0        2.430093    3.749174    1.719047
     18          1           0        3.990640    2.919479    1.682688
     19          1           0        4.885336    3.434159   -1.860892
     20          1           0        5.157833    1.895613   -1.045273
     21          1           0        4.180855    1.958857   -2.513966
     22          1           0       -4.315034    2.973281   -0.712248
     23          1           0       -4.329375    4.363578    0.371104
     24          1           0       -3.193884    4.314594   -0.978602
     25          1           0       -1.809157    4.821806    2.307806
     26          1           0       -0.487019    3.658583    2.288325
     27          1           0       -0.744550    4.739023    0.907119
     28          6           0       -3.204576    1.797007    2.214459
     29          1           0       -3.920084    1.093645    1.786089
     30          1           0       -2.445594    1.227331    2.751894
     31          1           0       -3.739591    2.422461    2.934532
     32          6           0        1.634530    3.847274   -1.494835
     33          1           0        1.344509    3.353568   -2.424243
     34          1           0        0.728736    4.007663   -0.907612
     35          1           0        2.057011    4.823093   -1.745068
     36          6           0        3.361965   -1.934411    1.904676
     37          1           0        3.292363   -0.915745    2.294399
     38          1           0        2.409095   -2.440242    2.065284
     39          1           0        4.117893   -2.457567    2.497253
     40         14           0        2.885098    2.815198   -0.546753
     41         14           0        3.862183   -1.944119    0.091840
     42         14           0       -2.411764    2.876547    0.900551
     43          6           0       -5.093968   -0.029313   -2.034373
     44          1           0       -5.411265    0.828489   -1.436404
     45          1           0       -4.600128    0.348134   -2.931940
     46          1           0       -5.997081   -0.555277   -2.354523
     47          6           0       -4.806284   -1.734865    0.553006
     48          1           0       -5.146672   -0.885638    1.148280
     49          1           0       -5.678240   -2.355496    0.332857
     50          1           0       -4.118588   -2.324433    1.161199
     51          6           0       -3.447239   -2.665917   -2.069548
     52          1           0       -2.908283   -2.372843   -2.972376
     53          1           0       -2.805500   -3.331232   -1.492232
     54          1           0       -4.327818   -3.233392   -2.379797
     55         14           0       -3.990450   -1.187538   -1.043467
     56          8           0       -2.608484   -0.279767   -0.571728
     57          8           0       -1.411454    1.923397   -0.137875
     58          8           0        2.144357    1.310648   -0.134178
     59          8           0        2.667287   -1.100124   -0.830080
     60          7           0        0.169912    0.281873    1.714438
     61          1           0        0.727585   -0.237899    2.383057
     62          1           0        0.565300    1.208463    1.615189
     63          6           0       -0.241123   -1.861636    0.615480
     64          6           0       -0.854036   -2.303782    1.795996
     65          6           0        0.015097   -2.808788   -0.384240
     66          6           0       -1.168714   -3.645531    1.980533
     67          1           0       -1.095033   -1.590555    2.571033
     68          6           0       -0.307595   -4.149670   -0.199845
     69          1           0        0.473830   -2.510182   -1.317125
     70          6           0       -0.893337   -4.577411    0.985891
     71          1           0       -1.631627   -3.960701    2.907320
     72          1           0       -0.092059   -4.862540   -0.986441
     73          1           0       -1.133422   -5.622418    1.132077
 ---------------------------------------------------------------------

 SCF Done:  E(RB3LYP) =  -2947.27276739     A.U. after   14 cycles

      1  P    Isotropic =    93.3840   Anisotropy =   223.3650

      2  P    Isotropic =   106.4776   Anisotropy =   218.6723

      3  C    Isotropic =   102.1781   Anisotropy =    30.9386

      4  C    Isotropic =   180.5449   Anisotropy =    10.4227

      5  C    Isotropic =   182.8543   Anisotropy =    11.2536

      6  C    Isotropic =   181.8606   Anisotropy =    10.7807

      7  C    Isotropic =   182.0228   Anisotropy =    10.6133

      8  C    Isotropic =   181.4347   Anisotropy =    12.0780

      9  C    Isotropic =   181.5269   Anisotropy =    10.4191

     10  H    Isotropic =    32.0827   Anisotropy =    10.3647

     11  H    Isotropic =    31.5670   Anisotropy =     6.9689

     12  H    Isotropic =    31.6543   Anisotropy =     7.3534

     13  H    Isotropic =    32.3951   Anisotropy =    10.5472

     14  H    Isotropic =    31.7306   Anisotropy =     9.8363

     15  H    Isotropic =    31.6971   Anisotropy =     7.9745

     16  H    Isotropic =    31.9361   Anisotropy =    10.3684

     17  H    Isotropic =    31.5009   Anisotropy =     7.9260

     18  H    Isotropic =    31.5707   Anisotropy =     7.0737

     19  H    Isotropic =    31.9948   Anisotropy =    10.2472

     20  H    Isotropic =    31.5300   Anisotropy =     8.5918

     21  H    Isotropic =    31.3212   Anisotropy =     6.7106

     22  H    Isotropic =    31.5666   Anisotropy =     8.8466

     23  H    Isotropic =    32.0307   Anisotropy =    10.1761

     24  H    Isotropic =    31.5305   Anisotropy =     7.7313

     25  H    Isotropic =    31.9755   Anisotropy =    10.2948

     26  H    Isotropic =    31.4708   Anisotropy =     6.2518

     27  H    Isotropic =    31.5094   Anisotropy =     7.6071

     28  C    Isotropic =   180.4260   Anisotropy =     9.7625

     29  H    Isotropic =    31.4907   Anisotropy =     8.7326

     30  H    Isotropic =    30.6465   Anisotropy =     7.2153

     31  H    Isotropic =    31.9785   Anisotropy =    10.5408

     32  C    Isotropic =   182.5338   Anisotropy =     8.9643

     33  H    Isotropic =    31.3113   Anisotropy =     6.3737

     34  H    Isotropic =    31.4462   Anisotropy =    10.8409

     35  H    Isotropic =    32.0859   Anisotropy =    10.1432

     36  C    Isotropic =   182.3560   Anisotropy =     7.3469

     37  H    Isotropic =    32.1497   Anisotropy =     5.4457

     38  H    Isotropic =    32.6587   Anisotropy =    10.8781

     39  H    Isotropic =    32.3545   Anisotropy =    11.0281

     40  Si   Isotropic =   289.1618   Anisotropy =    23.0564

     41  Si   Isotropic =   290.8407   Anisotropy =    24.9104

     42  Si   Isotropic =   291.4799   Anisotropy =    21.4843

     43  C    Isotropic =   181.7900   Anisotropy =    11.9880

     44  H    Isotropic =    31.7176   Anisotropy =     7.4842

     45  H    Isotropic =    31.5901   Anisotropy =     7.0767

     46  H    Isotropic =    32.1657   Anisotropy =    10.5269

     47  C    Isotropic =   180.9451   Anisotropy =    10.5518

     48  H    Isotropic =    31.8656   Anisotropy =     6.7766

     49  H    Isotropic =    32.4349   Anisotropy =    10.6564

     50  H    Isotropic =    32.1340   Anisotropy =     9.2446

     51  C    Isotropic =   183.0496   Anisotropy =     8.2419

     52  H    Isotropic =    31.9490   Anisotropy =     6.4865

     53  H    Isotropic =    32.4604   Anisotropy =    12.7981

     54  H    Isotropic =    32.6211   Anisotropy =    10.6254

     55  Si   Isotropic =   294.3379   Anisotropy =    21.5025

     56  O    Isotropic =   203.4937   Anisotropy =   123.9160

     57  O    Isotropic =   197.3654   Anisotropy =    98.2557

     58  O    Isotropic =   198.7775   Anisotropy =   134.4079

     59  O    Isotropic =   203.5886   Anisotropy =   103.5401

     60  N    Isotropic =   228.1023   Anisotropy =    64.1667

     61  H    Isotropic =    31.5510   Anisotropy =    11.8549

     62  H    Isotropic =    29.9967   Anisotropy =    12.7008

     63  C    Isotropic =    33.9923   Anisotropy =   193.6638

     64  C    Isotropic =    52.2418   Anisotropy =   189.1317

     65  C    Isotropic =    49.3839   Anisotropy =   188.8938

     66  C    Isotropic =    49.4152   Anisotropy =   185.0248

     67  H    Isotropic =    23.9648   Anisotropy =    10.3048

     68  C    Isotropic =    50.6942   Anisotropy =   184.8272

     69  H    Isotropic =    24.1810   Anisotropy =     7.7365

     70  C    Isotropic =    55.1189   Anisotropy =   178.2060

     71  H    Isotropic =    24.2705   Anisotropy =     5.2411

     72  H    Isotropic =    24.3887   Anisotropy =     4.8542

     73  H    Isotropic =    24.6024   Anisotropy =     3.2535

 The electronic state is 1-A.
 Alpha  occ. eigenvalues --  -77.09074 -77.08489 -66.11914 -66.11788 -66.11618
 Alpha  occ. eigenvalues --  -66.11612 -19.11466 -19.11269 -19.11141 -19.10889
 Alpha  occ. eigenvalues --  -14.29358 -10.19485 -10.18334 -10.17048 -10.17028
 Alpha  occ. eigenvalues --  -10.16785 -10.16706 -10.16550 -10.15115 -10.14930
 Alpha  occ. eigenvalues --  -10.14913 -10.14824 -10.14807 -10.14701 -10.14696
 Alpha  occ. eigenvalues --  -10.14570 -10.14422 -10.14417 -10.14182 -10.14178
 Alpha  occ. eigenvalues --   -6.56558  -6.56066  -5.27604  -5.27427  -5.27339
 Alpha  occ. eigenvalues --   -5.27321  -4.72879  -4.72675  -4.72397  -4.72172
 Alpha  occ. eigenvalues --   -4.72145  -4.71639  -3.63638  -3.63479  -3.63361
 Alpha  occ. eigenvalues --   -3.63350  -3.63311  -3.63299  -3.63130  -3.63117
 Alpha  occ. eigenvalues --   -3.63048  -3.63036  -3.63032  -3.63012  -1.00714
 Alpha  occ. eigenvalues --   -1.00436  -0.96665  -0.96533  -0.88996  -0.84884
 Alpha  occ. eigenvalues --   -0.75487  -0.74232  -0.71980  -0.71747  -0.71558
 Alpha  occ. eigenvalues --   -0.71313  -0.68600  -0.68397  -0.68358  -0.68258
 Alpha  occ. eigenvalues --   -0.68172  -0.68057  -0.67936  -0.67812  -0.67178
 Alpha  occ. eigenvalues --   -0.61026  -0.60539  -0.59814  -0.56235  -0.53321
 Alpha  occ. eigenvalues --   -0.52503  -0.51351  -0.48933  -0.46959  -0.45239
 Alpha  occ. eigenvalues --   -0.44307  -0.44077  -0.43342  -0.43048  -0.42872
 Alpha  occ. eigenvalues --   -0.42658  -0.42253  -0.42043  -0.41728  -0.41651
 Alpha  occ. eigenvalues --   -0.41519  -0.41372  -0.41220  -0.41056  -0.40888
 Alpha  occ. eigenvalues --   -0.40789  -0.40535  -0.40359  -0.40256  -0.40087
 Alpha  occ. eigenvalues --   -0.39771  -0.39559  -0.39451  -0.39312  -0.39190
 Alpha  occ. eigenvalues --   -0.39015  -0.38925  -0.38880  -0.38743  -0.38590
 Alpha  occ. eigenvalues --   -0.38400  -0.38021  -0.37650  -0.37381  -0.36415
 Alpha  occ. eigenvalues --   -0.36212  -0.35056  -0.34629  -0.34161  -0.33886
 Alpha  occ. eigenvalues --   -0.33749  -0.33480  -0.32827  -0.30572  -0.30180
 Alpha  occ. eigenvalues --   -0.30130  -0.29912  -0.29667  -0.29170  -0.28768
 Alpha  occ. eigenvalues --   -0.28607  -0.25266  -0.25181  -0.23908  -0.20847
 Alpha  occ. eigenvalues --   -0.15688
 Alpha virt. eigenvalues --   -0.01363  -0.01095   0.00522   0.01045   0.02293
 Alpha virt. eigenvalues --    0.03010   0.03725   0.04287   0.04504   0.05034
 Alpha virt. eigenvalues --    0.05380   0.05916   0.06154   0.06363   0.06625

 Mulliken charges:
               1
     1  P    0.367360
     2  P    0.394052
     3  C    0.280271
     4  C   -0.463924
     5  C   -0.463997
     6  C   -0.453955
     7  C   -0.457532
     8  C   -0.458729
     9  C   -0.476411
    10  H    0.114191
    11  H    0.125513
    12  H    0.112940
    13  H    0.107655
    14  H    0.137078
    15  H    0.120759
    16  H    0.113248
    17  H    0.121336
    18  H    0.118059
    19  H    0.115579
    20  H    0.118784
    21  H    0.129440
    22  H    0.122600
    23  H    0.109380
    24  H    0.121027
    25  H    0.116080
    26  H    0.115797
    27  H    0.120810
    28  C   -0.443979
    29  H    0.110926
    30  H    0.143579
    31  H    0.109044
    32  C   -0.447387
    33  H    0.132416
    34  H    0.124766
    35  H    0.110867
    36  C   -0.490424
    37  H    0.115921
    38  H    0.151393
    39  H    0.118652
    40  Si   0.546537
    41  Si   0.571636
    42  Si   0.557572
    43  C   -0.466734
    44  H    0.112052
    45  H    0.127628
    46  H    0.113761
    47  C   -0.459325
    48  H    0.114854
    49  H    0.108191
    50  H    0.143357
    51  C   -0.464302
    52  H    0.122194
    53  H    0.150843
    54  H    0.109507
    55  Si   0.552185
    56  O   -0.404344
    57  O   -0.427858
    58  O   -0.463937
    59  O   -0.414835
    60  N   -0.554854
    61  H    0.202139
    62  H    0.212136
    63  C   -0.049455
    64  C   -0.206346
    65  C   -0.194714
    66  C   -0.113096
    67  H    0.133541
    68  C   -0.143857
    69  H    0.124386
    70  C   -0.096991
    71  H    0.102951
    72  H    0.107865
    73  H    0.104127
 Sum of Mulliken charges =  -0.00000

 Dipole moment (field-independent basis, Debye):
    X=              0.4528    Y=              0.4645    Z=              1.7351  Tot=              1.8524
 Quadrupole moment (field-independent basis, Debye-Ang):
   XX=           -213.8236   YY=           -217.2922   ZZ=           -231.8389
   XY=              1.8151   XZ=              1.8818   YZ=              1.9730

 Summary of Natural Population Analysis:

                                       Natural Population
                Natural  -----------------------------------------------
    Atom  No    Charge         Core      Valence    Rydberg      Total
 -----------------------------------------------------------------------
      P    1    1.34980      9.99855     3.56269    0.08896    13.65020
      P    2    1.40702      9.99855     3.49419    0.10025    13.59298
      C    3   -0.47554      1.99934     4.42623    0.04997     6.47554
      C    4   -1.12167      1.99942     5.10172    0.02054     7.12167
      C    5   -1.11965      1.99942     5.10007    0.02017     7.11965
      C    6   -1.12127      1.99942     5.10121    0.02064     7.12127
      C    7   -1.12536      1.99942     5.10541    0.02053     7.12536
      C    8   -1.12120      1.99942     5.10147    0.02031     7.12120
      C    9   -1.11869      1.99942     5.09902    0.02025     7.11869
      H   10    0.22844      0.00000     0.77071    0.00085     0.77156
      H   11    0.23752      0.00000     0.76159    0.00089     0.76248
      H   12    0.23002      0.00000     0.76887    0.00111     0.76998
      H   13    0.22660      0.00000     0.77257    0.00083     0.77340
      H   14    0.24070      0.00000     0.75822    0.00108     0.75930
      H   15    0.23602      0.00000     0.76313    0.00085     0.76398
      H   16    0.22866      0.00000     0.77048    0.00086     0.77134
      H   17    0.23316      0.00000     0.76579    0.00105     0.76684
      H   18    0.23332      0.00000     0.76581    0.00087     0.76668
      H   19    0.22869      0.00000     0.77060    0.00072     0.77131
      H   20    0.23245      0.00000     0.76660    0.00095     0.76755
      H   21    0.24065      0.00000     0.75850    0.00086     0.75935
      H   22    0.23361      0.00000     0.76537    0.00102     0.76639
      H   23    0.22684      0.00000     0.77242    0.00074     0.77316
      H   24    0.23575      0.00000     0.76346    0.00079     0.76425
      H   25    0.22843      0.00000     0.77077    0.00079     0.77157
      H   26    0.23068      0.00000     0.76820    0.00113     0.76932
      H   27    0.23134      0.00000     0.76760    0.00107     0.76866
      C   28   -1.12917      1.99941     5.10857    0.02120     7.12917
      H   29    0.23394      0.00000     0.76496    0.00111     0.76606
      H   30    0.25103      0.00000     0.74757    0.00140     0.74897
      H   31    0.22454      0.00000     0.77463    0.00083     0.77546
      C   32   -1.12600      1.99941     5.10566    0.02092     7.12600
      H   33    0.24433      0.00000     0.75477    0.00090     0.75567
      H   34    0.23830      0.00000     0.76067    0.00103     0.76170
      H   35    0.22610      0.00000     0.77317    0.00073     0.77390
      C   36   -1.13210      1.99942     5.11138    0.02130     7.13210
      H   37    0.23169      0.00000     0.76679    0.00153     0.76831
      H   38    0.24266      0.00000     0.75629    0.00105     0.75734
      H   39    0.23022      0.00000     0.76893    0.00085     0.76978
     Si   40    1.91734      9.99799     2.05226    0.03240    12.08266
     Si   41    1.89677      9.99798     2.06688    0.03837    12.10323
     Si   42    1.90364      9.99798     2.06176    0.03662    12.09636
      C   43   -1.12233      1.99942     5.10278    0.02013     7.12233
      H   44    0.22874      0.00000     0.77020    0.00106     0.77126
      H   45    0.23771      0.00000     0.76151    0.00078     0.76229
      H   46    0.22803      0.00000     0.77123    0.00073     0.77197
      C   47   -1.12228      1.99941     5.10228    0.02059     7.12228
      H   48    0.22972      0.00000     0.76925    0.00103     0.77028
      H   49    0.22623      0.00000     0.77294    0.00083     0.77377
      H   50    0.24328      0.00000     0.75568    0.00104     0.75672
      C   51   -1.12647      1.99941     5.10641    0.02064     7.12647
      H   52    0.23705      0.00000     0.76213    0.00082     0.76295
      H   53    0.24467      0.00000     0.75431    0.00102     0.75533
      H   54    0.22622      0.00000     0.77306    0.00072     0.77378
     Si   55    1.92418      9.99790     2.04750    0.03043    12.07582
      O   56   -1.18060      1.99973     7.16994    0.01093     9.18060
      O   57   -1.15692      1.99977     7.14372    0.01343     9.15692
      O   58   -1.17877      1.99976     7.16235    0.01665     9.17877
      O   59   -1.15543      1.99976     7.13899    0.01668     9.15543
      N   60   -0.84238      1.99955     5.81101    0.03182     7.84238
      H   61    0.35540      0.00000     0.64102    0.00358     0.64460
      H   62    0.37642      0.00000     0.62164    0.00194     0.62358
      C   63   -0.03956      1.99901     4.01367    0.02688     6.03956
      C   64   -0.22234      1.99908     4.20271    0.02055     6.22234
      C   65   -0.22215      1.99908     4.20388    0.01920     6.22215
      C   66   -0.20285      1.99919     4.18478    0.01888     6.20285
      H   67    0.21913      0.00000     0.77845    0.00242     0.78087
      C   68   -0.20745      1.99919     4.18900    0.01927     6.20745
      H   69    0.22027      0.00000     0.77790    0.00183     0.77973
      C   70   -0.22748      1.99918     4.20841    0.01990     6.22748
      H   71    0.20576      0.00000     0.79298    0.00126     0.79424
      H   72    0.20800      0.00000     0.79076    0.00124     0.79200
      H   73    0.20660      0.00000     0.79219    0.00120     0.79340
 =======================================================================
   * Total *    0.00000    107.97457   173.13963    0.88580   282.00000

 Normal termination of Gaussian 16 at Thu Jan 23 04:37:08 2025.
