 Gaussian 16, Revision B.01,
 Gaussian 16:  ES64L-G16RevB.01 20-Dec-2017

 --------------------------------------------
 # nmr=giao b3lyp/def2TZVP pop=nbo scfcyc=200
 --------------------------------------------

 --------------
 DS-53 SPE NoRh
 --------------
 Symbolic Z-matrix:
 Charge =  0 Multiplicity = 1

                         Standard orientation:
 ---------------------------------------------------------------------
 Center     Atomic      Atomic             Coordinates (Angstroms)
 Number     Number       Type             X           Y           Z
 ---------------------------------------------------------------------
      1         15           0       -0.254074    0.610936   -0.804398
      2          7           0       -1.338047   -0.603803   -0.256457
      3          7           0        1.349733    0.137568   -0.445342
      4          6           0       -0.519759    2.186729    0.150297
      5          7           0       -0.745142    2.341375    1.414923
      6          7           0       -0.960791    2.435534    2.521663
      7          6           0        2.161266    0.797490    0.624662
      8          6           0        2.300248   -0.022228    1.922852
      9          6           0        3.531396    1.326965    0.168487
     10          1           0        1.597567    1.690695    0.888903
     11          6           0        2.981211    0.799536    3.028090
     12          1           0        2.878262   -0.928785    1.738447
     13          1           0        1.313134   -0.339833    2.266177
     14          6           0        4.194887    2.151802    1.282169
     15          1           0        4.196122    0.500417   -0.091684
     16          1           0        3.409447    1.941021   -0.726512
     17          6           0        4.335368    1.349626    2.576485
     18          1           0        3.097394    0.180961    3.921564
     19          1           0        2.329187    1.633136    3.313755
     20          1           0        5.171494    2.500762    0.939446
     21          1           0        3.597152    3.050119    1.475069
     22          1           0        4.772408    1.970523    3.361987
     23          1           0        5.031888    0.518183    2.415148
     24          6           0       -0.928852   -1.645013    0.728664
     25          6           0       -1.702085   -1.627591    2.058494
     26          6           0       -0.890282   -3.072775    0.145623
     27          1           0        0.103955   -1.397992    0.967098
     28          6           0       -1.098361   -2.623069    3.060350
     29          1           0       -2.746867   -1.897993    1.888702
     30          1           0       -1.698645   -0.620380    2.482827
     31          6           0       -0.289304   -4.064056    1.153296
     32          1           0       -1.893572   -3.408601   -0.113119
     33          1           0       -0.310929   -3.072757   -0.780831
     34          6           0       -1.042943   -4.040972    2.485369
     35          1           0       -1.683130   -2.607968    3.983477
     36          1           0       -0.086000   -2.302698    3.330575
     37          1           0       -0.299711   -5.069544    0.725289
     38          1           0        0.763667   -3.816807    1.333178
     39          1           0       -0.569835   -4.719698    3.198823
     40          1           0       -2.062573   -4.412221    2.333019
     41          6           0       -2.753425   -0.369462   -0.667090
     42          6           0       -3.500946   -1.629197   -1.133322
     43          6           0       -3.618679    0.413448    0.344114
     44          1           0       -2.671075    0.283963   -1.545088
     45          6           0       -4.869773   -1.274052   -1.732945
     46          1           0       -3.659955   -2.301023   -0.285979
     47          1           0       -2.898739   -2.175563   -1.862491
     48          6           0       -4.980049    0.777664   -0.267304
     49          1           0       -3.782022   -0.180182    1.243691
     50          1           0       -3.100490    1.322087    0.654925
     51          6           0       -5.727438   -0.464612   -0.756906
     52          1           0       -5.386466   -2.191208   -2.024180
     53          1           0       -4.727614   -0.695578   -2.653078
     54          1           0       -5.579172    1.317180    0.470501
     55          1           0       -4.829852    1.466748   -1.107537
     56          1           0       -6.670603   -0.179838   -1.229889
     57          1           0       -5.988089   -1.092382    0.102965
     58          6           0       -1.673839    4.881453   -0.662643
     59          6           0       -0.166643    5.074913   -0.761029
     60          1           0       -2.118044    4.874387    0.327045
     61          1           0       -2.294415    5.361873   -1.409890
     62          1           0        0.210716    5.683932   -1.573915
     63          1           0        0.388072    5.188203    0.162730
     64         15           0       -0.749667    3.378165   -1.187990
     65          6           0        1.924159   -0.852955   -1.409828
     66          6           0        2.771621   -0.238922   -2.542456
     67          6           0        2.686547   -2.011257   -0.747117
     68          1           0        1.050419   -1.310254   -1.889012
     69          6           0        3.160517   -1.302071   -3.580305
     70          1           0        3.683331    0.193876   -2.134251
     71          1           0        2.217213    0.579922   -3.008258
     72          6           0        3.084732   -3.072976   -1.783674
     73          1           0        3.591354   -1.632894   -0.266952
     74          1           0        2.076469   -2.463710    0.034738
     75          6           0        3.902808   -2.473234   -2.930697
     76          1           0        3.777276   -0.845183   -4.358596
     77          1           0        2.263006   -1.685160   -4.080606
     78          1           0        3.647104   -3.867722   -1.289555
     79          1           0        2.179998   -3.541450   -2.188626
     80          1           0        4.126459   -3.240022   -3.674903
     81          1           0        4.866243   -2.122881   -2.544639
 ---------------------------------------------------------------------

 SCF Done:  E(RB3LYP) =  -1959.94135252     A.U. after   20 cycles

      1  P    Isotropic =   118.6204   Anisotropy =   115.9173

      2  N    Isotropic =   146.7164   Anisotropy =    35.1878

      3  N    Isotropic =   157.5137   Anisotropy =    30.7688

      4  C    Isotropic =   156.0449   Anisotropy =    76.3627

      5  N    Isotropic =   -38.1644   Anisotropy =   359.4911

      6  N    Isotropic =  -119.8164   Anisotropy =   158.0661

      7  C    Isotropic =   115.1153   Anisotropy =    52.2307

      8  C    Isotropic =   142.1794   Anisotropy =    20.0287

      9  C    Isotropic =   142.4036   Anisotropy =    12.6272

     10  H    Isotropic =    28.4199   Anisotropy =     9.2381

     11  C    Isotropic =   151.4909   Anisotropy =    11.2540

     12  H    Isotropic =    30.2117   Anisotropy =     4.8227

     13  H    Isotropic =    30.1208   Anisotropy =     8.9913

     14  C    Isotropic =   151.1722   Anisotropy =     8.8864

     15  H    Isotropic =    30.1335   Anisotropy =     6.3128

     16  H    Isotropic =    29.9520   Anisotropy =     3.9876

     17  C    Isotropic =   153.2263   Anisotropy =     3.2604

     18  H    Isotropic =    30.1704   Anisotropy =     9.5482

     19  H    Isotropic =    30.5985   Anisotropy =     6.4632

     20  H    Isotropic =    30.0774   Anisotropy =    10.3365

     21  H    Isotropic =    30.6367   Anisotropy =     7.5143

     22  H    Isotropic =    30.3355   Anisotropy =    10.9747

     23  H    Isotropic =    30.7897   Anisotropy =     8.4528

     24  C    Isotropic =   124.0132   Anisotropy =    41.1827

     25  C    Isotropic =   139.2761   Anisotropy =    18.6066

     26  C    Isotropic =   142.5494   Anisotropy =    22.1079

     27  H    Isotropic =    28.2723   Anisotropy =     9.3443

     28  C    Isotropic =   152.1283   Anisotropy =     9.0220

     29  H    Isotropic =    30.0557   Anisotropy =     6.3642

     30  H    Isotropic =    30.4325   Anisotropy =     4.6435

     31  C    Isotropic =   151.7022   Anisotropy =     9.7937

     32  H    Isotropic =    30.2130   Anisotropy =     6.7296

     33  H    Isotropic =    30.5096   Anisotropy =     5.3157

     34  C    Isotropic =   153.2237   Anisotropy =     3.9425

     35  H    Isotropic =    30.1330   Anisotropy =    10.2127

     36  H    Isotropic =    30.6276   Anisotropy =     6.3877

     37  H    Isotropic =    30.2249   Anisotropy =     9.9024

     38  H    Isotropic =    30.5941   Anisotropy =     6.6767

     39  H    Isotropic =    30.3506   Anisotropy =    10.7229

     40  H    Isotropic =    30.8248   Anisotropy =     9.1384

     41  C    Isotropic =   119.4539   Anisotropy =    43.0418

     42  C    Isotropic =   143.0079   Anisotropy =    12.6045

     43  C    Isotropic =   144.5711   Anisotropy =    19.3969

     44  H    Isotropic =    28.5566   Anisotropy =     4.5592

     45  C    Isotropic =   151.1211   Anisotropy =     9.3124

     46  H    Isotropic =    30.2022   Anisotropy =     6.7004

     47  H    Isotropic =    30.1028   Anisotropy =     5.1947

     48  C    Isotropic =   151.6908   Anisotropy =    10.7211

     49  H    Isotropic =    30.3423   Anisotropy =     5.8048

     50  H    Isotropic =    30.3246   Anisotropy =     7.9935

     51  C    Isotropic =   152.9062   Anisotropy =     3.4792

     52  H    Isotropic =    30.0818   Anisotropy =    10.2261

     53  H    Isotropic =    30.5284   Anisotropy =     7.8721

     54  H    Isotropic =    30.1308   Anisotropy =     9.7140

     55  H    Isotropic =    30.5053   Anisotropy =     7.2216

     56  H    Isotropic =    30.2799   Anisotropy =    10.8347

     57  H    Isotropic =    30.7501   Anisotropy =     8.2469

     58  C    Isotropic =   177.6514   Anisotropy =    36.6851

     59  C    Isotropic =   176.5877   Anisotropy =    40.4917

     60  H    Isotropic =    30.4849   Anisotropy =     8.9463

     61  H    Isotropic =    31.2386   Anisotropy =    15.3991

     62  H    Isotropic =    31.4105   Anisotropy =    15.3509

     63  H    Isotropic =    30.6474   Anisotropy =     9.6899

     64  P    Isotropic =   484.6631   Anisotropy =   736.5770

     65  C    Isotropic =   115.5652   Anisotropy =    44.9006

     66  C    Isotropic =   143.3735   Anisotropy =    22.1184

     67  C    Isotropic =   144.0283   Anisotropy =    13.1844

     68  H    Isotropic =    28.8896   Anisotropy =     6.8411

     69  C    Isotropic =   151.5230   Anisotropy =     8.8832

     70  H    Isotropic =    30.2008   Anisotropy =     6.6357

     71  H    Isotropic =    29.9068   Anisotropy =     5.1988

     72  C    Isotropic =   151.2675   Anisotropy =    10.5717

     73  H    Isotropic =    30.1092   Anisotropy =     5.6049

     74  H    Isotropic =    29.9979   Anisotropy =     7.7247

     75  C    Isotropic =   153.2410   Anisotropy =     3.7317

     76  H    Isotropic =    30.1435   Anisotropy =    10.6322

     77  H    Isotropic =    30.6510   Anisotropy =     7.5643

     78  H    Isotropic =    30.0940   Anisotropy =     9.3537

     79  H    Isotropic =    30.6626   Anisotropy =     6.5673

     80  H    Isotropic =    30.3388   Anisotropy =    10.9097

     81  H    Isotropic =    30.7837   Anisotropy =     8.5104

 The electronic state is 1-A.
 Alpha  occ. eigenvalues --  -77.08113 -77.05183 -14.45383 -14.38175 -14.31091
 Alpha  occ. eigenvalues --  -14.30534 -10.20715 -10.20366 -10.20273 -10.20173
 Alpha  occ. eigenvalues --  -10.19828 -10.17711 -10.17487 -10.16777 -10.16698
 Alpha  occ. eigenvalues --  -10.16600 -10.16518 -10.16517 -10.16502 -10.16449
 Alpha  occ. eigenvalues --  -10.16441 -10.16434 -10.16417 -10.16409 -10.16370
 Alpha  occ. eigenvalues --  -10.16321 -10.16242 -10.16201 -10.16191 -10.16146
 Alpha  occ. eigenvalues --  -10.16056 -10.15933 -10.15731  -6.55923  -6.53612
 Alpha  occ. eigenvalues --   -4.72129  -4.72064  -4.71589  -4.69829  -4.69502
 Alpha  occ. eigenvalues --   -4.69391  -1.11241  -0.91697  -0.89374  -0.85009
 Alpha  occ. eigenvalues --   -0.83367  -0.83111  -0.81953  -0.81222  -0.80389
 Alpha  occ. eigenvalues --   -0.74697  -0.74649  -0.74419  -0.74340  -0.74231
 Alpha  occ. eigenvalues --   -0.73972  -0.72610  -0.70853  -0.63939  -0.62222
 Alpha  occ. eigenvalues --   -0.62050  -0.61743  -0.61619  -0.60762  -0.60412
 Alpha  occ. eigenvalues --   -0.60229  -0.59632  -0.58196  -0.56143  -0.56108
 Alpha  occ. eigenvalues --   -0.55787  -0.55471  -0.55153  -0.50140  -0.49639
 Alpha  occ. eigenvalues --   -0.49125  -0.48714  -0.48604  -0.47687  -0.47366
 Alpha  occ. eigenvalues --   -0.46656  -0.46379  -0.45280  -0.45109  -0.44851
 Alpha  occ. eigenvalues --   -0.44765  -0.44559  -0.44346  -0.44131  -0.43788
 Alpha  occ. eigenvalues --   -0.43708  -0.42756  -0.42363  -0.41415  -0.40359
 Alpha  occ. eigenvalues --   -0.40222  -0.40039  -0.39716  -0.39075  -0.38451
 Alpha  occ. eigenvalues --   -0.38332  -0.38118  -0.38029  -0.37817  -0.37461
 Alpha  occ. eigenvalues --   -0.37229  -0.37210  -0.35398  -0.35367  -0.35226
 Alpha  occ. eigenvalues --   -0.34579  -0.34369  -0.34318  -0.34101  -0.33807
 Alpha  occ. eigenvalues --   -0.33337  -0.32990  -0.32607  -0.32088  -0.31885
 Alpha  occ. eigenvalues --   -0.31758  -0.31488  -0.30906  -0.30675  -0.30578
 Alpha  occ. eigenvalues --   -0.30420  -0.30121  -0.30093  -0.29265  -0.26812
 Alpha  occ. eigenvalues --   -0.24107  -0.22811  -0.21553  -0.18016
 Alpha virt. eigenvalues --   -0.05179  -0.02790   0.01774   0.02243   0.02943
 Alpha virt. eigenvalues --    0.03209   0.03629   0.04011   0.04606   0.04995
 Alpha virt. eigenvalues --    0.05126   0.05470   0.05707   0.05823   0.06494

 Mulliken charges:
               1
     1  P    0.222979
     2  N   -0.112055
     3  N   -0.148270
     4  C   -0.200021
     5  N    0.161416
     6  N   -0.219245
     7  C   -0.029185
     8  C   -0.171987
     9  C   -0.214088
    10  H    0.075897
    11  C   -0.190345
    12  H    0.085221
    13  H    0.100628
    14  C   -0.174068
    15  H    0.076318
    16  H    0.113872
    17  C   -0.144671
    18  H    0.092676
    19  H    0.094957
    20  H    0.093500
    21  H    0.087319
    22  H    0.093411
    23  H    0.073931
    24  C   -0.012246
    25  C   -0.187510
    26  C   -0.213434
    27  H    0.038850
    28  C   -0.169082
    29  H    0.075181
    30  H    0.112688
    31  C   -0.169181
    32  H    0.087066
    33  H    0.101618
    34  C   -0.156369
    35  H    0.093862
    36  H    0.088203
    37  H    0.091096
    38  H    0.078568
    39  H    0.092551
    40  H    0.075398
    41  C   -0.031637
    42  C   -0.188600
    43  C   -0.190905
    44  H    0.069048
    45  C   -0.163069
    46  H    0.075655
    47  H    0.105347
    48  C   -0.185784
    49  H    0.087251
    50  H    0.112161
    51  C   -0.152215
    52  H    0.091273
    53  H    0.085873
    54  H    0.092650
    55  H    0.089633
    56  H    0.091839
    57  H    0.073925
    58  C   -0.295797
    59  C   -0.281789
    60  H    0.122663
    61  H    0.119882
    62  H    0.117728
    63  H    0.118807
    64  P    0.152846
    65  C    0.009233
    66  C   -0.191609
    67  C   -0.219793
    68  H    0.063784
    69  C   -0.172024
    70  H    0.088566
    71  H    0.109497
    72  C   -0.168540
    73  H    0.080539
    74  H    0.115380
    75  C   -0.152243
    76  H    0.093395
    77  H    0.084395
    78  H    0.092761
    79  H    0.085922
    80  H    0.093481
    81  H    0.075021
 Sum of Mulliken charges =  -0.00000

 Dipole moment (field-independent basis, Debye):
    X=              0.9670    Y=             -1.5133    Z=              0.0675  Tot=              1.7972
 Quadrupole moment (field-independent basis, Debye-Ang):
   XX=           -214.9078   YY=           -219.6341   ZZ=           -230.1495
   XY=              1.5008   XZ=              0.9484   YZ=             -1.4714

 Summary of Natural Population Analysis:

                                       Natural Population
                Natural  -----------------------------------------------
    Atom  No    Charge         Core      Valence    Rydberg      Total
 -----------------------------------------------------------------------
      P    1    1.26241      9.99781     3.68320    0.05657    13.73759
      N    2   -0.75825      1.99949     5.72273    0.03604     7.75825
      N    3   -0.76901      1.99949     5.73622    0.03331     7.76901
      C    4   -0.74413      1.99905     4.70318    0.04189     6.74413
      N    5    0.04949      1.99940     4.91751    0.03360     6.95051
      N    6   -0.05537      1.99967     5.02714    0.02856     7.05537
      C    7   -0.03012      1.99924     4.00921    0.02167     6.03012
      C    8   -0.40199      1.99936     4.38887    0.01375     6.40199
      C    9   -0.39865      1.99936     4.38533    0.01395     6.39865
      H   10    0.19979      0.00000     0.79571    0.00450     0.80021
      C   11   -0.38429      1.99942     4.37150    0.01337     6.38429
      H   12    0.19049      0.00000     0.80755    0.00196     0.80951
      H   13    0.19943      0.00000     0.79836    0.00220     0.80057
      C   14   -0.38126      1.99942     4.36875    0.01310     6.38126
      H   15    0.18459      0.00000     0.81306    0.00235     0.81541
      H   16    0.20864      0.00000     0.78969    0.00167     0.79136
      C   17   -0.38566      1.99942     4.37311    0.01312     6.38566
      H   18    0.20284      0.00000     0.79574    0.00142     0.79716
      H   19    0.18970      0.00000     0.80812    0.00218     0.81030
      H   20    0.20277      0.00000     0.79587    0.00136     0.79723
      H   21    0.18927      0.00000     0.80907    0.00166     0.81073
      H   22    0.20299      0.00000     0.79567    0.00134     0.79701
      H   23    0.18623      0.00000     0.81202    0.00175     0.81377
      C   24   -0.04756      1.99925     4.02647    0.02184     6.04756
      C   25   -0.40302      1.99937     4.38977    0.01388     6.40302
      C   26   -0.39947      1.99936     4.38501    0.01510     6.39947
      H   27    0.20751      0.00000     0.78882    0.00367     0.79249
      C   28   -0.38270      1.99942     4.37014    0.01314     6.38270
      H   29    0.18626      0.00000     0.81164    0.00210     0.81374
      H   30    0.20758      0.00000     0.79040    0.00202     0.79242
      C   31   -0.38385      1.99942     4.37123    0.01320     6.38385
      H   32    0.19614      0.00000     0.80211    0.00175     0.80386
      H   33    0.20060      0.00000     0.79734    0.00206     0.79940
      C   34   -0.38543      1.99942     4.37286    0.01314     6.38543
      H   35    0.20324      0.00000     0.79537    0.00139     0.79676
      H   36    0.18801      0.00000     0.81034    0.00165     0.81199
      H   37    0.20295      0.00000     0.79567    0.00138     0.79705
      H   38    0.18531      0.00000     0.81288    0.00181     0.81469
      H   39    0.20176      0.00000     0.79689    0.00136     0.79824
      H   40    0.18703      0.00000     0.81108    0.00189     0.81297
      C   41   -0.03370      1.99927     4.01396    0.02047     6.03370
      C   42   -0.39526      1.99936     4.38187    0.01402     6.39526
      C   43   -0.40198      1.99936     4.38869    0.01393     6.40198
      H   44    0.20216      0.00000     0.79455    0.00329     0.79784
      C   45   -0.38166      1.99942     4.36902    0.01322     6.38166
      H   46    0.18441      0.00000     0.81316    0.00243     0.81559
      H   47    0.20704      0.00000     0.79149    0.00147     0.79296
      C   48   -0.38392      1.99943     4.37129    0.01320     6.38392
      H   49    0.19052      0.00000     0.80762    0.00187     0.80948
      H   50    0.20507      0.00000     0.79279    0.00213     0.79493
      C   51   -0.38534      1.99942     4.37286    0.01306     6.38534
      H   52    0.20167      0.00000     0.79696    0.00137     0.79833
      H   53    0.18987      0.00000     0.80836    0.00177     0.81013
      H   54    0.20301      0.00000     0.79561    0.00138     0.79699
      H   55    0.18964      0.00000     0.80860    0.00176     0.81036
      H   56    0.20196      0.00000     0.79670    0.00134     0.79804
      H   57    0.18601      0.00000     0.81214    0.00185     0.81399
      C   58   -0.67519      1.99946     4.64904    0.02669     6.67519
      C   59   -0.67641      1.99946     4.65028    0.02668     6.67641
      H   60    0.22411      0.00000     0.77393    0.00196     0.77589
      H   61    0.22692      0.00000     0.77191    0.00117     0.77308
      H   62    0.22511      0.00000     0.77368    0.00121     0.77489
      H   63    0.22325      0.00000     0.77497    0.00178     0.77675
      P   64    0.75983      9.99850     4.20247    0.03920    14.24017
      C   65   -0.02606      1.99927     4.00389    0.02289     6.02606
      C   66   -0.40740      1.99936     4.39254    0.01549     6.40740
      C   67   -0.40080      1.99936     4.38733    0.01411     6.40080
      H   68    0.19790      0.00000     0.79874    0.00336     0.80210
      C   69   -0.38354      1.99943     4.37081    0.01330     6.38354
      H   70    0.19416      0.00000     0.80409    0.00174     0.80584
      H   71    0.21567      0.00000     0.78302    0.00130     0.78433
      C   72   -0.38223      1.99942     4.36963    0.01318     6.38223
      H   73    0.18791      0.00000     0.81002    0.00208     0.81209
      H   74    0.20544      0.00000     0.79229    0.00226     0.79456
      C   75   -0.38523      1.99942     4.37258    0.01322     6.38523
      H   76    0.20380      0.00000     0.79484    0.00136     0.79620
      H   77    0.18867      0.00000     0.80953    0.00180     0.81133
      H   78    0.20295      0.00000     0.79568    0.00137     0.79705
      H   79    0.18849      0.00000     0.80972    0.00179     0.81151
      H   80    0.20244      0.00000     0.79623    0.00133     0.79756
      H   81    0.18642      0.00000     0.81169    0.00189     0.81358
 =======================================================================
   * Total *   -0.00000     81.97734   185.25022    0.77244   268.00000

 Normal termination of Gaussian 16 at Thu Jan 23 13:31:20 2025.
