 Gaussian 16, Revision B.01,
 Gaussian 16:  ES64L-G16RevB.01 20-Dec-2017

 --------------------------------------------
 # nmr=giao b3lyp/def2TZVP pop=nbo scfcyc=200
 --------------------------------------------

 --------------
 DS-52 SPE NoRh
 --------------
 Symbolic Z-matrix:
 Charge =  0 Multiplicity = 1

                         Standard orientation:
 ---------------------------------------------------------------------
 Center     Atomic      Atomic             Coordinates (Angstroms)
 Number     Number       Type             X           Y           Z
 ---------------------------------------------------------------------
      1         15           0        1.413809    0.011791   -0.608008
      2         15           0       -1.413933   -0.011730   -0.608086
      3          7           0       -2.475211    1.290231   -0.363126
      4          7           0       -2.407800   -1.325646   -0.109102
      5          7           0        2.475073   -1.290166   -0.362967
      6          7           0        2.407648    1.325715   -0.108991
      7          6           0        1.773814    2.601803    0.227981
      8          1           0        1.497856    3.182679   -0.662032
      9          1           0        0.881116    2.445525    0.829957
     10          1           0        2.477520    3.194503    0.814995
     11          6           0        3.669485    1.517760   -0.836958
     12          1           0        3.531613    2.099804   -1.756966
     13          1           0        4.365859    2.062645   -0.195943
     14          1           0        4.116052    0.558993   -1.088937
     15          6           0        2.164140   -2.581038   -0.976965
     16          1           0        1.666237   -3.254472   -0.268973
     17          1           0        1.507749   -2.442772   -1.833984
     18          1           0        3.087160   -3.061845   -1.310935
     19          6           0        3.259793   -1.417987    0.870056
     20          1           0        2.738536   -2.031749    1.615046
     21          1           0        4.212770   -1.900626    0.642086
     22          1           0        3.462054   -0.438220    1.296053
     23          6           0       -1.772985   -2.601755    0.226926
     24          1           0       -0.881320   -2.445440    0.828949
     25          1           0       -2.476724   -3.194446    0.813911
     26          1           0       -1.497949   -3.181620   -0.664062
     27          6           0       -3.669597   -1.517702   -0.836136
     28          1           0       -3.532646   -2.098735   -1.757127
     29          1           0       -4.366007   -2.062578   -0.196151
     30          1           0       -4.117149   -0.558912   -1.088156
     31          6           0       -3.259000    1.418045    0.870851
     32          1           0       -2.737784    2.031820    1.614860
     33          1           0       -4.212964    1.900708    0.642820
     34          1           0       -3.461285    0.438285    1.295854
     35          6           0       -2.164244    2.581092   -0.977128
     36          1           0       -1.666380    3.254538   -0.270120
     37          1           0       -1.508805    2.442840   -1.835109
     38          1           0       -3.087245    3.061894   -1.310158
     39          6           0       -0.000095    0.000040    0.557953
     40          7           0       -0.000131    0.000051    1.859953
     41          7           0       -0.000190   -0.000939    2.987953
 ---------------------------------------------------------------------

 SCF Done:  E(RB3LYP) =  -1368.86319020     A.U. after   17 cycles

      1  P    Isotropic =   127.0633   Anisotropy =   159.6227

      2  P    Isotropic =   127.0048   Anisotropy =   159.6434

      3  N    Isotropic =   202.3870   Anisotropy =    53.7704

      4  N    Isotropic =   216.4735   Anisotropy =    49.9322

      5  N    Isotropic =   202.3752   Anisotropy =    53.7383

      6  N    Isotropic =   216.4183   Anisotropy =    50.0877

      7  C    Isotropic =   143.0831   Anisotropy =    58.3036

      8  H    Isotropic =    29.6148   Anisotropy =     8.6593

      9  H    Isotropic =    28.8687   Anisotropy =     6.7745

     10  H    Isotropic =    29.3243   Anisotropy =     9.4206

     11  C    Isotropic =   144.4251   Anisotropy =    61.3034

     12  H    Isotropic =    29.9171   Anisotropy =     9.8795

     13  H    Isotropic =    29.5972   Anisotropy =    10.0294

     14  H    Isotropic =    29.1861   Anisotropy =     7.2289

     15  C    Isotropic =   142.2343   Anisotropy =    60.3555

     16  H    Isotropic =    29.6270   Anisotropy =     7.5956

     17  H    Isotropic =    28.9187   Anisotropy =     6.4948

     18  H    Isotropic =    29.3666   Anisotropy =    10.2466

     19  C    Isotropic =   148.2205   Anisotropy =    54.0873

     20  H    Isotropic =    29.7868   Anisotropy =     8.4913

     21  H    Isotropic =    29.9220   Anisotropy =    10.2524

     22  H    Isotropic =    28.3045   Anisotropy =     4.8974

     23  C    Isotropic =   143.0967   Anisotropy =    58.3210

     24  H    Isotropic =    28.8860   Anisotropy =     6.7777

     25  H    Isotropic =    29.3257   Anisotropy =     9.4185

     26  H    Isotropic =    29.6145   Anisotropy =     8.6578

     27  C    Isotropic =   144.4986   Anisotropy =    61.2868

     28  H    Isotropic =    29.9177   Anisotropy =     9.8885

     29  H    Isotropic =    29.6111   Anisotropy =    10.0387

     30  H    Isotropic =    29.1810   Anisotropy =     7.2336

     31  C    Isotropic =   148.1972   Anisotropy =    54.1139

     32  H    Isotropic =    29.7991   Anisotropy =     8.4862

     33  H    Isotropic =    29.9043   Anisotropy =    10.2494

     34  H    Isotropic =    28.3111   Anisotropy =     4.8966

     35  C    Isotropic =   142.2950   Anisotropy =    60.3943

     36  H    Isotropic =    29.6420   Anisotropy =     7.6015

     37  H    Isotropic =    28.9191   Anisotropy =     6.5049

     38  H    Isotropic =    29.3760   Anisotropy =    10.2483

     39  C    Isotropic =   154.3316   Anisotropy =    87.1239

     40  N    Isotropic =   -30.4731   Anisotropy =   389.5772

     41  N    Isotropic =  -117.6080   Anisotropy =   109.8420

 The electronic state is 1-A.
 Alpha  occ. eigenvalues --  -77.07677 -77.07675 -14.45470 -14.38173 -14.31297
 Alpha  occ. eigenvalues --  -14.31296 -14.30932 -14.30930 -10.19531 -10.19478
 Alpha  occ. eigenvalues --  -10.19469 -10.19340 -10.19334 -10.19148 -10.19142
 Alpha  occ. eigenvalues --  -10.18939 -10.18939  -6.55578  -6.55576  -4.71770
 Alpha  occ. eigenvalues --   -4.71769  -4.71714  -4.71712  -4.71243  -4.71241
 Alpha  occ. eigenvalues --   -1.11351  -0.92426  -0.92137  -0.89314  -0.89277
 Alpha  occ. eigenvalues --   -0.83989  -0.71326  -0.71219  -0.70754  -0.70623
 Alpha  occ. eigenvalues --   -0.69357  -0.68254  -0.62585  -0.62467  -0.59570
 Alpha  occ. eigenvalues --   -0.55058  -0.50841  -0.49931  -0.49610  -0.48215
 Alpha  occ. eigenvalues --   -0.47800  -0.46500  -0.46280  -0.45634  -0.45549
 Alpha  occ. eigenvalues --   -0.45142  -0.44907  -0.44731  -0.43621  -0.43599
 Alpha  occ. eigenvalues --   -0.41839  -0.40216  -0.39734  -0.39522  -0.39416
 Alpha  occ. eigenvalues --   -0.39250  -0.37458  -0.37404  -0.37339  -0.37260
 Alpha  occ. eigenvalues --   -0.36520  -0.36326  -0.34146  -0.28982  -0.27728
 Alpha  occ. eigenvalues --   -0.24697  -0.23803  -0.21664  -0.20399  -0.17249
 Alpha virt. eigenvalues --   -0.04666  -0.02969   0.01870   0.03476   0.03817
 Alpha virt. eigenvalues --    0.04714   0.05162   0.06472   0.06560   0.06890
 Alpha virt. eigenvalues --    0.07599   0.07969   0.08710   0.08845   0.09353

 Mulliken charges:
               1
     1  P    0.276132
     2  P    0.276194
     3  N   -0.196334
     4  N   -0.236303
     5  N   -0.196245
     6  N   -0.236335
     7  C   -0.282766
     8  H    0.101727
     9  H    0.132600
    10  H    0.113632
    11  C   -0.268844
    12  H    0.101651
    13  H    0.114911
    14  H    0.136497
    15  C   -0.277086
    16  H    0.099193
    17  H    0.129703
    18  H    0.115057
    19  C   -0.288027
    20  H    0.107792
    21  H    0.112526
    22  H    0.140968
    23  C   -0.282628
    24  H    0.132745
    25  H    0.113615
    26  H    0.101703
    27  C   -0.269124
    28  H    0.101538
    29  H    0.115015
    30  H    0.136490
    31  C   -0.287963
    32  H    0.107942
    33  H    0.112378
    34  H    0.141008
    35  C   -0.277159
    36  H    0.099266
    37  H    0.129682
    38  H    0.115075
    39  C   -0.211170
    40  N    0.162785
    41  N   -0.217838
 Sum of Mulliken charges =  -0.00000

 Dipole moment (field-independent basis, Debye):
    X=              0.0019    Y=              0.0017    Z=             -0.2519  Tot=              0.2520
 Quadrupole moment (field-independent basis, Debye-Ang):
   XX=           -112.4719   YY=           -112.7012   ZZ=           -132.4978
   XY=             -0.3833   XZ=             -0.0055   YZ=              0.0039

 Summary of Natural Population Analysis:

                                       Natural Population
                Natural  -----------------------------------------------
    Atom  No    Charge         Core      Valence    Rydberg      Total
 -----------------------------------------------------------------------
      P    1    1.22859      9.99795     3.71272    0.06073    13.77141
      P    2    1.22857      9.99795     3.71274    0.06073    13.77143
      N    3   -0.73719      1.99959     5.70532    0.03228     7.73719
      N    4   -0.74950      1.99958     5.71370    0.03622     7.74950
      N    5   -0.73725      1.99959     5.70538    0.03228     7.73725
      N    6   -0.74953      1.99958     5.71374    0.03620     7.74953
      C    7   -0.39789      1.99938     4.38422    0.01429     6.39789
      H    8    0.16573      0.00000     0.82994    0.00433     0.83427
      H    9    0.20363      0.00000     0.79433    0.00203     0.79637
      H   10    0.19000      0.00000     0.80777    0.00223     0.81000
      C   11   -0.40515      1.99938     4.39125    0.01452     6.40515
      H   12    0.17033      0.00000     0.82539    0.00427     0.82967
      H   13    0.18823      0.00000     0.80957    0.00220     0.81177
      H   14    0.21288      0.00000     0.78569    0.00143     0.78712
      C   15   -0.39378      1.99938     4.38086    0.01354     6.39378
      H   16    0.16881      0.00000     0.82764    0.00354     0.83119
      H   17    0.21173      0.00000     0.78639    0.00188     0.78827
      H   18    0.18560      0.00000     0.81197    0.00243     0.81440
      C   19   -0.41579      1.99938     4.40193    0.01449     6.41579
      H   20    0.17307      0.00000     0.82373    0.00320     0.82693
      H   21    0.18507      0.00000     0.81251    0.00242     0.81493
      H   22    0.21400      0.00000     0.78380    0.00220     0.78600
      C   23   -0.39783      1.99938     4.38418    0.01427     6.39783
      H   24    0.20362      0.00000     0.79435    0.00204     0.79638
      H   25    0.19000      0.00000     0.80777    0.00223     0.81000
      H   26    0.16578      0.00000     0.82988    0.00433     0.83422
      C   27   -0.40522      1.99938     4.39130    0.01454     6.40522
      H   28    0.17023      0.00000     0.82550    0.00427     0.82977
      H   29    0.18824      0.00000     0.80957    0.00220     0.81176
      H   30    0.21289      0.00000     0.78568    0.00143     0.78711
      C   31   -0.41580      1.99938     4.40195    0.01448     6.41580
      H   32    0.17317      0.00000     0.82364    0.00320     0.82683
      H   33    0.18503      0.00000     0.81255    0.00242     0.81497
      H   34    0.21399      0.00000     0.78381    0.00221     0.78601
      C   35   -0.39377      1.99938     4.38086    0.01354     6.39377
      H   36    0.16882      0.00000     0.82764    0.00354     0.83118
      H   37    0.21172      0.00000     0.78640    0.00188     0.78828
      H   38    0.18556      0.00000     0.81200    0.00244     0.81444
      C   39   -0.81890      1.99906     4.77301    0.04683     6.81890
      N   40    0.06315      1.99942     4.90283    0.03460     6.93685
      N   41   -0.04086      1.99967     5.01301    0.02818     7.04086
 =======================================================================
   * Total *    0.00000     49.98743    99.46650    0.54607   150.00000

 Normal termination of Gaussian 16 at Thu Jan 23 11:47:42 2025.
