 Gaussian 16, Revision B.01,
 Gaussian 16:  ES64L-G16RevB.01 20-Dec-2017

 --------------------------------------------
 # nmr=giao b3lyp/def2TZVP pop=nbo scfcyc=200
 --------------------------------------------

 -------------
 DS-5 SPE NoRh
 -------------
 Symbolic Z-matrix:
 Charge =  0 Multiplicity = 1

                         Standard orientation:
 ---------------------------------------------------------------------
 Center     Atomic      Atomic             Coordinates (Angstroms)
 Number     Number       Type             X           Y           Z
 ---------------------------------------------------------------------
      1         15           0        1.370029    0.016670   -0.686048
      2         15           0       -1.445783   -0.055370   -0.687564
      3          6           0       -2.036477    2.497591    0.399330
      4          6           0       -2.829441    3.630320    0.562634
      5          6           0       -4.090536    3.692436   -0.018809
      6          6           0       -4.561715    2.616031   -0.766896
      7          6           0       -3.773676    1.484583   -0.934214
      8          6           0       -2.505888    1.411865   -0.343191
      9          1           0       -1.056205    2.465201    0.855916
     10          1           0       -2.457958    4.463212    1.146785
     11          1           0       -4.706104    4.573710    0.111462
     12          1           0       -5.543906    2.657240   -1.219061
     13          1           0       -4.159289    0.651468   -1.509574
     14          6           0       -3.491822   -1.497472    0.661432
     15          6           0       -4.208068   -2.651018    0.961263
     16          6           0       -3.929115   -3.841514    0.296723
     17          6           0       -2.931841   -3.878246   -0.672613
     18          6           0       -2.215536   -2.726395   -0.978537
     19          6           0       -2.488381   -1.528059   -0.312511
     20          1           0       -3.728058   -0.575499    1.176919
     21          1           0       -4.986306   -2.618755    1.713336
     22          1           0       -4.491176   -4.736788    0.530727
     23          1           0       -2.716527   -4.801521   -1.195488
     24          1           0       -1.440176   -2.755362   -1.735494
     25          6           0        2.056885   -2.564618    0.244834
     26          6           0        2.889474   -3.674408    0.348639
     27          6           0        4.166958   -3.645664   -0.199663
     28          6           0        4.612006   -2.501886   -0.856510
     29          6           0        3.784491   -1.390978   -0.964188
     30          6           0        2.501002   -1.409242   -0.403432
     31          1           0        1.062008   -2.604612    0.670608
     32          1           0        2.537691   -4.561924    0.859541
     33          1           0        4.814802   -4.509246   -0.115271
     34          1           0        5.605742   -2.472760   -1.284849
     35          1           0        4.148194   -0.507703   -1.474124
     36          6           0        1.934471    2.731698   -0.964703
     37          6           0        2.592476    3.927812   -0.701490
     38          6           0        3.668725    3.951621    0.178927
     39          6           0        4.083893    2.776270    0.797936
     40          6           0        3.423740    1.579688    0.544682
     41          6           0        2.340413    1.548155   -0.339234
     42          1           0        1.102753    2.712737   -1.659984
     43          1           0        2.270173    4.838771   -1.190215
     44          1           0        4.187226    4.880747    0.378570
     45          1           0        4.925693    2.788731    1.480022
     46          1           0        3.766220    0.672798    1.025900
     47          6           0       -0.038560   -0.064157    0.517586
     48          6           0       -0.103662   -0.145485    1.850363
     49          1           0       -1.097807   -0.185450    2.295175
     50          6           0        1.019057   -0.192457    2.829052
     51          1           0        0.926628   -1.082026    3.458873
     52          1           0        1.998797   -0.199990    2.357605
     53          1           0        0.960647    0.668693    3.502348
 ---------------------------------------------------------------------

 SCF Done:  E(RB3LYP) =  -1726.41958076     A.U. after   15 cycles

      1  P    Isotropic =   235.6826   Anisotropy =    82.6339

      2  P    Isotropic =   231.5771   Anisotropy =    89.5189

      3  C    Isotropic =    48.7139   Anisotropy =   185.8958

      4  C    Isotropic =    50.1959   Anisotropy =   182.6944

      5  C    Isotropic =    53.0773   Anisotropy =   180.5295

      6  C    Isotropic =    49.8508   Anisotropy =   183.7037

      7  C    Isotropic =    48.3878   Anisotropy =   185.0233

      8  C    Isotropic =    33.2569   Anisotropy =   196.0199

      9  H    Isotropic =    24.5377   Anisotropy =     9.2507

     10  H    Isotropic =    24.4725   Anisotropy =     6.7481

     11  H    Isotropic =    24.5309   Anisotropy =     4.1652

     12  H    Isotropic =    24.3879   Anisotropy =     5.3779

     13  H    Isotropic =    24.4180   Anisotropy =    11.2020

     14  C    Isotropic =    44.1460   Anisotropy =   185.6325

     15  C    Isotropic =    49.1524   Anisotropy =   183.7967

     16  C    Isotropic =    49.5251   Anisotropy =   187.2422

     17  C    Isotropic =    49.8682   Anisotropy =   183.8620

     18  C    Isotropic =    41.4832   Anisotropy =   182.7894

     19  C    Isotropic =    32.0096   Anisotropy =   205.9720

     20  H    Isotropic =    24.1861   Anisotropy =    11.4157

     21  H    Isotropic =    24.3830   Anisotropy =     6.3030

     22  H    Isotropic =    24.3109   Anisotropy =     4.2881

     23  H    Isotropic =    24.2297   Anisotropy =     5.5524

     24  H    Isotropic =    23.7192   Anisotropy =     8.5537

     25  C    Isotropic =    49.6724   Anisotropy =   182.9398

     26  C    Isotropic =    49.9096   Anisotropy =   182.9672

     27  C    Isotropic =    53.3714   Anisotropy =   180.1757

     28  C    Isotropic =    49.6948   Anisotropy =   183.8756

     29  C    Isotropic =    49.5060   Anisotropy =   184.5303

     30  C    Isotropic =    35.1964   Anisotropy =   192.6775

     31  H    Isotropic =    24.4911   Anisotropy =     9.2380

     32  H    Isotropic =    24.4816   Anisotropy =     6.6534

     33  H    Isotropic =    24.5399   Anisotropy =     4.1262

     34  H    Isotropic =    24.3500   Anisotropy =     5.4314

     35  H    Isotropic =    24.3313   Anisotropy =    11.2044

     36  C    Isotropic =    40.4378   Anisotropy =   184.3243

     37  C    Isotropic =    49.6550   Anisotropy =   183.9489

     38  C    Isotropic =    49.6117   Anisotropy =   186.6085

     39  C    Isotropic =    49.8028   Anisotropy =   182.7601

     40  C    Isotropic =    43.9454   Anisotropy =   186.6719

     41  C    Isotropic =    35.1587   Anisotropy =   200.7157

     42  H    Isotropic =    23.7738   Anisotropy =     8.4591

     43  H    Isotropic =    24.2505   Anisotropy =     5.6725

     44  H    Isotropic =    24.3258   Anisotropy =     4.2057

     45  H    Isotropic =    24.3470   Anisotropy =     6.2226

     46  H    Isotropic =    23.8331   Anisotropy =    11.2580

     47  C    Isotropic =    37.8377   Anisotropy =   139.0108

     48  C    Isotropic =    16.4849   Anisotropy =   199.9774

     49  H    Isotropic =    24.7150   Anisotropy =     8.1853

     50  C    Isotropic =   160.5138   Anisotropy =    24.3959

     51  H    Isotropic =    30.2988   Anisotropy =     7.8133

     52  H    Isotropic =    29.7980   Anisotropy =     5.0284

     53  H    Isotropic =    30.3346   Anisotropy =     8.1801

 The electronic state is 1-A.
 Alpha  occ. eigenvalues --  -77.04959 -77.04673 -10.20515 -10.18832 -10.18620
 Alpha  occ. eigenvalues --  -10.18561 -10.18398 -10.18357 -10.18063 -10.18031
 Alpha  occ. eigenvalues --  -10.18012 -10.17998 -10.17974 -10.17950 -10.17931
 Alpha  occ. eigenvalues --  -10.17918 -10.17883 -10.17861 -10.17819 -10.17603
 Alpha  occ. eigenvalues --  -10.17556 -10.17543 -10.17539 -10.17487 -10.17479
 Alpha  occ. eigenvalues --  -10.17478 -10.17397 -10.17307 -10.17283  -6.53511
 Alpha  occ. eigenvalues --   -6.53242  -4.69670  -4.69629  -4.69398  -4.69360
 Alpha  occ. eigenvalues --   -4.69148  -4.68879  -0.86357  -0.86221  -0.85712
 Alpha  occ. eigenvalues --   -0.85623  -0.81255  -0.76572  -0.76443  -0.75321
 Alpha  occ. eigenvalues --   -0.75214  -0.74898  -0.74818  -0.74565  -0.74464
 Alpha  occ. eigenvalues --   -0.71349  -0.64541  -0.63875  -0.61241  -0.61090
 Alpha  occ. eigenvalues --   -0.60757  -0.60613  -0.60038  -0.59949  -0.58806
 Alpha  occ. eigenvalues --   -0.56284  -0.53385  -0.52261  -0.52027  -0.50413
 Alpha  occ. eigenvalues --   -0.49947  -0.46750  -0.45938  -0.45897  -0.45769
 Alpha  occ. eigenvalues --   -0.45530  -0.45404  -0.45228  -0.44937  -0.43823
 Alpha  occ. eigenvalues --   -0.43300  -0.43016  -0.42766  -0.42566  -0.42358
 Alpha  occ. eigenvalues --   -0.42188  -0.41140  -0.40717  -0.39106  -0.38181
 Alpha  occ. eigenvalues --   -0.37640  -0.37450  -0.37374  -0.37059  -0.36003
 Alpha  occ. eigenvalues --   -0.35145  -0.35059  -0.34878  -0.34728  -0.33505
 Alpha  occ. eigenvalues --   -0.32519  -0.31047  -0.28262  -0.28081  -0.26948
 Alpha  occ. eigenvalues --   -0.26692  -0.26369  -0.26256  -0.25889  -0.25713
 Alpha  occ. eigenvalues --   -0.25369  -0.21918  -0.18289
 Alpha virt. eigenvalues --   -0.05731  -0.03396  -0.02837  -0.02488  -0.02109
 Alpha virt. eigenvalues --   -0.01918  -0.01339  -0.00834  -0.00544   0.03070
 Alpha virt. eigenvalues --    0.04734   0.04934   0.05093   0.05185   0.06065

 Mulliken charges:
               1
     1  P    0.164175
     2  P    0.154492
     3  C   -0.181025
     4  C   -0.122870
     5  C   -0.111988
     6  C   -0.101953
     7  C   -0.205307
     8  C    0.055823
     9  H    0.146684
    10  H    0.105352
    11  H    0.106703
    12  H    0.108296
    13  H    0.120256
    14  C   -0.180652
    15  C   -0.119006
    16  C   -0.100637
    17  C   -0.102080
    18  C   -0.199696
    19  C    0.068584
    20  H    0.138829
    21  H    0.108105
    22  H    0.110481
    23  H    0.110925
    24  H    0.124357
    25  C   -0.178817
    26  C   -0.115443
    27  C   -0.116269
    28  C   -0.100340
    29  C   -0.222200
    30  C    0.048464
    31  H    0.146307
    32  H    0.105791
    33  H    0.106696
    34  H    0.108360
    35  H    0.126766
    36  C   -0.196759
    37  C   -0.103440
    38  C   -0.101593
    39  C   -0.118586
    40  C   -0.184991
    41  C    0.061122
    42  H    0.128372
    43  H    0.111786
    44  H    0.110537
    45  H    0.108222
    46  H    0.146302
    47  C   -0.191276
    48  C   -0.089890
    49  H    0.121183
    50  C   -0.281686
    51  H    0.124130
    52  H    0.122337
    53  H    0.127068
 Sum of Mulliken charges =  -0.00000

 Dipole moment (field-independent basis, Debye):
    X=              0.1976    Y=             -0.0138    Z=              2.9827  Tot=              2.9893
 Quadrupole moment (field-independent basis, Debye-Ang):
   XX=           -173.0233   YY=           -169.6551   ZZ=           -186.0697
   XY=              2.9874   XZ=              0.3864   YZ=             -0.1246

 Summary of Natural Population Analysis:

                                       Natural Population
                Natural  -----------------------------------------------
    Atom  No    Charge         Core      Valence    Rydberg      Total
 -----------------------------------------------------------------------
      P    1    0.83042      9.99782     4.13836    0.03340    14.16958
      P    2    0.83582      9.99786     4.13278    0.03353    14.16418
      C    3   -0.21883      1.99909     4.19970    0.02005     6.21883
      C    4   -0.19732      1.99919     4.17941    0.01872     6.19732
      C    5   -0.21634      1.99919     4.19762    0.01954     6.21634
      C    6   -0.19738      1.99919     4.17955    0.01864     6.19738
      C    7   -0.20711      1.99909     4.18837    0.01965     6.20711
      C    8   -0.32182      1.99899     4.29070    0.03213     6.32182
      H    9    0.21333      0.00000     0.78469    0.00198     0.78667
      H   10    0.20697      0.00000     0.79175    0.00128     0.79303
      H   11    0.20717      0.00000     0.79166    0.00117     0.79283
      H   12    0.20816      0.00000     0.79057    0.00126     0.79184
      H   13    0.21227      0.00000     0.78599    0.00174     0.78773
      C   14   -0.20177      1.99908     4.18279    0.01990     6.20177
      C   15   -0.20440      1.99919     4.18620    0.01902     6.20440
      C   16   -0.20158      1.99919     4.18323    0.01915     6.20158
      C   17   -0.20392      1.99918     4.18541    0.01933     6.20392
      C   18   -0.19415      1.99910     4.17498    0.02007     6.19415
      C   19   -0.32624      1.99899     4.29374    0.03351     6.32624
      H   20    0.21286      0.00000     0.78494    0.00221     0.78714
      H   21    0.20746      0.00000     0.79117    0.00136     0.79254
      H   22    0.20818      0.00000     0.79065    0.00117     0.79182
      H   23    0.20983      0.00000     0.78892    0.00126     0.79017
      H   24    0.21880      0.00000     0.77971    0.00150     0.78120
      C   25   -0.21861      1.99909     4.19954    0.01998     6.21861
      C   26   -0.19642      1.99919     4.17857    0.01866     6.19642
      C   27   -0.21769      1.99919     4.19893    0.01958     6.21769
      C   28   -0.19647      1.99919     4.17868    0.01861     6.19647
      C   29   -0.21122      1.99909     4.19257    0.01956     6.21122
      C   30   -0.32314      1.99899     4.29259    0.03156     6.32314
      H   31    0.21260      0.00000     0.78543    0.00197     0.78740
      H   32    0.20719      0.00000     0.79154    0.00127     0.79281
      H   33    0.20736      0.00000     0.79147    0.00117     0.79264
      H   34    0.20820      0.00000     0.79054    0.00126     0.79180
      H   35    0.21265      0.00000     0.78560    0.00176     0.78735
      C   36   -0.19460      1.99909     4.17559    0.01992     6.19460
      C   37   -0.20252      1.99918     4.18470    0.01864     6.20252
      C   38   -0.20135      1.99919     4.18301    0.01915     6.20135
      C   39   -0.20459      1.99918     4.18649    0.01892     6.20459
      C   40   -0.20149      1.99908     4.18273    0.01968     6.20149
      C   41   -0.32431      1.99898     4.29290    0.03243     6.32431
      H   42    0.21809      0.00000     0.78012    0.00179     0.78191
      H   43    0.21047      0.00000     0.78828    0.00125     0.78953
      H   44    0.20850      0.00000     0.79033    0.00117     0.79150
      H   45    0.20777      0.00000     0.79090    0.00132     0.79223
      H   46    0.21156      0.00000     0.78631    0.00213     0.78844
      C   47   -0.63512      1.99896     4.59569    0.04046     6.63512
      C   48   -0.08129      1.99898     4.06231    0.02000     6.08129
      H   49    0.19534      0.00000     0.80116    0.00350     0.80466
      C   50   -0.64081      1.99942     4.62804    0.01335     6.64081
      H   51    0.22422      0.00000     0.77456    0.00122     0.77578
      H   52    0.21913      0.00000     0.77907    0.00180     0.78087
      H   53    0.22616      0.00000     0.77262    0.00123     0.77384
 =======================================================================
   * Total *    0.00000     73.97193   141.33314    0.69492   216.00000

 Normal termination of Gaussian 16 at Thu Jan 23 00:36:14 2025.
