 Gaussian 16, Revision B.01,
 Gaussian 16:  ES64L-G16RevB.01 20-Dec-2017

 --------------------------------------------
 # nmr=giao b3lyp/def2TZVP pop=nbo scfcyc=200
 --------------------------------------------

 -------------
 DS-6 SPE NoRh
 -------------
 Symbolic Z-matrix:
 Charge =  0 Multiplicity = 1

                         Standard orientation:
 ---------------------------------------------------------------------
 Center     Atomic      Atomic             Coordinates (Angstroms)
 Number     Number       Type             X           Y           Z
 ---------------------------------------------------------------------
      1         15           0       -1.401681   -0.144640   -0.571782
      2         15           0        1.400992   -0.188947   -0.557410
      3          6           0       -0.014845   -0.422254    0.751004
      4          6           0       -0.043007    0.504107    1.964285
      5          6           0       -0.047892   -1.877597    1.240518
      6          6           0       -2.687679   -1.417725   -0.220852
      7          6           0       -3.494865   -1.342873    0.921289
      8          6           0       -4.407746   -2.352042    1.202646
      9          6           0       -4.523585   -3.448230    0.351818
     10          6           0       -3.718552   -3.536183   -0.777488
     11          6           0       -2.802676   -2.527448   -1.061045
     12          6           0       -2.238611    1.488901   -0.338195
     13          6           0       -1.474858    2.658958   -0.233452
     14          6           0       -2.090349    3.901704   -0.165334
     15          6           0       -3.477271    4.001814   -0.224190
     16          6           0       -4.242804    2.850512   -0.360967
     17          6           0       -3.630384    1.601838   -0.419366
     18          6           0        2.703865   -1.488375   -0.344902
     19          6           0        2.405673   -2.784161   -0.786889
     20          6           0        3.345822   -3.801717   -0.690195
     21          6           0        4.609000   -3.537413   -0.169039
     22          6           0        4.925097   -2.249788    0.246666
     23          6           0        3.980976   -1.229909    0.160013
     24          6           0        2.216001    1.429763   -0.203731
     25          6           0        2.817396    1.716860    1.029188
     26          6           0        3.422859    2.948529    1.250354
     27          6           0        3.435155    3.912602    0.246409
     28          6           0        2.833971    3.643579   -0.977062
     29          6           0        2.227501    2.411243   -1.199468
     30          1           0        0.750896    0.235320    2.663589
     31          1           0        0.063331    1.556990    1.718976
     32          1           0       -0.991521    0.380640    2.492747
     33          1           0        0.862606   -2.096372    1.799602
     34          1           0       -0.897675   -2.024596    1.906211
     35          1           0       -0.129432   -2.606860    0.437593
     36          1           0       -3.420940   -0.495421    1.590979
     37          1           0       -5.028975   -2.282107    2.086667
     38          1           0       -5.237808   -4.231606    0.572705
     39          1           0       -3.801554   -4.390172   -1.438701
     40          1           0       -2.166587   -2.609442   -1.932910
     41          1           0       -0.394326    2.612696   -0.218258
     42          1           0       -1.483866    4.793427   -0.071581
     43          1           0       -3.955943    4.972026   -0.173738
     44          1           0       -5.322086    2.918178   -0.420952
     45          1           0       -4.247733    0.721610   -0.530636
     46          1           0        1.436099   -2.998573   -1.219543
     47          1           0        3.095137   -4.798357   -1.031106
     48          1           0        5.344793   -4.327951   -0.099459
     49          1           0        5.910719   -2.031467    0.636762
     50          1           0        4.260650   -0.234397    0.471524
     51          1           0        2.817822    0.985054    1.825983
     52          1           0        3.884292    3.154126    2.207919
     53          1           0        3.909408    4.870926    0.420628
     54          1           0        2.836721    4.390384   -1.761131
     55          1           0        1.747136    2.211584   -2.148071
 ---------------------------------------------------------------------

 SCF Done:  E(RB3LYP) =  -1727.63026356     A.U. after   14 cycles

      1  P    Isotropic =   198.8495   Anisotropy =   140.2030

      2  P    Isotropic =   212.7685   Anisotropy =   157.1661

      3  C    Isotropic =   129.7273   Anisotropy =    31.1487

      4  C    Isotropic =   156.8652   Anisotropy =    19.9739

      5  C    Isotropic =   155.5634   Anisotropy =    12.1354

      6  C    Isotropic =    36.6660   Anisotropy =   203.9380

      7  C    Isotropic =    40.3721   Anisotropy =   188.5292

      8  C    Isotropic =    49.7202   Anisotropy =   182.8935

      9  C    Isotropic =    48.3985   Anisotropy =   188.7793

     10  C    Isotropic =    49.5407   Anisotropy =   183.4026

     11  C    Isotropic =    39.2548   Anisotropy =   181.8080

     12  C    Isotropic =    34.8233   Anisotropy =   193.4768

     13  C    Isotropic =    46.9036   Anisotropy =   183.3942

     14  C    Isotropic =    51.1323   Anisotropy =   181.2726

     15  C    Isotropic =    53.5238   Anisotropy =   179.3037

     16  C    Isotropic =    50.1944   Anisotropy =   181.7880

     17  C    Isotropic =    49.5500   Anisotropy =   180.9803

     18  C    Isotropic =    37.2581   Anisotropy =   193.7332

     19  C    Isotropic =    41.8698   Anisotropy =   182.5266

     20  C    Isotropic =    51.0220   Anisotropy =   180.9166

     21  C    Isotropic =    51.7850   Anisotropy =   182.7943

     22  C    Isotropic =    50.5567   Anisotropy =   181.2359

     23  C    Isotropic =    47.7162   Anisotropy =   184.8584

     24  C    Isotropic =    40.0349   Anisotropy =   197.7164

     25  C    Isotropic =    35.0431   Anisotropy =   190.9884

     26  C    Isotropic =    50.6660   Anisotropy =   182.6175

     27  C    Isotropic =    47.9374   Anisotropy =   190.7233

     28  C    Isotropic =    49.0901   Anisotropy =   185.2167

     29  C    Isotropic =    38.3530   Anisotropy =   182.1516

     30  H    Isotropic =    30.6609   Anisotropy =     8.3456

     31  H    Isotropic =    30.2382   Anisotropy =     4.8612

     32  H    Isotropic =    30.8624   Anisotropy =     8.1993

     33  H    Isotropic =    31.5062   Anisotropy =     6.9484

     34  H    Isotropic =    31.5299   Anisotropy =     7.7639

     35  H    Isotropic =    30.6792   Anisotropy =     6.2150

     36  H    Isotropic =    24.0185   Anisotropy =    11.0723

     37  H    Isotropic =    24.2853   Anisotropy =     6.1223

     38  H    Isotropic =    24.1882   Anisotropy =     4.2516

     39  H    Isotropic =    24.0642   Anisotropy =     5.4508

     40  H    Isotropic =    23.6180   Anisotropy =     9.0458

     41  H    Isotropic =    24.7822   Anisotropy =     7.5001

     42  H    Isotropic =    24.7342   Anisotropy =     8.3090

     43  H    Isotropic =    24.6916   Anisotropy =     4.6263

     44  H    Isotropic =    24.5726   Anisotropy =     6.0791

     45  H    Isotropic =    24.6807   Anisotropy =    12.8402

     46  H    Isotropic =    23.8899   Anisotropy =    10.4712

     47  H    Isotropic =    24.3408   Anisotropy =     6.3800

     48  H    Isotropic =    24.5332   Anisotropy =     4.4294

     49  H    Isotropic =    24.5297   Anisotropy =     6.6289

     50  H    Isotropic =    24.3096   Anisotropy =    13.3254

     51  H    Isotropic =    23.6253   Anisotropy =    10.1001

     52  H    Isotropic =    24.0774   Anisotropy =     5.9393

     53  H    Isotropic =    24.0271   Anisotropy =     4.1133

     54  H    Isotropic =    23.9868   Anisotropy =     5.3015

     55  H    Isotropic =    23.5352   Anisotropy =     8.5566

 The electronic state is 1-A.
 Alpha  occ. eigenvalues --  -77.04464 -77.04439 -10.20545 -10.18779 -10.18545
 Alpha  occ. eigenvalues --  -10.18486 -10.18418 -10.18406 -10.18375 -10.18366
 Alpha  occ. eigenvalues --  -10.18305 -10.18276 -10.18251 -10.18172 -10.18122
 Alpha  occ. eigenvalues --  -10.18074 -10.18034 -10.17713 -10.17612 -10.17549
 Alpha  occ. eigenvalues --  -10.17500 -10.17443 -10.17292 -10.17252 -10.17234
 Alpha  occ. eigenvalues --  -10.17166 -10.17058 -10.16731 -10.16709  -6.53014
 Alpha  occ. eigenvalues --   -6.52999  -4.69157  -4.69151  -4.69133  -4.69109
 Alpha  occ. eigenvalues --   -4.68647  -4.68637  -0.86675  -0.86420  -0.85768
 Alpha  occ. eigenvalues --   -0.85466  -0.80500  -0.76551  -0.75934  -0.75694
 Alpha  occ. eigenvalues --   -0.75440  -0.74981  -0.74712  -0.74610  -0.74364
 Alpha  occ. eigenvalues --   -0.69235  -0.65586  -0.63968  -0.61561  -0.61301
 Alpha  occ. eigenvalues --   -0.60756  -0.60530  -0.60176  -0.59930  -0.59290
 Alpha  occ. eigenvalues --   -0.56271  -0.54137  -0.52308  -0.52034  -0.50376
 Alpha  occ. eigenvalues --   -0.49277  -0.46591  -0.46409  -0.46164  -0.45891
 Alpha  occ. eigenvalues --   -0.45723  -0.45349  -0.45291  -0.45040  -0.44006
 Alpha  occ. eigenvalues --   -0.43724  -0.43139  -0.42941  -0.42723  -0.42206
 Alpha  occ. eigenvalues --   -0.41802  -0.41021  -0.40038  -0.39256  -0.38582
 Alpha  occ. eigenvalues --   -0.38060  -0.37693  -0.37277  -0.37082  -0.36972
 Alpha  occ. eigenvalues --   -0.35850  -0.35530  -0.35305  -0.35009  -0.34589
 Alpha  occ. eigenvalues --   -0.34247  -0.32409  -0.31898  -0.29890  -0.27606
 Alpha  occ. eigenvalues --   -0.26623  -0.26590  -0.26536  -0.26371  -0.25837
 Alpha  occ. eigenvalues --   -0.25574  -0.25405  -0.21809  -0.18189
 Alpha virt. eigenvalues --   -0.04083  -0.03452  -0.02448  -0.02299  -0.02002
 Alpha virt. eigenvalues --   -0.01604  -0.01439  -0.00926   0.01282   0.02764
 Alpha virt. eigenvalues --    0.04562   0.04988   0.05562   0.05721   0.06446

 Mulliken charges:
               1
     1  P    0.128884
     2  P    0.099714
     3  C   -0.002261
     4  C   -0.389561
     5  C   -0.393525
     6  C    0.106346
     7  C   -0.262936
     8  C   -0.082388
     9  C   -0.104960
    10  C   -0.097582
    11  C   -0.190069
    12  C    0.025618
    13  C   -0.161664
    14  C   -0.174835
    15  C   -0.092825
    16  C   -0.136031
    17  C   -0.169627
    18  C    0.054939
    19  C   -0.179922
    20  C   -0.121244
    21  C   -0.103651
    22  C   -0.136663
    23  C   -0.160979
    24  C    0.050028
    25  C   -0.225329
    26  C   -0.100862
    27  C   -0.099100
    28  C   -0.093228
    29  C   -0.171319
    30  H    0.106218
    31  H    0.141703
    32  H    0.116339
    33  H    0.133655
    34  H    0.132739
    35  H    0.121820
    36  H    0.138104
    37  H    0.109371
    38  H    0.111658
    39  H    0.110352
    40  H    0.118692
    41  H    0.176272
    42  H    0.104969
    43  H    0.104747
    44  H    0.105779
    45  H    0.147544
    46  H    0.122533
    47  H    0.106788
    48  H    0.107413
    49  H    0.104956
    50  H    0.155810
    51  H    0.149124
    52  H    0.109776
    53  H    0.112994
    54  H    0.113385
    55  H    0.122294
 Sum of Mulliken charges =  -0.00000

 Dipole moment (field-independent basis, Debye):
    X=              0.1827    Y=             -0.1020    Z=              2.2033  Tot=              2.2132
 Quadrupole moment (field-independent basis, Debye-Ang):
   XX=           -175.4552   YY=           -168.8328   ZZ=           -189.2191
   XY=              7.6958   XZ=              1.5782   YZ=              1.8866

 Summary of Natural Population Analysis:

                                       Natural Population
                Natural  -----------------------------------------------
    Atom  No    Charge         Core      Valence    Rydberg      Total
 -----------------------------------------------------------------------
      P    1    0.82246      9.99797     4.14802    0.03155    14.17754
      P    2    0.80289      9.99800     4.16774    0.03136    14.19711
      C    3   -0.48411      1.99945     4.44808    0.03658     6.48411
      C    4   -0.61701      1.99935     4.60257    0.01509     6.61701
      C    5   -0.61335      1.99936     4.59980    0.01419     6.61335
      C    6   -0.33169      1.99900     4.29930    0.03339     6.33169
      C    7   -0.20297      1.99908     4.18320    0.02069     6.20297
      C    8   -0.20763      1.99918     4.18937    0.01907     6.20763
      C    9   -0.19738      1.99919     4.17915    0.01904     6.19738
      C   10   -0.20625      1.99918     4.18758    0.01948     6.20625
      C   11   -0.19355      1.99910     4.17365    0.02080     6.19355
      C   12   -0.32289      1.99898     4.29253    0.03138     6.32289
      C   13   -0.21524      1.99908     4.19607    0.02009     6.21524
      C   14   -0.19745      1.99918     4.17984    0.01844     6.19745
      C   15   -0.21570      1.99918     4.19695    0.01956     6.21570
      C   16   -0.19770      1.99918     4.17987    0.01865     6.19770
      C   17   -0.21358      1.99909     4.19478    0.01971     6.21358
      C   18   -0.32333      1.99897     4.29261    0.03175     6.32333
      C   19   -0.19907      1.99909     4.17995    0.02002     6.19907
      C   20   -0.20249      1.99918     4.18457    0.01875     6.20249
      C   21   -0.20743      1.99919     4.18890    0.01934     6.20743
      C   22   -0.20033      1.99919     4.18243    0.01872     6.20033
      C   23   -0.20756      1.99908     4.18878    0.01970     6.20756
      C   24   -0.33872      1.99899     4.30709    0.03263     6.33872
      C   25   -0.20071      1.99909     4.18146    0.02016     6.20071
      C   26   -0.20976      1.99918     4.19161    0.01896     6.20976
      C   27   -0.19405      1.99919     4.17588    0.01898     6.19405
      C   28   -0.20813      1.99918     4.18968    0.01928     6.20813
      C   29   -0.18940      1.99911     4.16979    0.02051     6.18940
      H   30    0.20237      0.00000     0.79572    0.00191     0.79763
      H   31    0.21681      0.00000     0.78118    0.00201     0.78319
      H   32    0.20803      0.00000     0.79005    0.00192     0.79197
      H   33    0.21183      0.00000     0.78588    0.00229     0.78817
      H   34    0.21200      0.00000     0.78570    0.00229     0.78800
      H   35    0.21305      0.00000     0.78536    0.00159     0.78695
      H   36    0.21033      0.00000     0.78679    0.00287     0.78967
      H   37    0.20831      0.00000     0.79030    0.00139     0.79169
      H   38    0.20901      0.00000     0.78980    0.00118     0.79099
      H   39    0.21000      0.00000     0.78873    0.00127     0.79000
      H   40    0.21765      0.00000     0.78081    0.00153     0.78235
      H   41    0.21155      0.00000     0.78653    0.00192     0.78845
      H   42    0.20773      0.00000     0.79099    0.00129     0.79227
      H   43    0.20675      0.00000     0.79206    0.00119     0.79325
      H   44    0.20697      0.00000     0.79175    0.00128     0.79303
      H   45    0.21503      0.00000     0.78318    0.00178     0.78497
      H   46    0.20740      0.00000     0.79042    0.00218     0.79260
      H   47    0.20844      0.00000     0.79029    0.00127     0.79156
      H   48    0.20762      0.00000     0.79120    0.00118     0.79238
      H   49    0.20664      0.00000     0.79205    0.00131     0.79336
      H   50    0.21274      0.00000     0.78531    0.00195     0.78726
      H   51    0.20842      0.00000     0.78883    0.00275     0.79158
      H   52    0.20901      0.00000     0.78960    0.00139     0.79099
      H   53    0.20974      0.00000     0.78908    0.00118     0.79026
      H   54    0.21166      0.00000     0.78708    0.00126     0.78834
      H   55    0.22303      0.00000     0.77544    0.00153     0.77697
 =======================================================================
   * Total *    0.00000     73.97300   143.33540    0.69160   218.00000

 Normal termination of Gaussian 16 at Thu Jan 23 00:42:04 2025.
