 Gaussian 16, Revision B.01,
 Gaussian 16:  ES64L-G16RevB.01 20-Dec-2017

 --------------------------------------------
 # nmr=giao b3lyp/def2TZVP pop=nbo scfcyc=200
 --------------------------------------------

 -------------
 DS-7 SPE NoRh
 -------------
 Symbolic Z-matrix:
 Charge =  0 Multiplicity = 1

                         Standard orientation:
 ---------------------------------------------------------------------
 Center     Atomic      Atomic             Coordinates (Angstroms)
 Number     Number       Type             X           Y           Z
 ---------------------------------------------------------------------
      1         15           0       -1.405090   -0.007200   -0.627511
      2         15           0        1.404580    0.007132   -0.626888
      3          6           0        0.000423   -0.000227    0.607301
      4          6           0        0.006766   -0.742180    1.934889
      5          6           0       -0.006556    0.740273    1.935712
      6          6           0       -2.459396   -1.462376   -0.229173
      7          6           0       -3.349253   -1.455557    0.851953
      8          6           0       -4.075111   -2.598329    1.167420
      9          6           0       -3.919282   -3.757786    0.411756
     10          6           0       -3.033579   -3.773539   -0.659374
     11          6           0       -2.305740   -2.631799   -0.979842
     12          6           0       -2.453344    1.486043   -0.374540
     13          6           0       -3.822269    1.446908   -0.661374
     14          6           0       -4.588291    2.606313   -0.592627
     15          6           0       -3.998178    3.817081   -0.245037
     16          6           0       -2.634081    3.866310    0.025804
     17          6           0       -1.862974    2.711819   -0.045942
     18          6           0        2.453904   -1.486407   -0.374859
     19          6           0        3.823768   -1.445972   -0.661024
     20          6           0        4.589808   -2.605454   -0.591771
     21          6           0        3.999791   -3.816607   -0.245361
     22          6           0        2.635768   -3.866136    0.024798
     23          6           0        1.864624   -2.712565   -0.046457
     24          6           0        2.458996    1.461867   -0.229226
     25          6           0        3.349184    1.455850    0.851649
     26          6           0        4.074145    2.599290    1.167183
     27          6           0        3.917093    3.758601    0.411847
     28          6           0        3.031061    3.773542   -0.660024
     29          6           0        2.304117    2.631139   -0.979557
     30          1           0        0.923142   -1.250278    2.202482
     31          1           0       -0.895555   -1.274780    2.206718
     32          1           0       -0.923841    1.249091    2.203120
     33          1           0        0.895857    1.273572    2.206884
     34          1           0       -3.488663   -0.559334    1.443469
     35          1           0       -4.763824   -2.582857    2.002523
     36          1           0       -4.488703   -4.645191    0.658342
     37          1           0       -2.911219   -4.672468   -1.250889
     38          1           0       -1.615009   -2.646306   -1.813944
     39          1           0       -4.300537    0.514201   -0.931825
     40          1           0       -5.648270    2.560787   -0.809507
     41          1           0       -4.596679    4.716552   -0.188457
     42          1           0       -2.166691    4.806208    0.292260
     43          1           0       -0.801720    2.773335    0.153947
     44          1           0        4.300944   -0.513949   -0.930573
     45          1           0        5.649728   -2.559688   -0.808891
     46          1           0        4.598307   -4.716141   -0.187942
     47          1           0        2.168451   -4.806329    0.291341
     48          1           0        0.802425   -2.774285    0.153654
     49          1           0        3.489772    0.559954    1.442134
     50          1           0        4.763104    2.583893    2.002081
     51          1           0        4.486581    4.645733    0.658261
     52          1           0        2.908539    4.673125   -1.250508
     53          1           0        1.613141    2.645570   -1.813454
 ---------------------------------------------------------------------

 SCF Done:  E(RB3LYP) =  -1726.40290027     A.U. after   14 cycles

      1  P    Isotropic =   207.7953   Anisotropy =   105.6128

      2  P    Isotropic =   208.2371   Anisotropy =   105.4238

      3  C    Isotropic =   154.8254   Anisotropy =    90.9858

      4  C    Isotropic =   161.5256   Anisotropy =    37.2701

      5  C    Isotropic =   161.4524   Anisotropy =    37.3021

      6  C    Isotropic =    36.3384   Anisotropy =   205.8458

      7  C    Isotropic =    41.7700   Anisotropy =   187.9461

      8  C    Isotropic =    49.1748   Anisotropy =   184.6577

      9  C    Isotropic =    48.5118   Anisotropy =   189.2677

     10  C    Isotropic =    49.1242   Anisotropy =   184.9820

     11  C    Isotropic =    39.6671   Anisotropy =   182.6630

     12  C    Isotropic =    33.8613   Anisotropy =   191.7164

     13  C    Isotropic =    50.1857   Anisotropy =   180.7384

     14  C    Isotropic =    49.8302   Anisotropy =   183.1627

     15  C    Isotropic =    53.5698   Anisotropy =   179.4694

     16  C    Isotropic =    50.4427   Anisotropy =   182.4062

     17  C    Isotropic =    48.2600   Anisotropy =   185.5083

     18  C    Isotropic =    33.7061   Anisotropy =   191.7829

     19  C    Isotropic =    50.1393   Anisotropy =   180.9421

     20  C    Isotropic =    49.8265   Anisotropy =   183.2138

     21  C    Isotropic =    53.6194   Anisotropy =   179.3858

     22  C    Isotropic =    50.5383   Anisotropy =   182.2404

     23  C    Isotropic =    48.3084   Anisotropy =   185.2957

     24  C    Isotropic =    36.4241   Anisotropy =   205.8458

     25  C    Isotropic =    41.7809   Anisotropy =   188.1032

     26  C    Isotropic =    49.1696   Anisotropy =   184.6732

     27  C    Isotropic =    48.4173   Anisotropy =   189.4092

     28  C    Isotropic =    49.0629   Anisotropy =   185.0395

     29  C    Isotropic =    39.7138   Anisotropy =   182.6327

     30  H    Isotropic =    30.7447   Anisotropy =    10.1840

     31  H    Isotropic =    30.8734   Anisotropy =    12.8682

     32  H    Isotropic =    30.7185   Anisotropy =    10.1684

     33  H    Isotropic =    30.8675   Anisotropy =    12.8634

     34  H    Isotropic =    24.2873   Anisotropy =    11.3297

     35  H    Isotropic =    24.2584   Anisotropy =     6.2518

     36  H    Isotropic =    24.1625   Anisotropy =     4.1501

     37  H    Isotropic =    24.0386   Anisotropy =     5.5067

     38  H    Isotropic =    23.5812   Anisotropy =     8.9505

     39  H    Isotropic =    24.6636   Anisotropy =    12.4861

     40  H    Isotropic =    24.4868   Anisotropy =     5.8873

     41  H    Isotropic =    24.6073   Anisotropy =     4.3244

     42  H    Isotropic =    24.4256   Anisotropy =     7.3088

     43  H    Isotropic =    24.4398   Anisotropy =    10.1452

     44  H    Isotropic =    24.6737   Anisotropy =    12.5008

     45  H    Isotropic =    24.4870   Anisotropy =     5.8875

     46  H    Isotropic =    24.6075   Anisotropy =     4.3230

     47  H    Isotropic =    24.4271   Anisotropy =     7.3024

     48  H    Isotropic =    24.4298   Anisotropy =    10.1343

     49  H    Isotropic =    24.2937   Anisotropy =    11.3366

     50  H    Isotropic =    24.2564   Anisotropy =     6.2527

     51  H    Isotropic =    24.1625   Anisotropy =     4.1580

     52  H    Isotropic =    24.0351   Anisotropy =     5.4989

     53  H    Isotropic =    23.5826   Anisotropy =     8.9482

 The electronic state is 1-A.
 Alpha  occ. eigenvalues --  -77.04844 -77.04838 -10.20154 -10.18827 -10.18795
 Alpha  occ. eigenvalues --  -10.18637 -10.18633 -10.18493 -10.18488 -10.18415
 Alpha  occ. eigenvalues --  -10.18412 -10.18337 -10.18335 -10.18323 -10.18318
 Alpha  occ. eigenvalues --  -10.18228 -10.18223 -10.18210 -10.18209 -10.17516
 Alpha  occ. eigenvalues --  -10.17508 -10.17490 -10.17488 -10.17458 -10.17451
 Alpha  occ. eigenvalues --  -10.17431 -10.17428 -10.17227 -10.17224  -6.53397
 Alpha  occ. eigenvalues --   -6.53393  -4.69552  -4.69547  -4.69514  -4.69510
 Alpha  occ. eigenvalues --   -4.69038  -4.69033  -0.87366  -0.86531  -0.86255
 Alpha  occ. eigenvalues --   -0.85653  -0.85571  -0.76773  -0.76631  -0.75599
 Alpha  occ. eigenvalues --   -0.75589  -0.74882  -0.74849  -0.74582  -0.74575
 Alpha  occ. eigenvalues --   -0.67576  -0.64256  -0.61786  -0.61516  -0.61359
 Alpha  occ. eigenvalues --   -0.60898  -0.60400  -0.60130  -0.60112  -0.59751
 Alpha  occ. eigenvalues --   -0.56497  -0.54404  -0.52304  -0.52186  -0.50750
 Alpha  occ. eigenvalues --   -0.50511  -0.48696  -0.47160  -0.46134  -0.46100
 Alpha  occ. eigenvalues --   -0.45940  -0.45774  -0.45301  -0.45252  -0.44651
 Alpha  occ. eigenvalues --   -0.43565  -0.43127  -0.43089  -0.42406  -0.42252
 Alpha  occ. eigenvalues --   -0.41278  -0.40940  -0.38766  -0.38581  -0.37938
 Alpha  occ. eigenvalues --   -0.37441  -0.37353  -0.36999  -0.36581  -0.35456
 Alpha  occ. eigenvalues --   -0.35452  -0.34883  -0.34860  -0.34242  -0.33394
 Alpha  occ. eigenvalues --   -0.32508  -0.31369  -0.30026  -0.27727  -0.26915
 Alpha  occ. eigenvalues --   -0.26764  -0.26643  -0.26507  -0.26096  -0.25676
 Alpha  occ. eigenvalues --   -0.25662  -0.21799  -0.18410
 Alpha virt. eigenvalues --   -0.03835  -0.03243  -0.02655  -0.02284  -0.02221
 Alpha virt. eigenvalues --   -0.02131  -0.01360  -0.00875   0.01334   0.03200
 Alpha virt. eigenvalues --    0.04593   0.05164   0.05277   0.05780   0.06070

 Mulliken charges:
               1
     1  P    0.168000
     2  P    0.167840
     3  C   -0.071026
     4  C   -0.263977
     5  C   -0.263917
     6  C    0.090082
     7  C   -0.243430
     8  C   -0.082939
     9  C   -0.105736
    10  C   -0.095990
    11  C   -0.211236
    12  C    0.039895
    13  C   -0.206714
    14  C   -0.113493
    15  C   -0.109532
    16  C   -0.124812
    17  C   -0.202744
    18  C    0.040021
    19  C   -0.207411
    20  C   -0.113138
    21  C   -0.109757
    22  C   -0.124453
    23  C   -0.202692
    24  C    0.090048
    25  C   -0.243284
    26  C   -0.083288
    27  C   -0.105487
    28  C   -0.096298
    29  C   -0.211183
    30  H    0.135480
    31  H    0.131580
    32  H    0.135375
    33  H    0.131563
    34  H    0.138314
    35  H    0.110850
    36  H    0.112476
    37  H    0.112780
    38  H    0.128300
    39  H    0.135546
    40  H    0.107307
    41  H    0.106278
    42  H    0.105131
    43  H    0.174318
    44  H    0.135795
    45  H    0.107266
    46  H    0.106257
    47  H    0.105055
    48  H    0.174018
    49  H    0.138497
    50  H    0.110848
    51  H    0.112516
    52  H    0.112818
    53  H    0.128281
 Sum of Mulliken charges =  -0.00000

 Dipole moment (field-independent basis, Debye):
    X=             -0.0023    Y=              0.0024    Z=              2.3879  Tot=              2.3879
 Quadrupole moment (field-independent basis, Debye-Ang):
   XX=           -171.8653   YY=           -167.0460   ZZ=           -190.1396
   XY=              7.0166   XZ=              0.0068   YZ=             -0.0038

 Summary of Natural Population Analysis:

                                       Natural Population
                Natural  -----------------------------------------------
    Atom  No    Charge         Core      Valence    Rydberg      Total
 -----------------------------------------------------------------------
      P    1    0.86347      9.99791     4.10674    0.03188    14.13653
      P    2    0.86363      9.99790     4.10656    0.03190    14.13637
      C    3   -0.63488      1.99934     4.59685    0.03869     6.63488
      C    4   -0.38596      1.99926     4.36991    0.01679     6.38596
      C    5   -0.38603      1.99926     4.36998    0.01680     6.38603
      C    6   -0.33399      1.99900     4.30188    0.03311     6.33399
      C    7   -0.20277      1.99909     4.18334    0.02035     6.20277
      C    8   -0.20611      1.99919     4.18790    0.01902     6.20611
      C    9   -0.19789      1.99919     4.17966    0.01904     6.19789
      C   10   -0.20499      1.99918     4.18648    0.01933     6.20499
      C   11   -0.19312      1.99910     4.17361    0.02041     6.19312
      C   12   -0.32661      1.99899     4.29580    0.03182     6.32661
      C   13   -0.21269      1.99909     4.19391    0.01968     6.21269
      C   14   -0.19657      1.99919     4.17872    0.01867     6.19657
      C   15   -0.21746      1.99919     4.19869    0.01958     6.21746
      C   16   -0.19704      1.99919     4.17912    0.01873     6.19704
      C   17   -0.21793      1.99909     4.19848    0.02036     6.21793
      C   18   -0.32587      1.99899     4.29507    0.03181     6.32587
      C   19   -0.21274      1.99909     4.19400    0.01964     6.21274
      C   20   -0.19656      1.99919     4.17872    0.01866     6.19656
      C   21   -0.21749      1.99919     4.19871    0.01959     6.21749
      C   22   -0.19708      1.99918     4.17914    0.01876     6.19708
      C   23   -0.21827      1.99909     4.19879    0.02039     6.21827
      C   24   -0.33420      1.99900     4.30209    0.03312     6.33420
      C   25   -0.20258      1.99909     4.18316    0.02034     6.20258
      C   26   -0.20620      1.99919     4.18799    0.01902     6.20620
      C   27   -0.19778      1.99919     4.17956    0.01902     6.19778
      C   28   -0.20493      1.99918     4.18642    0.01932     6.20493
      C   29   -0.19320      1.99910     4.17368    0.02042     6.19320
      H   30    0.21973      0.00000     0.77826    0.00200     0.78027
      H   31    0.21836      0.00000     0.77941    0.00222     0.78164
      H   32    0.21980      0.00000     0.77819    0.00201     0.78020
      H   33    0.21836      0.00000     0.77941    0.00223     0.78164
      H   34    0.21243      0.00000     0.78513    0.00244     0.78757
      H   35    0.20873      0.00000     0.78990    0.00137     0.79127
      H   36    0.20932      0.00000     0.78950    0.00117     0.79068
      H   37    0.21074      0.00000     0.78801    0.00126     0.78926
      H   38    0.22050      0.00000     0.77797    0.00153     0.77950
      H   39    0.21352      0.00000     0.78472    0.00176     0.78648
      H   40    0.20761      0.00000     0.79112    0.00127     0.79239
      H   41    0.20722      0.00000     0.79161    0.00118     0.79278
      H   42    0.20742      0.00000     0.79131    0.00128     0.79258
      H   43    0.21137      0.00000     0.78647    0.00217     0.78863
      H   44    0.21344      0.00000     0.78480    0.00176     0.78656
      H   45    0.20757      0.00000     0.79116    0.00127     0.79243
      H   46    0.20724      0.00000     0.79158    0.00118     0.79276
      H   47    0.20742      0.00000     0.79131    0.00128     0.79258
      H   48    0.21142      0.00000     0.78641    0.00217     0.78858
      H   49    0.21235      0.00000     0.78521    0.00244     0.78765
      H   50    0.20873      0.00000     0.78990    0.00137     0.79127
      H   51    0.20927      0.00000     0.78955    0.00117     0.79073
      H   52    0.21076      0.00000     0.78798    0.00126     0.78924
      H   53    0.22049      0.00000     0.77798    0.00153     0.77951
 =======================================================================
   * Total *   -0.00000     73.97262   141.33183    0.69556   216.00000

 Normal termination of Gaussian 16 at Thu Jan 23 00:41:18 2025.
