 Gaussian 16, Revision B.01,
 Gaussian 16:  ES64L-G16RevB.01 20-Dec-2017

 --------------------------------------------
 # nmr=giao b3lyp/def2TZVP pop=nbo scfcyc=200
 --------------------------------------------

 -------------
 DS-9 SPE NoRh
 -------------
 Symbolic Z-matrix:
 Charge =  0 Multiplicity = 1

                         Standard orientation:
 ---------------------------------------------------------------------
 Center     Atomic      Atomic             Coordinates (Angstroms)
 Number     Number       Type             X           Y           Z
 ---------------------------------------------------------------------
      1         15           0        1.746154   -0.469866   -0.670466
      2         15           0       -1.061868   -0.233484   -0.743660
      3          6           0       -1.157689    2.163928    0.778343
      4          6           0       -1.591516    3.462739    1.028089
      5          6           0       -2.473490    4.113254    0.164450
      6          6           0       -2.914235    3.416588   -0.967118
      7          6           0       -2.480998    2.126615   -1.229614
      8          6           0       -1.599105    1.480732   -0.354681
      9          1           0       -0.477451    1.691300    1.472724
     10          1           0       -1.239022    3.974925    1.915466
     11          1           0       -3.606838    3.894014   -1.651249
     12          1           0       -2.851840    1.616484   -2.111502
     13          6           0       -3.592520   -0.870417    0.378447
     14          6           0       -4.640163   -1.738182    0.668955
     15          6           0       -4.630949   -3.062166    0.226959
     16          6           0       -3.529473   -3.498270   -0.515862
     17          6           0       -2.481118   -2.640004   -0.816281
     18          6           0       -2.499659   -1.314047   -0.369584
     19          1           0       -3.633941    0.149951    0.735323
     20          1           0       -5.479063   -1.375256    1.251099
     21          1           0       -3.495072   -4.523624   -0.867555
     22          1           0       -1.640996   -3.004064   -1.395738
     23          6           0        2.612736   -3.081453   -0.131234
     24          6           0        3.555027   -4.070944    0.115495
     25          6           0        4.902166   -3.738022    0.241685
     26          6           0        5.300933   -2.412638    0.118467
     27          6           0        4.360356   -1.414831   -0.122186
     28          6           0        3.006757   -1.742018   -0.240415
     29          1           0        1.569495   -3.353468   -0.235222
     30          1           0        3.239905   -5.102538    0.209228
     31          1           0        5.635948   -4.510892    0.431970
     32          1           0        6.347155   -2.148480    0.212948
     33          1           0        4.684833   -0.387907   -0.209862
     34          6           0        2.667930    2.111099   -1.269635
     35          6           0        3.229992    3.350101   -0.974775
     36          6           0        3.616894    3.646688    0.326607
     37          6           0        3.441359    2.704892    1.337653
     38          6           0        2.881041    1.467218    1.047396
     39          6           0        2.495157    1.161384   -0.261697
     40          1           0        2.353113    1.886900   -2.280792
     41          1           0        3.361028    4.082295   -1.761508
     42          1           0        4.054001    4.610403    0.555490
     43          1           0        3.740155    2.935676    2.352545
     44          1           0        2.749904    0.742883    1.842327
     45          6           0        0.288679   -0.669672    0.449783
     46          6           0        0.192095   -1.257535    1.638196
     47          1           0       -0.770017   -1.425795    2.110396
     48          1           0        1.065515   -1.619530    2.170830
     49          6           0       -5.783481   -3.985883    0.516633
     50          1           0       -6.505650   -3.970858   -0.305154
     51          1           0       -5.448189   -5.016880    0.635994
     52          1           0       -6.313595   -3.690878    1.422764
     53          6           0       -2.924584    5.524724    0.424534
     54          1           0       -2.364862    6.230387   -0.195467
     55          1           0       -3.982014    5.654429    0.189059
     56          1           0       -2.769655    5.807495    1.466117
 ---------------------------------------------------------------------

 SCF Done:  E(RB3LYP) =  -1765.75583371     A.U. after   14 cycles

      1  P    Isotropic =   234.2937   Anisotropy =    97.8445

      2  P    Isotropic =   234.4712   Anisotropy =    82.8939

      3  C    Isotropic =    44.8711   Anisotropy =   188.2676

      4  C    Isotropic =    49.1043   Anisotropy =   162.4572

      5  C    Isotropic =    38.2050   Anisotropy =   200.8652

      6  C    Isotropic =    49.2598   Anisotropy =   166.6270

      7  C    Isotropic =    45.3943   Anisotropy =   182.8077

      8  C    Isotropic =    43.0850   Anisotropy =   193.9690

      9  H    Isotropic =    24.7989   Anisotropy =     8.5694

     10  H    Isotropic =    24.9475   Anisotropy =     8.2215

     11  H    Isotropic =    24.5469   Anisotropy =     6.6225

     12  H    Isotropic =    24.3730   Anisotropy =     9.3815

     13  C    Isotropic =    44.7183   Anisotropy =   184.7742

     14  C    Isotropic =    49.2448   Anisotropy =   162.0049

     15  C    Isotropic =    37.7360   Anisotropy =   200.3606

     16  C    Isotropic =    49.1699   Anisotropy =   164.1066

     17  C    Isotropic =    43.9807   Anisotropy =   178.7900

     18  C    Isotropic =    37.5429   Anisotropy =   195.1198

     19  H    Isotropic =    25.0789   Anisotropy =    13.2476

     20  H    Isotropic =    24.7570   Anisotropy =     8.5484

     21  H    Isotropic =    24.3896   Anisotropy =     7.3440

     22  H    Isotropic =    23.8751   Anisotropy =     9.4936

     23  C    Isotropic =    47.7757   Anisotropy =   184.6527

     24  C    Isotropic =    50.7381   Anisotropy =   182.2504

     25  C    Isotropic =    53.4262   Anisotropy =   180.2659

     26  C    Isotropic =    49.7225   Anisotropy =   183.0225

     27  C    Isotropic =    49.2232   Anisotropy =   184.2503

     28  C    Isotropic =    31.4776   Anisotropy =   193.2075

     29  H    Isotropic =    24.0595   Anisotropy =    10.3905

     30  H    Isotropic =    24.3660   Anisotropy =     6.0417

     31  H    Isotropic =    24.6217   Anisotropy =     4.1874

     32  H    Isotropic =    24.5752   Anisotropy =     6.4294

     33  H    Isotropic =    25.1273   Anisotropy =    13.2039

     34  C    Isotropic =    38.9982   Anisotropy =   185.0256

     35  C    Isotropic =    50.0501   Anisotropy =   184.9019

     36  C    Isotropic =    48.3335   Anisotropy =   190.4307

     37  C    Isotropic =    49.1353   Anisotropy =   185.7183

     38  C    Isotropic =    40.5549   Anisotropy =   191.8200

     39  C    Isotropic =    38.6797   Anisotropy =   200.9047

     40  H    Isotropic =    23.9326   Anisotropy =     7.3489

     41  H    Isotropic =    24.4402   Anisotropy =     4.7592

     42  H    Isotropic =    24.3213   Anisotropy =     3.7073

     43  H    Isotropic =    24.2177   Anisotropy =     5.6002

     44  H    Isotropic =    23.8285   Anisotropy =    10.1921

     45  C    Isotropic =    16.5732   Anisotropy =   188.5307

     46  C    Isotropic =    44.2241   Anisotropy =   180.9607

     47  H    Isotropic =    25.9299   Anisotropy =     5.9221

     48  H    Isotropic =    25.1709   Anisotropy =     4.7656

     49  C    Isotropic =   160.4859   Anisotropy =    41.5870

     50  H    Isotropic =    29.3313   Anisotropy =     8.7905

     51  H    Isotropic =    29.6009   Anisotropy =     7.6709

     52  H    Isotropic =    29.7442   Anisotropy =     7.3627

     53  C    Isotropic =   160.5941   Anisotropy =    41.5910

     54  H    Isotropic =    29.4607   Anisotropy =     8.2327

     55  H    Isotropic =    29.5915   Anisotropy =     8.4054

     56  H    Isotropic =    29.9034   Anisotropy =     6.9538

 The electronic state is 1-A.
 Alpha  occ. eigenvalues --  -77.04776 -77.04634 -10.19087 -10.18636 -10.18539
 Alpha  occ. eigenvalues --  -10.18509 -10.18449 -10.18260 -10.18223 -10.18180
 Alpha  occ. eigenvalues --  -10.18150 -10.18043 -10.18027 -10.17983 -10.17796
 Alpha  occ. eigenvalues --  -10.17618 -10.17604 -10.17456 -10.17393 -10.17365
 Alpha  occ. eigenvalues --  -10.17358 -10.17328 -10.17278 -10.17239 -10.17239
 Alpha  occ. eigenvalues --  -10.17165 -10.17143 -10.17131 -10.17019 -10.16992
 Alpha  occ. eigenvalues --   -6.53347  -6.53200  -4.69503  -4.69463  -4.69364
 Alpha  occ. eigenvalues --   -4.69309  -4.68987  -4.68846  -0.86424  -0.86243
 Alpha  occ. eigenvalues --   -0.85869  -0.85533  -0.79622  -0.77742  -0.77263
 Alpha  occ. eigenvalues --   -0.75850  -0.75388  -0.74754  -0.74714  -0.74660
 Alpha  occ. eigenvalues --   -0.74428  -0.70250  -0.68513  -0.65597  -0.62592
 Alpha  occ. eigenvalues --   -0.61177  -0.60983  -0.60827  -0.60668  -0.59947
 Alpha  occ. eigenvalues --   -0.58705  -0.58335  -0.56151  -0.53338  -0.52173
 Alpha  occ. eigenvalues --   -0.50278  -0.49707  -0.47881  -0.46826  -0.46727
 Alpha  occ. eigenvalues --   -0.46193  -0.45947  -0.45554  -0.45218  -0.45134
 Alpha  occ. eigenvalues --   -0.45037  -0.43841  -0.42900  -0.42588  -0.42532
 Alpha  occ. eigenvalues --   -0.42378  -0.42225  -0.42181  -0.42052  -0.40999
 Alpha  occ. eigenvalues --   -0.39609  -0.39059  -0.38968  -0.37925  -0.37280
 Alpha  occ. eigenvalues --   -0.37163  -0.36304  -0.36086  -0.35643  -0.35289
 Alpha  occ. eigenvalues --   -0.34663  -0.34251  -0.34218  -0.33431  -0.32355
 Alpha  occ. eigenvalues --   -0.30744  -0.29401  -0.27573  -0.26454  -0.26385
 Alpha  occ. eigenvalues --   -0.26065  -0.25973  -0.25585  -0.25537  -0.24758
 Alpha  occ. eigenvalues --   -0.21719  -0.18589
 Alpha virt. eigenvalues --   -0.05471  -0.03438  -0.02481  -0.02080  -0.02061
 Alpha virt. eigenvalues --   -0.01535  -0.00942  -0.00828  -0.00682   0.03510
 Alpha virt. eigenvalues --    0.04164   0.04379   0.04630   0.05746   0.06059

 Mulliken charges:
               1
     1  P    0.158395
     2  P    0.122831
     3  C   -0.119811
     4  C   -0.198113
     5  C    0.175379
     6  C   -0.172200
     7  C   -0.162522
     8  C    0.031027
     9  H    0.133278
    10  H    0.096257
    11  H    0.100670
    12  H    0.106175
    13  C   -0.131507
    14  C   -0.198669
    15  C    0.175824
    16  C   -0.177733
    17  C   -0.152758
    18  C   -0.001015
    19  H    0.139285
    20  H    0.098273
    21  H    0.100300
    22  H    0.109836
    23  C   -0.206287
    24  C   -0.105471
    25  C   -0.109782
    26  C   -0.122115
    27  C   -0.173683
    28  C    0.053150
    29  H    0.124801
    30  H    0.105840
    31  H    0.106225
    32  H    0.105764
    33  H    0.139762
    34  C   -0.139778
    35  C   -0.105550
    36  C   -0.097673
    37  C   -0.090557
    38  C   -0.191022
    39  C    0.040721
    40  H    0.117939
    41  H    0.110756
    42  H    0.111647
    43  H    0.109207
    44  H    0.113741
    45  C   -0.150784
    46  C   -0.246899
    47  H    0.141086
    48  H    0.138594
    49  C   -0.360398
    50  H    0.123334
    51  H    0.116328
    52  H    0.115719
    53  C   -0.362062
    54  H    0.122811
    55  H    0.117094
    56  H    0.114338
 Sum of Mulliken charges =  -0.00000

 Dipole moment (field-independent basis, Debye):
    X=             -0.7590    Y=              1.0010    Z=              2.2328  Tot=              2.5619
 Quadrupole moment (field-independent basis, Debye-Ang):
   XX=           -179.1203   YY=           -170.6661   ZZ=           -192.4473
   XY=              4.6382   XZ=              2.6083   YZ=             -1.4871

 Summary of Natural Population Analysis:

                                       Natural Population
                Natural  -----------------------------------------------
    Atom  No    Charge         Core      Valence    Rydberg      Total
 -----------------------------------------------------------------------
      P    1    0.82936      9.99781     4.13885    0.03399    14.17064
      P    2    0.83287      9.99781     4.13543    0.03389    14.16713
      C    3   -0.19618      1.99908     4.17693    0.02017     6.19618
      C    4   -0.19992      1.99909     4.18315    0.01768     6.19992
      C    5   -0.01750      1.99912     3.99879    0.01959     6.01750
      C    6   -0.20102      1.99909     4.18454    0.01739     6.20102
      C    7   -0.18888      1.99909     4.16978    0.02001     6.18888
      C    8   -0.33493      1.99898     4.30401    0.03193     6.33493
      H    9    0.21550      0.00000     0.78243    0.00207     0.78450
      H   10    0.20297      0.00000     0.79554    0.00149     0.79703
      H   11    0.20436      0.00000     0.79419    0.00144     0.79564
      H   12    0.21175      0.00000     0.78643    0.00181     0.78825
      C   13   -0.19341      1.99909     4.17437    0.01995     6.19341
      C   14   -0.20296      1.99909     4.18604    0.01783     6.20296
      C   15   -0.01592      1.99912     3.99715    0.01965     6.01592
      C   16   -0.20236      1.99909     4.18572    0.01755     6.20236
      C   17   -0.18677      1.99910     4.16774    0.01994     6.18677
      C   18   -0.33813      1.99899     4.30670    0.03244     6.33813
      H   19    0.21522      0.00000     0.78266    0.00212     0.78478
      H   20    0.20266      0.00000     0.79583    0.00151     0.79734
      H   21    0.20420      0.00000     0.79435    0.00145     0.79580
      H   22    0.21011      0.00000     0.78808    0.00181     0.78989
      C   23   -0.20910      1.99909     4.19000    0.02001     6.20910
      C   24   -0.19801      1.99919     4.18017    0.01866     6.19801
      C   25   -0.21554      1.99919     4.19683    0.01952     6.21554
      C   26   -0.19688      1.99919     4.17894    0.01876     6.19688
      C   27   -0.21107      1.99909     4.19239    0.01960     6.21107
      C   28   -0.32254      1.99900     4.29104    0.03250     6.32254
      H   29    0.20882      0.00000     0.78945    0.00173     0.79118
      H   30    0.20734      0.00000     0.79139    0.00127     0.79266
      H   31    0.20700      0.00000     0.79182    0.00117     0.79300
      H   32    0.20700      0.00000     0.79172    0.00128     0.79300
      H   33    0.21447      0.00000     0.78377    0.00176     0.78553
      C   34   -0.18332      1.99910     4.16404    0.02018     6.18332
      C   35   -0.20492      1.99918     4.18637    0.01937     6.20492
      C   36   -0.19461      1.99919     4.17646    0.01896     6.19461
      C   37   -0.20673      1.99919     4.18865    0.01890     6.20673
      C   38   -0.19144      1.99908     4.17228    0.02008     6.19144
      C   39   -0.32966      1.99898     4.29677    0.03391     6.32966
      H   40    0.22070      0.00000     0.77776    0.00154     0.77930
      H   41    0.21039      0.00000     0.78836    0.00126     0.78961
      H   42    0.20857      0.00000     0.79025    0.00118     0.79143
      H   43    0.20807      0.00000     0.79056    0.00137     0.79193
      H   44    0.20962      0.00000     0.78786    0.00252     0.79038
      C   45   -0.61476      1.99908     4.57297    0.04271     6.61476
      C   46   -0.32888      1.99902     4.30981    0.02006     6.32888
      H   47    0.20011      0.00000     0.79682    0.00307     0.79989
      H   48    0.19946      0.00000     0.79797    0.00257     0.80054
      C   49   -0.61010      1.99941     4.59886    0.01183     6.61010
      H   50    0.21577      0.00000     0.78293    0.00130     0.78423
      H   51    0.21113      0.00000     0.78772    0.00115     0.78887
      H   52    0.21084      0.00000     0.78803    0.00114     0.78916
      C   53   -0.60990      1.99941     4.59865    0.01184     6.60990
      H   54    0.21543      0.00000     0.78327    0.00131     0.78457
      H   55    0.21177      0.00000     0.78706    0.00118     0.78823
      H   56    0.20997      0.00000     0.78891    0.00112     0.79003
 =======================================================================
   * Total *   -0.00000     75.97094   147.31857    0.71049   224.00000

 Normal termination of Gaussian 16 at Thu Jan 23 00:50:22 2025.
