 Gaussian 16, Revision B.01,
 Gaussian 16:  ES64L-G16RevB.01 20-Dec-2017

 --------------------------------------------
 # nmr=giao b3lyp/def2TZVP pop=nbo scfcyc=200
 --------------------------------------------

 ------------------
 Ligand 19 SPE NoRh
 ------------------
 Symbolic Z-matrix:
 Charge =  0 Multiplicity = 1

                         Standard orientation:
 ---------------------------------------------------------------------
 Center     Atomic      Atomic             Coordinates (Angstroms)
 Number     Number       Type             X           Y           Z
 ---------------------------------------------------------------------
      1          6           0       -2.096381   -2.402222   -0.218353
      2          1           0       -1.253592   -3.036970   -0.481179
      3          1           0       -2.941382   -2.680340   -0.847810
      4          1           0       -2.362266   -2.570306    0.825493
      5          6           0       -3.149786    0.340205    0.059805
      6          6           0       -3.374362    0.109468    1.563169
      7          1           0       -2.524328    0.444309    2.161415
      8          1           0       -3.581383   -0.933906    1.803064
      9          1           0       -4.240195    0.691528    1.888388
     10          6           0       -4.380984   -0.138059   -0.731094
     11          1           0       -5.239024    0.481716   -0.461927
     12          1           0       -4.646481   -1.171348   -0.505050
     13          1           0       -4.245520   -0.047027   -1.810860
     14          6           0       -2.917631    1.835198   -0.195632
     15          1           0       -2.718701    2.048458   -1.247790
     16          1           0       -2.087863    2.220219    0.396345
     17          1           0       -3.812140    2.392748    0.093106
     18          6           0        2.319000   -1.366580    0.047101
     19          6           0        1.588269   -2.715503   -0.072905
     20          1           0        1.175445   -2.869196   -1.071971
     21          1           0        0.783120   -2.811125    0.655635
     22          1           0        2.302023   -3.519503    0.119526
     23          6           0        3.535561   -1.397048   -0.895034
     24          1           0        4.192055   -2.214375   -0.585567
     25          1           0        4.122889   -0.483945   -0.870218
     26          1           0        3.247861   -1.593190   -1.927586
     27          6           0        2.788558   -1.184096    1.498978
     28          1           0        3.376487   -2.057947    1.790781
     29          1           0        1.957335   -1.111661    2.202865
     30          1           0        3.425863   -0.310140    1.625361
     31          6           0        1.697898    1.754212   -0.068928
     32          6           0        0.823256    2.740817   -0.863385
     33          1           0        1.124630    3.760927   -0.612255
     34          1           0       -0.233008    2.639881   -0.622505
     35          1           0        0.939509    2.613291   -1.939594
     36          6           0        1.546251    2.059537    1.429193
     37          1           0        2.157658    1.415916    2.060255
     38          1           0        0.508921    1.982897    1.755473
     39          1           0        1.865679    3.089396    1.610983
     40          6           0        3.160179    1.947111   -0.501853
     41          1           0        3.414592    3.004850   -0.400348
     42          1           0        3.327031    1.675828   -1.546334
     43          1           0        3.859151    1.388417    0.117871
     44          7           0       -0.326030   -0.252206    0.510714
     45          1           0       -0.315710   -0.358514    1.517564
     46         15           0       -1.636432   -0.640956   -0.539073
     47         15           0        1.067404   -0.013289   -0.499228
 ---------------------------------------------------------------------

 SCF Done:  E(RB3LYP) =  -1251.79856328     A.U. after   14 cycles

      1  C    Isotropic =   170.4319   Anisotropy =    22.5682

      2  H    Isotropic =    30.4990   Anisotropy =     7.8448

      3  H    Isotropic =    31.2831   Anisotropy =     9.4475

      4  H    Isotropic =    30.7792   Anisotropy =     6.3305

      5  C    Isotropic =   143.3341   Anisotropy =    17.5377

      6  C    Isotropic =   160.2909   Anisotropy =    36.3906

      7  H    Isotropic =    30.8996   Anisotropy =     6.2173

      8  H    Isotropic =    30.6505   Anisotropy =     7.6308

      9  H    Isotropic =    31.0969   Anisotropy =     9.3493

     10  C    Isotropic =   156.6177   Anisotropy =    42.3439

     11  H    Isotropic =    31.3425   Anisotropy =     9.5874

     12  H    Isotropic =    31.2759   Anisotropy =     8.3877

     13  H    Isotropic =    30.9509   Anisotropy =     9.0882

     14  C    Isotropic =   152.3850   Anisotropy =    40.5046

     15  H    Isotropic =    30.6627   Anisotropy =     7.2985

     16  H    Isotropic =    30.4486   Anisotropy =     8.1189

     17  H    Isotropic =    31.1563   Anisotropy =     8.4727

     18  C    Isotropic =   139.3841   Anisotropy =    20.1622

     19  C    Isotropic =   149.5429   Anisotropy =    40.2225

     20  H    Isotropic =    30.6290   Anisotropy =     7.1595

     21  H    Isotropic =    30.7846   Anisotropy =     6.8168

     22  H    Isotropic =    31.3585   Anisotropy =     8.3596

     23  C    Isotropic =   154.8331   Anisotropy =    42.0218

     24  H    Isotropic =    31.2849   Anisotropy =     9.4867

     25  H    Isotropic =    30.6976   Anisotropy =     7.2416

     26  H    Isotropic =    30.7631   Anisotropy =     8.2322

     27  C    Isotropic =   155.9838   Anisotropy =    33.0136

     28  H    Isotropic =    31.1238   Anisotropy =     9.5207

     29  H    Isotropic =    30.8300   Anisotropy =     5.0747

     30  H    Isotropic =    30.6157   Anisotropy =     6.5408

     31  C    Isotropic =   138.5831   Anisotropy =    21.7644

     32  C    Isotropic =   150.7858   Anisotropy =    44.9709

     33  H    Isotropic =    31.5177   Anisotropy =     8.4989

     34  H    Isotropic =    30.2944   Anisotropy =    10.2744

     35  H    Isotropic =    30.7353   Anisotropy =     7.7365

     36  C    Isotropic =   157.3979   Anisotropy =    35.9050

     37  H    Isotropic =    30.6142   Anisotropy =     6.5155

     38  H    Isotropic =    30.5810   Anisotropy =     5.4935

     39  H    Isotropic =    31.2390   Anisotropy =     9.2552

     40  C    Isotropic =   155.1008   Anisotropy =    34.2717

     41  H    Isotropic =    31.2052   Anisotropy =     9.1011

     42  H    Isotropic =    30.7738   Anisotropy =     7.4583

     43  H    Isotropic =    30.9477   Anisotropy =     7.1662

     44  N    Isotropic =   210.9342   Anisotropy =    16.5025

     45  H    Isotropic =    30.0242   Anisotropy =     7.8757

     46  P    Isotropic =   181.5749   Anisotropy =   176.4403

     47  P    Isotropic =   147.8559   Anisotropy =    92.6975

 The electronic state is 1-A.
 Alpha  occ. eigenvalues --  -77.05109 -77.05009 -14.31147 -10.18815 -10.18597
 Alpha  occ. eigenvalues --  -10.18434 -10.16254 -10.16203 -10.16190 -10.16161
 Alpha  occ. eigenvalues --  -10.16049 -10.15973 -10.15919 -10.15829 -10.15787
 Alpha  occ. eigenvalues --  -10.15446  -6.53333  -6.53270  -4.69597  -4.69528
 Alpha  occ. eigenvalues --   -4.69372  -4.69324  -4.68967  -4.68899  -0.87331
 Alpha  occ. eigenvalues --   -0.81510  -0.80625  -0.80301  -0.71448  -0.69298
 Alpha  occ. eigenvalues --   -0.69059  -0.68952  -0.68632  -0.68427  -0.68169
 Alpha  occ. eigenvalues --   -0.61833  -0.59065  -0.54842  -0.53546  -0.51851
 Alpha  occ. eigenvalues --   -0.48242  -0.46431  -0.45550  -0.44525  -0.44304
 Alpha  occ. eigenvalues --   -0.44197  -0.44035  -0.43282  -0.42894  -0.42188
 Alpha  occ. eigenvalues --   -0.40552  -0.40058  -0.39748  -0.38790  -0.38527
 Alpha  occ. eigenvalues --   -0.38464  -0.38121  -0.38062  -0.37105  -0.37022
 Alpha  occ. eigenvalues --   -0.36663  -0.35206  -0.34294  -0.34056  -0.33779
 Alpha  occ. eigenvalues --   -0.33398  -0.33014  -0.32915  -0.32098  -0.29178
 Alpha  occ. eigenvalues --   -0.24847  -0.22767  -0.18346
 Alpha virt. eigenvalues --    0.01161   0.02886   0.03422   0.04120   0.05120
 Alpha virt. eigenvalues --    0.05370   0.06195   0.06804   0.07194   0.07540
 Alpha virt. eigenvalues --    0.07869   0.07889   0.08383   0.08936   0.09126

 Mulliken charges:
               1
     1  C   -0.448903
     2  H    0.144096
     3  H    0.128226
     4  H    0.103734
     5  C    0.149581
     6  C   -0.395800
     7  H    0.102400
     8  H    0.114273
     9  H    0.102033
    10  C   -0.385952
    11  H    0.107049
    12  H    0.115297
    13  H    0.122477
    14  C   -0.392167
    15  H    0.125041
    16  H    0.114696
    17  H    0.107091
    18  C    0.116076
    19  C   -0.392586
    20  H    0.126678
    21  H    0.116596
    22  H    0.109589
    23  C   -0.367515
    24  H    0.103724
    25  H    0.119498
    26  H    0.120342
    27  C   -0.384577
    28  H    0.103573
    29  H    0.105985
    30  H    0.108042
    31  C    0.126461
    32  C   -0.361262
    33  H    0.099423
    34  H    0.121509
    35  H    0.116002
    36  C   -0.390545
    37  H    0.116354
    38  H    0.114672
    39  H    0.099992
    40  C   -0.398638
    41  H    0.109523
    42  H    0.129181
    43  H    0.107879
    44  N   -0.546139
    45  H    0.196703
    46  P    0.250474
    47  P    0.209813
 Sum of Mulliken charges =  -0.00000

 Dipole moment (field-independent basis, Debye):
    X=              0.0773    Y=             -0.2785    Z=              1.8979  Tot=              1.9198
 Quadrupole moment (field-independent basis, Debye-Ang):
   XX=           -117.5734   YY=           -120.4020   ZZ=           -125.3488
   XY=              0.4503   XZ=             -0.5613   YZ=             -0.7082

 Summary of Natural Population Analysis:

                                       Natural Population
                Natural  -----------------------------------------------
    Atom  No    Charge         Core      Valence    Rydberg      Total
 -----------------------------------------------------------------------
      C    1   -0.95086      1.99945     4.93029    0.02112     6.95086
      H    2    0.23249      0.00000     0.76639    0.00113     0.76751
      H    3    0.22909      0.00000     0.76984    0.00108     0.77091
      H    4    0.20246      0.00000     0.79435    0.00319     0.79754
      C    5   -0.30665      1.99948     4.27896    0.02820     6.30665
      C    6   -0.60274      1.99938     4.59114    0.01223     6.60274
      H    7    0.19713      0.00000     0.80129    0.00158     0.80287
      H    8    0.19988      0.00000     0.79847    0.00165     0.80012
      H    9    0.19904      0.00000     0.79868    0.00228     0.80096
      C   10   -0.60173      1.99937     4.59059    0.01177     6.60173
      H   11    0.20362      0.00000     0.79440    0.00199     0.79638
      H   12    0.20280      0.00000     0.79592    0.00129     0.79720
      H   13    0.21175      0.00000     0.78661    0.00164     0.78825
      C   14   -0.59871      1.99937     4.58714    0.01220     6.59871
      H   15    0.21294      0.00000     0.78564    0.00143     0.78706
      H   16    0.20499      0.00000     0.79351    0.00150     0.79501
      H   17    0.19977      0.00000     0.79824    0.00199     0.80023
      C   18   -0.30020      1.99946     4.27340    0.02734     6.30020
      C   19   -0.60221      1.99938     4.59033    0.01250     6.60221
      H   20    0.21198      0.00000     0.78663    0.00140     0.78802
      H   21    0.20553      0.00000     0.79308    0.00139     0.79447
      H   22    0.20254      0.00000     0.79541    0.00204     0.79746
      C   23   -0.60193      1.99937     4.59029    0.01227     6.60193
      H   24    0.19947      0.00000     0.79844    0.00208     0.80053
      H   25    0.20679      0.00000     0.79199    0.00122     0.79321
      H   26    0.21213      0.00000     0.78643    0.00144     0.78787
      C   27   -0.60172      1.99937     4.59006    0.01229     6.60172
      H   28    0.19712      0.00000     0.80047    0.00241     0.80288
      H   29    0.19495      0.00000     0.80349    0.00156     0.80505
      H   30    0.20050      0.00000     0.79796    0.00154     0.79950
      C   31   -0.29552      1.99946     4.26884    0.02722     6.29552
      C   32   -0.59951      1.99937     4.58779    0.01234     6.59951
      H   33    0.19733      0.00000     0.80062    0.00205     0.80267
      H   34    0.21052      0.00000     0.78819    0.00129     0.78948
      H   35    0.21162      0.00000     0.78708    0.00130     0.78838
      C   36   -0.60684      1.99937     4.59481    0.01265     6.60684
      H   37    0.20205      0.00000     0.79658    0.00137     0.79795
      H   38    0.20405      0.00000     0.79427    0.00169     0.79595
      H   39    0.19737      0.00000     0.80033    0.00230     0.80263
      C   40   -0.60176      1.99937     4.59046    0.01193     6.60176
      H   41    0.20307      0.00000     0.79475    0.00218     0.79693
      H   42    0.20925      0.00000     0.78919    0.00156     0.79075
      H   43    0.19932      0.00000     0.79916    0.00151     0.80068
      N   44   -1.25757      1.99963     6.22328    0.03466     8.25757
      H   45    0.38002      0.00000     0.61160    0.00838     0.61998
      P   46    1.00048      9.99846     3.95604    0.04502    13.99952
      P   47    0.98589      9.99832     3.97697    0.03882    14.01411
 =======================================================================
   * Total *    0.00000     47.98861    97.61940    0.39199   146.00000

 Normal termination of Gaussian 16 at Wed Nov  6 15:20:40 2024.
