 Gaussian 16, Revision B.01,
 Gaussian 16:  ES64L-G16RevB.01 20-Dec-2017

 --------------------------------------------
 # nmr=giao b3lyp/def2TZVP pop=nbo scfcyc=200
 --------------------------------------------

 ------------------
 Ligand 21 SPE NoRh
 ------------------
 Symbolic Z-matrix:
 Charge =  0 Multiplicity = 1

                         Standard orientation:
 ---------------------------------------------------------------------
 Center     Atomic      Atomic             Coordinates (Angstroms)
 Number     Number       Type             X           Y           Z
 ---------------------------------------------------------------------
      1          7           0        1.018297   -0.095226    0.079332
      2          8           0        1.953889   -2.275802   -0.693851
      3         15           0        2.282873   -0.665058   -0.959449
      4         15           0        0.101322    0.909907   -1.020697
      5          6           0        0.686972   -1.132173    1.099191
      6          1           0        1.313445   -0.943010    1.969303
      7          6           0        1.055718   -2.497570    0.417885
      8          1           0        1.583681   -3.133331    1.129103
      9          6           0       -0.279334   -3.141511    0.001132
     10          1           0       -0.490294   -2.915514   -1.047892
     11          1           0       -0.259400   -4.226720    0.099286
     12          6           0       -1.280340   -2.478178    0.915827
     13          6           0       -0.748532   -1.327279    1.502796
     14          6           0       -1.483916   -0.585369    2.420464
     15          1           0       -1.057985    0.288190    2.898995
     16          6           0       -2.778170   -0.992789    2.728817
     17          1           0       -3.363086   -0.433228    3.448188
     18          6           0       -3.317310   -2.133603    2.135099
     19          1           0       -4.319015   -2.449239    2.394826
     20          6           0       -2.571383   -2.885433    1.228941
     21          1           0       -2.990443   -3.782827    0.791344
     22          6           0        3.986982   -0.429329   -0.178991
     23          6           0        4.026534   -0.839083    1.299542
     24          1           0        3.739028   -1.880755    1.447048
     25          1           0        3.394861   -0.201304    1.917499
     26          1           0        5.051270   -0.732934    1.666556
     27          6           0        4.951185   -1.319600   -0.985788
     28          1           0        5.966532   -1.178145   -0.608415
     29          1           0        4.962132   -1.066206   -2.048683
     30          1           0        4.700173   -2.376494   -0.890305
     31          6           0        4.366045    1.052515   -0.322651
     32          1           0        5.382237    1.201045    0.052225
     33          1           0        3.701969    1.699652    0.252767
     34          1           0        4.340919    1.384586   -1.361847
     35          6           0       -0.124828    2.517380   -0.165429
     36          6           0       -0.888454    3.518492   -0.777013
     37          6           0        0.531251    2.793252    1.034603
     38          6           0       -1.001803    4.771106   -0.185487
     39          1           0       -1.411731    3.323781   -1.706032
     40          6           0        0.410211    4.046844    1.627502
     41          1           0        1.135626    2.028941    1.505073
     42          6           0       -0.354000    5.036534    1.018599
     43          1           0       -1.598313    5.537939   -0.661769
     44          1           0        0.915432    4.249730    2.563163
     45          1           0       -0.444890    6.012070    1.478978
     46          6           0       -1.594408    0.276449   -1.349572
     47          6           0       -2.716664    0.712706   -0.637620
     48          6           0       -1.761078   -0.638552   -2.396646
     49          6           0       -3.979911    0.238134   -0.970251
     50          1           0       -2.609321    1.419874    0.172052
     51          6           0       -3.025019   -1.117530   -2.718363
     52          1           0       -0.897049   -0.964220   -2.963899
     53          6           0       -4.136143   -0.675607   -2.007814
     54          1           0       -4.843008    0.582227   -0.414559
     55          1           0       -3.142979   -1.824025   -3.529721
     56          1           0       -5.123526   -1.038649   -2.264232
 ---------------------------------------------------------------------

 SCF Done:  E(RB3LYP) =  -1782.07128886     A.U. after   15 cycles

      1  N    Isotropic =   150.4026   Anisotropy =    71.4285

      2  O    Isotropic =   231.5336   Anisotropy =   121.3049

      3  P    Isotropic =    17.7255   Anisotropy =   204.2316

      4  P    Isotropic =   180.7804   Anisotropy =   126.9932

      5  C    Isotropic =   106.9441   Anisotropy =    25.4047

      6  H    Isotropic =    26.3343   Anisotropy =     5.3087

      7  C    Isotropic =    85.0004   Anisotropy =    78.9031

      8  H    Isotropic =    26.2293   Anisotropy =     3.7273

      9  C    Isotropic =   139.6737   Anisotropy =    41.9778

     10  H    Isotropic =    29.0893   Anisotropy =     3.9625

     11  H    Isotropic =    28.9209   Anisotropy =     8.3044

     12  C    Isotropic =    32.5336   Anisotropy =   169.6013

     13  C    Isotropic =    38.7735   Anisotropy =   167.5243

     14  C    Isotropic =    50.3020   Anisotropy =   181.1240

     15  H    Isotropic =    24.4746   Anisotropy =     7.5082

     16  C    Isotropic =    51.9092   Anisotropy =   184.1011

     17  H    Isotropic =    24.7677   Anisotropy =     5.3281

     18  C    Isotropic =    48.7667   Anisotropy =   188.9122

     19  H    Isotropic =    24.8598   Anisotropy =     3.2585

     20  C    Isotropic =    52.9737   Anisotropy =   176.9334

     21  H    Isotropic =    25.2747   Anisotropy =     5.8200

     22  C    Isotropic =   135.8503   Anisotropy =    24.5396

     23  C    Isotropic =   156.8396   Anisotropy =    37.4958

     24  H    Isotropic =    30.6556   Anisotropy =     4.5767

     25  H    Isotropic =    30.6388   Anisotropy =     5.9696

     26  H    Isotropic =    31.0180   Anisotropy =     9.6432

     27  C    Isotropic =   158.0581   Anisotropy =    39.0741

     28  H    Isotropic =    31.4168   Anisotropy =     9.2585

     29  H    Isotropic =    30.7504   Anisotropy =     9.1123

     30  H    Isotropic =    30.8036   Anisotropy =     7.7639

     31  C    Isotropic =   158.8478   Anisotropy =    35.7858

     32  H    Isotropic =    31.2467   Anisotropy =     8.8215

     33  H    Isotropic =    30.8958   Anisotropy =     8.8384

     34  H    Isotropic =    30.7276   Anisotropy =     7.7249

     35  C    Isotropic =    32.4433   Anisotropy =   191.4956

     36  C    Isotropic =    49.7112   Anisotropy =   186.9696

     37  C    Isotropic =    49.3183   Anisotropy =   187.9435

     38  C    Isotropic =    50.5026   Anisotropy =   183.8381

     39  H    Isotropic =    24.7309   Anisotropy =    11.1608

     40  C    Isotropic =    49.9919   Anisotropy =   183.1767

     41  H    Isotropic =    23.4710   Anisotropy =    10.4978

     42  C    Isotropic =    52.5242   Anisotropy =   180.5946

     43  H    Isotropic =    24.4735   Anisotropy =     5.0915

     44  H    Isotropic =    24.1683   Anisotropy =     6.6471

     45  H    Isotropic =    24.4816   Anisotropy =     4.0093

     46  C    Isotropic =    36.2403   Anisotropy =   200.1342

     47  C    Isotropic =    43.9109   Anisotropy =   196.6980

     48  C    Isotropic =    42.3489   Anisotropy =   187.2241

     49  C    Isotropic =    50.4624   Anisotropy =   186.6344

     50  H    Isotropic =    25.1154   Anisotropy =     9.0541

     51  C    Isotropic =    51.4083   Anisotropy =   183.5525

     52  H    Isotropic =    23.7387   Anisotropy =     8.8891

     53  C    Isotropic =    49.6077   Anisotropy =   188.9348

     54  H    Isotropic =    25.0678   Anisotropy =     5.8101

     55  H    Isotropic =    24.4622   Anisotropy =     5.1681

     56  H    Isotropic =    24.7203   Anisotropy =     3.7629

 The electronic state is 1-A.
 Alpha  occ. eigenvalues --  -77.08005 -77.06871 -19.13121 -14.32668 -10.23550
 Alpha  occ. eigenvalues --  -10.22344 -10.18724 -10.18523 -10.18517 -10.18221
 Alpha  occ. eigenvalues --  -10.18176 -10.18155 -10.18146 -10.18086 -10.18026
 Alpha  occ. eigenvalues --  -10.17996 -10.17925 -10.17911 -10.17900 -10.17865
 Alpha  occ. eigenvalues --  -10.17788 -10.17671 -10.17605 -10.17598 -10.17457
 Alpha  occ. eigenvalues --  -10.17394 -10.16071 -10.15894 -10.15837  -6.55923
 Alpha  occ. eigenvalues --   -6.55117  -4.72282  -4.71947  -4.71515  -4.71381
 Alpha  occ. eigenvalues --   -4.71178  -4.70759  -1.02997  -0.90364  -0.87207
 Alpha  occ. eigenvalues --   -0.86170  -0.85665  -0.81619  -0.80483  -0.76797
 Alpha  occ. eigenvalues --   -0.76126  -0.75290  -0.74901  -0.74560  -0.72140
 Alpha  occ. eigenvalues --   -0.70280  -0.68706  -0.68620  -0.64611  -0.62421
 Alpha  occ. eigenvalues --   -0.61203  -0.60807  -0.60060  -0.59577  -0.58972
 Alpha  occ. eigenvalues --   -0.58815  -0.55762  -0.53267  -0.52425  -0.52095
 Alpha  occ. eigenvalues --   -0.51146  -0.49317  -0.47319  -0.46666  -0.46341
 Alpha  occ. eigenvalues --   -0.45998  -0.45715  -0.45327  -0.45165  -0.44627
 Alpha  occ. eigenvalues --   -0.43885  -0.43502  -0.43308  -0.42815  -0.42523
 Alpha  occ. eigenvalues --   -0.42001  -0.41328  -0.40860  -0.40306  -0.39327
 Alpha  occ. eigenvalues --   -0.38975  -0.38625  -0.37617  -0.37439  -0.36854
 Alpha  occ. eigenvalues --   -0.36540  -0.36303  -0.35548  -0.35121  -0.34847
 Alpha  occ. eigenvalues --   -0.34757  -0.34242  -0.33762  -0.33530  -0.33080
 Alpha  occ. eigenvalues --   -0.31914  -0.30132  -0.27967  -0.27428  -0.26601
 Alpha  occ. eigenvalues --   -0.26235  -0.25952  -0.25741  -0.25266  -0.22014
 Alpha  occ. eigenvalues --   -0.18472
 Alpha virt. eigenvalues --   -0.04098  -0.02835  -0.02311  -0.01874  -0.01624
 Alpha virt. eigenvalues --   -0.01014   0.01713   0.02421   0.03664   0.04416
 Alpha virt. eigenvalues --    0.04990   0.05263   0.05277   0.05964   0.06084

 Mulliken charges:
               1
     1  N   -0.301613
     2  O   -0.401385
     3  P    0.316520
     4  P    0.195234
     5  C    0.054845
     6  H    0.092447
     7  C    0.110964
     8  H    0.074702
     9  C   -0.140664
    10  H    0.097663
    11  H    0.108833
    12  C    0.045753
    13  C    0.052294
    14  C   -0.249036
    15  H    0.110121
    16  C   -0.091289
    17  H    0.107709
    18  C   -0.093704
    19  H    0.106232
    20  C   -0.201340
    21  H    0.100226
    22  C    0.123122
    23  C   -0.398814
    24  H    0.114923
    25  H    0.109964
    26  H    0.105160
    27  C   -0.374619
    28  H    0.105661
    29  H    0.118535
    30  H    0.124290
    31  C   -0.381045
    32  H    0.103135
    33  H    0.120102
    34  H    0.125000
    35  C    0.086436
    36  C   -0.208460
    37  C   -0.200349
    38  C   -0.100274
    39  H    0.117284
    40  C   -0.112894
    41  H    0.137754
    42  C   -0.111387
    43  H    0.108428
    44  H    0.104030
    45  H    0.106817
    46  C    0.031789
    47  C   -0.119291
    48  C   -0.207556
    49  C   -0.116553
    50  H    0.135460
    51  C   -0.103454
    52  H    0.134331
    53  C   -0.094876
    54  H    0.103656
    55  H    0.110442
    56  H    0.108741
 Sum of Mulliken charges =  -0.00000

 Dipole moment (field-independent basis, Debye):
    X=             -2.0240    Y=             -0.7091    Z=              2.2570  Tot=              3.1134
 Quadrupole moment (field-independent basis, Debye-Ang):
   XX=           -176.3891   YY=           -180.7494   ZZ=           -187.2671
   XY=              2.4026   XZ=              5.4681   YZ=              4.1380

 Summary of Natural Population Analysis:

                                       Natural Population
                Natural  -----------------------------------------------
    Atom  No    Charge         Core      Valence    Rydberg      Total
 -----------------------------------------------------------------------
      N    1   -1.03712      1.99958     5.99926    0.03828     8.03712
      O    2   -0.78307      1.99983     6.75739    0.02585     8.78307
      P    3    1.28460      9.99833     3.65479    0.06228    13.71540
      P    4    1.03941      9.99779     3.92149    0.04130    13.96059
      C    5   -0.09463      1.99921     4.07072    0.02470     6.09463
      H    6    0.20472      0.00000     0.79256    0.00272     0.79528
      C    7    0.10568      1.99925     3.87706    0.01801     5.89432
      H    8    0.18027      0.00000     0.81765    0.00209     0.81973
      C    9   -0.44243      1.99932     4.42896    0.01416     6.44243
      H   10    0.22840      0.00000     0.76916    0.00244     0.77160
      H   11    0.21709      0.00000     0.78160    0.00131     0.78291
      C   12    0.00677      1.99901     3.97597    0.01825     5.99323
      C   13   -0.04090      1.99896     4.02099    0.02095     6.04090
      C   14   -0.18841      1.99906     4.17106    0.01829     6.18841
      H   15    0.21106      0.00000     0.78702    0.00191     0.78894
      C   16   -0.20625      1.99920     4.18879    0.01826     6.20625
      H   17    0.20899      0.00000     0.78984    0.00117     0.79101
      C   18   -0.18985      1.99921     4.17264    0.01799     6.18985
      H   19    0.20788      0.00000     0.79097    0.00115     0.79212
      C   20   -0.19692      1.99907     4.17955    0.01831     6.19692
      H   21    0.20726      0.00000     0.79122    0.00152     0.79274
      C   22   -0.36027      1.99948     4.33362    0.02716     6.36027
      C   23   -0.59988      1.99938     4.58847    0.01203     6.59988
      H   24    0.20379      0.00000     0.79487    0.00134     0.79621
      H   25    0.19902      0.00000     0.79971    0.00127     0.80098
      H   26    0.19958      0.00000     0.79815    0.00228     0.80042
      C   27   -0.60362      1.99938     4.59205    0.01219     6.60362
      H   28    0.20364      0.00000     0.79451    0.00184     0.79636
      H   29    0.21203      0.00000     0.78654    0.00143     0.78797
      H   30    0.21531      0.00000     0.78341    0.00129     0.78469
      C   31   -0.60250      1.99937     4.59139    0.01173     6.60250
      H   32    0.20332      0.00000     0.79482    0.00185     0.79668
      H   33    0.20832      0.00000     0.79045    0.00123     0.79168
      H   34    0.21408      0.00000     0.78459    0.00133     0.78592
      C   35   -0.34888      1.99900     4.31615    0.03373     6.34888
      C   36   -0.20540      1.99909     4.18692    0.01940     6.20540
      C   37   -0.21309      1.99908     4.19372    0.02029     6.21309
      C   38   -0.19745      1.99919     4.17961    0.01865     6.19745
      H   39    0.21185      0.00000     0.78642    0.00172     0.78815
      C   40   -0.19876      1.99919     4.18079    0.01878     6.19876
      H   41    0.21219      0.00000     0.78536    0.00245     0.78781
      C   42   -0.21558      1.99919     4.19681    0.01958     6.21558
      H   43    0.20823      0.00000     0.79050    0.00127     0.79177
      H   44    0.20627      0.00000     0.79244    0.00129     0.79373
      H   45    0.20725      0.00000     0.79158    0.00117     0.79275
      C   46   -0.36245      1.99898     4.32921    0.03427     6.36245
      C   47   -0.18340      1.99907     4.16330    0.02103     6.18340
      C   48   -0.19197      1.99910     4.17297    0.01989     6.19197
      C   49   -0.20284      1.99919     4.18399    0.01966     6.20284
      H   50    0.21756      0.00000     0.77990    0.00254     0.78244
      C   51   -0.20887      1.99918     4.19072    0.01897     6.20887
      H   52    0.21911      0.00000     0.77939    0.00150     0.78089
      C   53   -0.19511      1.99919     4.17681    0.01911     6.19511
      H   54    0.20834      0.00000     0.79029    0.00137     0.79166
      H   55    0.20986      0.00000     0.78891    0.00123     0.79014
      H   56    0.20776      0.00000     0.79107    0.00118     0.79224
 =======================================================================
   * Total *    0.00000     73.97487   147.31815    0.70698   222.00000

 1\1\GINC-G2NODEC1\SP\RB3LYP\def2TZVP\C25H27N1O1P2\ROOT\02-Jan-2001\0\\
 # nmr=giao b3lyp/def2TZVP pop=nbo scfcyc=200\\Ligand 21 SPE NoRh\\0,1\
 N,0,0.716,1.094,0.664\O,0,0.071,2.749,-1.089\P,0,-0.727,1.828,0.046\P,
 0,0.353,-0.604,0.449\C,0,1.892,1.972,0.397\H,0,2.009,2.628,1.258\C,0,1
 .503,2.784,-0.889\H,0,1.779,3.831,-0.761\C,0,2.294,2.152,-2.049\H,0,1.
 668,1.425,-2.574\H,0,2.61,2.894,-2.782\C,0,3.448,1.476,-1.349\C,0,3.20
 4,1.341,0.02\C,0,4.158,0.788,0.867\H,0,3.98,0.714,1.933\C,0,5.359,0.34
 2,0.324\H,0,6.118,-0.083,0.969\C,0,5.601,0.463,-1.044\H,0,6.545,0.127,

 Normal termination of Gaussian 16 at Tue Jan  2 07:29:33 2001.
