 Gaussian 16, Revision B.01,
 Gaussian 16:  ES64L-G16RevB.01 20-Dec-2017

 --------------------------------------------
 # nmr=giao b3lyp/def2TZVP pop=nbo scfcyc=200
 --------------------------------------------

 ------------------
 Ligand 22 SPE NoRh
 ------------------
 Symbolic Z-matrix:
 Charge =  0 Multiplicity = 1

                         Standard orientation:
 ---------------------------------------------------------------------
 Center     Atomic      Atomic             Coordinates (Angstroms)
 Number     Number       Type             X           Y           Z
 ---------------------------------------------------------------------
      1          7           0       -0.583693    1.786613   -0.016001
      2          8           0        0.668088    3.899970   -0.456526
      3         15           0       -0.646366    3.125573   -1.118987
      4         15           0       -0.449498    0.444968   -1.121879
      5          6           0        0.099331    2.195872    1.248713
      6          1           0       -0.671702    2.557026    1.928944
      7          6           0        1.069910    3.353818    0.823107
      8          1           0        1.011688    4.168274    1.546086
      9          6           0        2.482971    2.743091    0.803907
     10          1           0        2.748445    2.446780   -0.214724
     11          1           0        3.240438    3.452061    1.139547
     12          6           0        2.351462    1.542994    1.710236
     13          6           0        1.011333    1.217471    1.933627
     14          6           0        0.657919    0.178045    2.786428
     15          1           0       -0.382129   -0.049590    2.988027
     16          6           0        1.666893   -0.561348    3.396688
     17          1           0        1.412281   -1.367588    4.072549
     18          6           0        3.006829   -0.249852    3.163339
     19          1           0        3.782352   -0.823284    3.654805
     20          6           0        3.357221    0.805770    2.324734
     21          1           0        4.400107    1.054939    2.170667
     22          6           0       -2.088397    4.281678   -0.728756
     23          6           0       -2.227446    4.571704    0.771026
     24          1           0       -1.324894    5.016311    1.191060
     25          1           0       -2.485516    3.677034    1.338960
     26          1           0       -3.038655    5.290066    0.915951
     27          6           0       -1.797508    5.593327   -1.483220
     28          1           0       -2.631790    6.282313   -1.333222
     29          1           0       -1.691334    5.442465   -2.558848
     30          1           0       -0.891682    6.076937   -1.115578
     31          6           0       -3.372027    3.623664   -1.259132
     32          1           0       -4.212655    4.305342   -1.108558
     33          1           0       -3.601060    2.695369   -0.731956
     34          1           0       -3.310426    3.400215   -2.324837
     35          6           0       -1.740331   -0.761512   -0.614280
     36          6           0       -1.841873   -1.985424   -1.286993
     37          6           0       -2.681610   -0.439352    0.362347
     38          6           0       -2.861680   -2.872218   -0.977282
     39          1           0       -1.119850   -2.261735   -2.045215
     40          6           0       -3.701865   -1.329888    0.676936
     41          1           0       -2.619655    0.508944    0.878210
     42          6           0       -3.792267   -2.544365    0.008793
     43          1           0       -2.928607   -3.821004   -1.493362
     44          1           0       -4.422379   -1.078837    1.443799
     45          6           0        1.147137   -0.465958   -0.972813
     46          6           0        1.302209   -1.604735   -0.180093
     47          6           0        2.230281   -0.010792   -1.734517
     48          6           0        2.518049   -2.274970   -0.145995
     49          1           0        0.481134   -1.974554    0.417763
     50          6           0        3.447507   -0.673156   -1.694664
     51          1           0        2.111540    0.860236   -2.367890
     52          6           0        3.590153   -1.807614   -0.898951
     53          1           0        2.632812   -3.153116    0.474787
     54          1           0        4.282606   -0.312345   -2.280103
     55          6           0       -4.918826   -3.508015    0.306325
     56          6           0        4.909637   -2.546733   -0.899162
     57          9           0        5.952026   -1.690599   -0.878747
     58          9           0        5.041441   -3.306051   -2.007685
     59          9           0        5.032031   -3.361751    0.163731
     60          9           0       -5.521007   -3.232736    1.477375
     61          9           0       -5.866184   -3.459750   -0.655861
     62          9           0       -4.476312   -4.780826    0.362104
 ---------------------------------------------------------------------

 SCF Done:  E(RB3LYP) =  -2456.45956939     A.U. after   14 cycles

      1  N    Isotropic =   149.6141   Anisotropy =    72.1201

      2  O    Isotropic =   230.5599   Anisotropy =   122.9994

      3  P    Isotropic =    15.9426   Anisotropy =   204.6162

      4  P    Isotropic =   184.4867   Anisotropy =   122.8181

      5  C    Isotropic =   106.5582   Anisotropy =    25.4049

      6  H    Isotropic =    26.2998   Anisotropy =     5.3758

      7  C    Isotropic =    84.7396   Anisotropy =    78.4909

      8  H    Isotropic =    26.1806   Anisotropy =     3.7734

      9  C    Isotropic =   139.6483   Anisotropy =    42.2735

     10  H    Isotropic =    29.1459   Anisotropy =     4.0752

     11  H    Isotropic =    28.8425   Anisotropy =     8.3190

     12  C    Isotropic =    32.6168   Anisotropy =   169.8598

     13  C    Isotropic =    39.5506   Anisotropy =   166.3572

     14  C    Isotropic =    50.5071   Anisotropy =   180.7876

     15  H    Isotropic =    24.5053   Anisotropy =     7.1471

     16  C    Isotropic =    51.3853   Anisotropy =   185.3683

     17  H    Isotropic =    24.7308   Anisotropy =     5.2534

     18  C    Isotropic =    47.8038   Anisotropy =   191.5884

     19  H    Isotropic =    24.7737   Anisotropy =     3.0779

     20  C    Isotropic =    52.6766   Anisotropy =   179.0447

     21  H    Isotropic =    25.2364   Anisotropy =     5.3070

     22  C    Isotropic =   135.6148   Anisotropy =    25.6876

     23  C    Isotropic =   156.9387   Anisotropy =    37.4661

     24  H    Isotropic =    30.6622   Anisotropy =     4.5832

     25  H    Isotropic =    30.6472   Anisotropy =     5.9310

     26  H    Isotropic =    30.9891   Anisotropy =     9.7041

     27  C    Isotropic =   158.4396   Anisotropy =    38.7662

     28  H    Isotropic =    31.3595   Anisotropy =     9.4025

     29  H    Isotropic =    30.7788   Anisotropy =     9.1548

     30  H    Isotropic =    30.7964   Anisotropy =     7.8389

     31  C    Isotropic =   159.0389   Anisotropy =    35.7404

     32  H    Isotropic =    31.1967   Anisotropy =     8.8195

     33  H    Isotropic =    30.9474   Anisotropy =     9.1016

     34  H    Isotropic =    30.7442   Anisotropy =     7.6582

     35  C    Isotropic =    28.2280   Anisotropy =   197.5535

     36  C    Isotropic =    49.6187   Anisotropy =   187.2620

     37  C    Isotropic =    49.4883   Anisotropy =   187.6513

     38  C    Isotropic =    52.0648   Anisotropy =   184.8548

     39  H    Isotropic =    24.6782   Anisotropy =    11.0864

     40  C    Isotropic =    53.2840   Anisotropy =   183.7938

     41  H    Isotropic =    23.4188   Anisotropy =    10.8894

     42  C    Isotropic =    44.6796   Anisotropy =   159.4621

     43  H    Isotropic =    24.1791   Anisotropy =     7.9981

     44  H    Isotropic =    23.8673   Anisotropy =     9.8633

     45  C    Isotropic =    33.1410   Anisotropy =   204.1975

     46  C    Isotropic =    44.5319   Anisotropy =   195.3422

     47  C    Isotropic =    42.5919   Anisotropy =   187.8421

     48  C    Isotropic =    53.5975   Anisotropy =   186.8826

     49  H    Isotropic =    25.1632   Anisotropy =     9.3733

     50  C    Isotropic =    52.9765   Anisotropy =   185.0206

     51  H    Isotropic =    23.6782   Anisotropy =     8.7299

     52  C    Isotropic =    42.6041   Anisotropy =   167.1806

     53  H    Isotropic =    24.7666   Anisotropy =     8.7947

     54  H    Isotropic =    24.1768   Anisotropy =     7.9511

     55  C    Isotropic =    45.0515   Anisotropy =    10.5083

     56  C    Isotropic =    45.5277   Anisotropy =    11.2824

     57  F    Isotropic =   244.8236   Anisotropy =   137.2764

     58  F    Isotropic =   226.4876   Anisotropy =   143.3475

     59  F    Isotropic =   257.8652   Anisotropy =   120.9706

     60  F    Isotropic =   258.6200   Anisotropy =   121.6189

     61  F    Isotropic =   226.2132   Anisotropy =   144.0298

     62  F    Isotropic =   243.9458   Anisotropy =   138.0010

 The electronic state is 1-A.
 Alpha  occ. eigenvalues --  -77.09252 -77.08767 -24.72276 -24.72036 -24.71888
 Alpha  occ. eigenvalues --  -24.71763 -24.71602 -24.71300 -19.14292 -14.34162
 Alpha  occ. eigenvalues --  -10.43250 -10.42796 -10.24682 -10.23578 -10.21626
 Alpha  occ. eigenvalues --  -10.20935 -10.20721 -10.20404 -10.20325 -10.20263
 Alpha  occ. eigenvalues --  -10.20208 -10.20082 -10.20030 -10.19989 -10.19763
 Alpha  occ. eigenvalues --  -10.19762 -10.19571 -10.19509 -10.19252 -10.19097
 Alpha  occ. eigenvalues --  -10.18967 -10.18948 -10.18945 -10.18927 -10.16989
 Alpha  occ. eigenvalues --  -10.16834 -10.16692  -6.57173  -6.56997  -4.73533
 Alpha  occ. eigenvalues --   -4.73247  -4.73198  -4.73067  -4.72764  -4.72647
 Alpha  occ. eigenvalues --   -1.32139  -1.31695  -1.23605  -1.23206  -1.23177
 Alpha  occ. eigenvalues --   -1.22715  -1.04153  -0.91705  -0.89104  -0.88707
 Alpha  occ. eigenvalues --   -0.88141  -0.82665  -0.81569  -0.80621  -0.79561
 Alpha  occ. eigenvalues --   -0.77701  -0.77449  -0.77262  -0.73261  -0.72624
 Alpha  occ. eigenvalues --   -0.71150  -0.70895  -0.69646  -0.69523  -0.66224
 Alpha  occ. eigenvalues --   -0.64259  -0.64010  -0.63462  -0.63461  -0.61569
 Alpha  occ. eigenvalues --   -0.60172  -0.60103  -0.59921  -0.59782  -0.59727
 Alpha  occ. eigenvalues --   -0.59392  -0.58267  -0.57908  -0.57369  -0.54309
 Alpha  occ. eigenvalues --   -0.52878  -0.51985  -0.50315  -0.49292  -0.48873
 Alpha  occ. eigenvalues --   -0.48538  -0.48196  -0.47912  -0.47737  -0.47572
 Alpha  occ. eigenvalues --   -0.47410  -0.47176  -0.47105  -0.46788  -0.46258
 Alpha  occ. eigenvalues --   -0.45648  -0.45402  -0.45028  -0.44755  -0.44547
 Alpha  occ. eigenvalues --   -0.44320  -0.44169  -0.44088  -0.43461  -0.43143
 Alpha  occ. eigenvalues --   -0.42728  -0.42226  -0.42186  -0.41775  -0.41444
 Alpha  occ. eigenvalues --   -0.40483  -0.40139  -0.39941  -0.39668  -0.39359
 Alpha  occ. eigenvalues --   -0.39198  -0.37888  -0.37725  -0.37651  -0.37367
 Alpha  occ. eigenvalues --   -0.37055  -0.36660  -0.35830  -0.35681  -0.35166
 Alpha  occ. eigenvalues --   -0.34594  -0.34209  -0.33233  -0.31398  -0.29927
 Alpha  occ. eigenvalues --   -0.29418  -0.28492  -0.28220  -0.27934  -0.27191
 Alpha  occ. eigenvalues --   -0.26345  -0.23657  -0.20056
 Alpha virt. eigenvalues --   -0.06516  -0.05045  -0.04482  -0.03433  -0.03089
 Alpha virt. eigenvalues --   -0.02846   0.00448   0.01406   0.02592   0.03136
 Alpha virt. eigenvalues --    0.03744   0.04370   0.04494   0.04893   0.05275

 Mulliken charges:
               1
     1  N   -0.300702
     2  O   -0.398345
     3  P    0.317906
     4  P    0.201811
     5  C    0.054788
     6  H    0.097603
     7  C    0.110741
     8  H    0.080054
     9  C   -0.144118
    10  H    0.098576
    11  H    0.113920
    12  C    0.046893
    13  C    0.053809
    14  C   -0.253577
    15  H    0.111016
    16  C   -0.094335
    17  H    0.113111
    18  C   -0.087738
    19  H    0.114661
    20  C   -0.222076
    21  H    0.107799
    22  C    0.118376
    23  C   -0.397617
    24  H    0.116462
    25  H    0.108667
    26  H    0.109324
    27  C   -0.374983
    28  H    0.108925
    29  H    0.120594
    30  H    0.125748
    31  C   -0.380999
    32  H    0.107553
    33  H    0.117579
    34  H    0.126880
    35  C    0.083238
    36  C   -0.198183
    37  C   -0.183220
    38  C   -0.176578
    39  H    0.123479
    40  C   -0.175685
    41  H    0.143857
    42  C    0.059157
    43  H    0.128421
    44  H    0.130370
    45  C    0.032599
    46  C   -0.095542
    47  C   -0.199047
    48  C   -0.193591
    49  H    0.138094
    50  C   -0.174507
    51  H    0.141074
    52  C    0.082002
    53  H    0.130117
    54  H    0.129497
    55  C    0.518953
    56  C    0.518129
    57  F   -0.184081
    58  F   -0.178044
    59  F   -0.182151
    60  F   -0.183083
    61  F   -0.179931
    62  F   -0.183650
 Sum of Mulliken charges =  -0.00000

 Dipole moment (field-independent basis, Debye):
    X=              0.8875    Y=              2.7636    Z=              2.4530  Tot=              3.8004
 Quadrupole moment (field-independent basis, Debye-Ang):
   XX=           -248.1580   YY=           -234.1241   ZZ=           -227.2976
   XY=             -5.6146   XZ=              2.5913   YZ=              3.2676

 Summary of Natural Population Analysis:

                                       Natural Population
                Natural  -----------------------------------------------
    Atom  No    Charge         Core      Valence    Rydberg      Total
 -----------------------------------------------------------------------
      N    1   -1.03728      1.99959     5.99942    0.03827     8.03728
      O    2   -0.78176      1.99983     6.75597    0.02596     8.78176
      P    3    1.28490      9.99832     3.65474    0.06203    13.71510
      P    4    1.04758      9.99779     3.91346    0.04118    13.95242
      C    5   -0.09454      1.99921     4.07063    0.02470     6.09454
      H    6    0.20729      0.00000     0.79002    0.00268     0.79271
      C    7    0.10519      1.99925     3.87762    0.01795     5.89481
      H    8    0.18315      0.00000     0.81479    0.00205     0.81685
      C    9   -0.44241      1.99932     4.42892    0.01417     6.44241
      H   10    0.22664      0.00000     0.77097    0.00240     0.77336
      H   11    0.22016      0.00000     0.77853    0.00131     0.77984
      C   12    0.00595      1.99901     3.97672    0.01832     5.99405
      C   13   -0.04606      1.99896     4.02618    0.02092     6.04606
      C   14   -0.18998      1.99906     4.17262    0.01829     6.18998
      H   15    0.21089      0.00000     0.78724    0.00187     0.78911
      C   16   -0.20546      1.99921     4.18806    0.01820     6.20546
      H   17    0.21146      0.00000     0.78739    0.00115     0.78854
      C   18   -0.18774      1.99921     4.17055    0.01798     6.18774
      H   19    0.21194      0.00000     0.78693    0.00113     0.78806
      C   20   -0.19774      1.99907     4.18033    0.01835     6.19774
      H   21    0.21076      0.00000     0.78775    0.00150     0.78924
      C   22   -0.35846      1.99948     4.33191    0.02707     6.35846
      C   23   -0.60016      1.99938     4.58876    0.01202     6.60016
      H   24    0.20435      0.00000     0.79431    0.00134     0.79565
      H   25    0.19842      0.00000     0.80031    0.00127     0.80158
      H   26    0.20214      0.00000     0.79566    0.00220     0.79786
      C   27   -0.60406      1.99938     4.59251    0.01217     6.60406
      H   28    0.20579      0.00000     0.79242    0.00180     0.79421
      H   29    0.21274      0.00000     0.78587    0.00138     0.78726
      H   30    0.21586      0.00000     0.78287    0.00127     0.78414
      C   31   -0.60260      1.99937     4.59151    0.01172     6.60260
      H   32    0.20604      0.00000     0.79216    0.00180     0.79396
      H   33    0.20660      0.00000     0.79219    0.00121     0.79340
      H   34    0.21466      0.00000     0.78403    0.00131     0.78534
      C   35   -0.33312      1.99900     4.30039    0.03373     6.33312
      C   36   -0.20164      1.99909     4.18314    0.01941     6.20164
      C   37   -0.20950      1.99908     4.19005    0.02037     6.20950
      C   38   -0.16827      1.99911     4.15163    0.01753     6.16827
      H   39    0.21678      0.00000     0.78154    0.00168     0.78322
      C   40   -0.17103      1.99910     4.15401    0.01792     6.17103
      H   41    0.21768      0.00000     0.77989    0.00243     0.78232
      C   42   -0.15276      1.99893     4.12895    0.02488     6.15276
      H   43    0.22474      0.00000     0.77394    0.00132     0.77526
      H   44    0.22526      0.00000     0.77341    0.00133     0.77474
      C   45   -0.34311      1.99897     4.30991    0.03422     6.34311
      C   46   -0.18056      1.99907     4.16039    0.02110     6.18056
      C   47   -0.18850      1.99911     4.16949    0.01990     6.18850
      C   48   -0.17518      1.99910     4.15746    0.01862     6.17518
      H   49    0.22157      0.00000     0.77593    0.00250     0.77843
      C   50   -0.17855      1.99910     4.16177    0.01768     6.17855
      H   51    0.22465      0.00000     0.77390    0.00144     0.77535
      C   52   -0.13360      1.99893     4.10994    0.02474     6.13360
      H   53    0.22747      0.00000     0.77111    0.00141     0.77253
      H   54    0.22611      0.00000     0.77258    0.00131     0.77389
      C   55    0.95576      1.99916     2.99543    0.04965     5.04424
      C   56    0.95473      1.99916     2.99676    0.04936     5.04527
      F   57   -0.31820      1.99992     7.30984    0.00844     9.31820
      F   58   -0.31615      1.99992     7.30790    0.00833     9.31615
      F   59   -0.31570      1.99992     7.30719    0.00859     9.31570
      F   60   -0.31692      1.99992     7.30841    0.00859     9.31692
      F   61   -0.31797      1.99992     7.30973    0.00832     9.31797
      F   62   -0.31823      1.99992     7.30987    0.00845     9.31823
 =======================================================================
   * Total *   -0.00000     89.97185   195.16792    0.86023   286.00000

 Normal termination of Gaussian 16 at Tue Jan  2 07:44:11 2001.
