 Gaussian 16, Revision B.01,
 Gaussian 16:  ES64L-G16RevB.01 20-Dec-2017

 --------------------------------------------
 # nmr=giao b3lyp/def2TZVP pop=nbo scfcyc=200
 --------------------------------------------

 ------------------
 Ligand 31 SPE NoRh
 ------------------
 Symbolic Z-matrix:
 Charge =  0 Multiplicity = 1

                         Standard orientation:
 ---------------------------------------------------------------------
 Center     Atomic      Atomic             Coordinates (Angstroms)
 Number     Number       Type             X           Y           Z
 ---------------------------------------------------------------------
      1         15           0       -0.737362    1.202290    0.099152
      2         15           0        0.737906   -1.201803    0.098642
      3          6           0       -2.508896    1.568936   -0.531039
      4          1           0       -2.698479    0.763187   -1.241524
      5          6           0       -2.404020    2.917191   -1.294897
      6          1           0       -2.779453    3.723075   -0.663399
      7          1           0       -3.043891    2.892310   -2.177866
      8          6           0       -0.948000    3.213798   -1.662119
      9          1           0       -0.639833    2.594328   -2.508733
     10          1           0       -0.819026    4.253498   -1.968781
     11          6           0       -0.086863    2.905388   -0.427943
     12          1           0       -0.412287    3.562721    0.384648
     13          6           0       -0.000264    0.000458   -1.136104
     14          1           0       -0.757175   -0.462066   -1.768793
     15          1           0        0.757605    0.464185   -1.768415
     16          6           0        2.509397   -1.567248   -0.532168
     17          1           0        2.698933   -0.760398   -1.240684
     18          6           0        2.403478   -2.915479   -1.297311
     19          1           0        2.780941   -3.720550   -0.667809
     20          1           0        3.043288   -2.888717   -2.180343
     21          6           0        0.948428   -3.210544   -1.664090
     22          1           0        0.639214   -2.591154   -2.509476
     23          1           0        0.819447   -4.251634   -1.971427
     24          6           0        0.087369   -2.903569   -0.429264
     25          1           0        0.413845   -3.561865    0.383146
     26          6           0       -3.592523    1.514284    0.522021
     27          6           0       -3.823628    2.569312    1.412358
     28          1           0       -3.217673    3.466398    1.369775
     29          6           0       -4.836123    2.495076    2.363429
     30          1           0       -5.000722    3.326410    3.035906
     31          6           0       -5.638485    1.361683    2.445166
     32          1           0       -6.433119    1.307781    3.178219
     33          6           0       -5.417359    0.303597    1.569832
     34          1           0       -6.041401   -0.580607    1.617407
     35          6           0       -4.403884    0.380841    0.619759
     36          1           0       -4.247292   -0.449551   -0.059719
     37          6           0        1.409208    3.047408   -0.564068
     38          6           0        2.175070    3.371301    0.561709
     39          1           0        1.684218    3.499597    1.519639
     40          6           0        3.548874    3.552523    0.467562
     41          1           0        4.117113    3.818926    1.349380
     42          6           0        4.190817    3.410077   -0.759363
     43          1           0        5.258785    3.566242   -0.839487
     44          6           0        3.444955    3.086318   -1.887141
     45          1           0        3.930583    2.990985   -2.850092
     46          6           0        2.067137    2.907071   -1.789995
     47          1           0        1.506547    2.692709   -2.691846
     48          6           0        3.592093   -1.514266    0.522773
     49          6           0        3.822261   -2.571173    1.411438
     50          1           0        3.216297   -3.467314    1.367020
     51          6           0        4.833814   -2.497738    2.362368
     52          1           0        4.998458   -3.330219    3.034892
     53          6           0        5.637187   -1.365234    2.445631
     54          1           0        6.431868   -1.312401    3.179579
     55          6           0        5.417006   -0.306250    1.571965
     56          1           0        6.042057    0.577022    1.620390
     57          6           0        4.404466   -0.381692    0.621036
     58          1           0        4.248835    0.448846   -0.057487
     59          6           0       -1.408702   -3.046762   -0.565139
     60          6           0       -2.174497   -3.371228    0.560085
     61          1           0       -1.683588   -3.500308    1.518156
     62          6           0       -3.548300   -3.553568    0.467233
     63          1           0       -4.116483   -3.820852    1.349416
     64          6           0       -4.190313   -3.410678   -0.759843
     65          1           0       -5.258278   -3.567944   -0.839718
     66          6           0       -3.444524   -3.085349   -1.887067
     67          1           0       -3.931204   -2.990244   -2.850116
     68          6           0       -2.066701   -2.905979   -1.791213
     69          1           0       -1.507167   -2.690767   -2.692362
 ---------------------------------------------------------------------

 SCF Done:  E(RB3LYP) =  -1961.19976818     A.U. after   13 cycles

      1  P    Isotropic =   199.2720   Anisotropy =   138.9152

      2  P    Isotropic =   199.6386   Anisotropy =   138.8363

      3  C    Isotropic =   123.6098   Anisotropy =    25.4002

      4  H    Isotropic =    29.0085   Anisotropy =     7.8608

      5  C    Isotropic =   144.2184   Anisotropy =    32.2297

      6  H    Isotropic =    30.0588   Anisotropy =     8.5460

      7  H    Isotropic =    29.5438   Anisotropy =     8.3858

      8  C    Isotropic =   144.0924   Anisotropy =    26.3999

      9  H    Isotropic =    29.6542   Anisotropy =     5.6788

     10  H    Isotropic =    29.7643   Anisotropy =     9.9310

     11  C    Isotropic =   125.6037   Anisotropy =    29.8057

     12  H    Isotropic =    28.6440   Anisotropy =     7.1558

     13  C    Isotropic =   160.6687   Anisotropy =    38.1947

     14  H    Isotropic =    30.4150   Anisotropy =     8.0819

     15  H    Isotropic =    30.3962   Anisotropy =     8.0949

     16  C    Isotropic =   123.5063   Anisotropy =    25.4109

     17  H    Isotropic =    29.0176   Anisotropy =     7.8614

     18  C    Isotropic =   144.3632   Anisotropy =    32.3096

     19  H    Isotropic =    30.0884   Anisotropy =     8.5536

     20  H    Isotropic =    29.5457   Anisotropy =     8.3848

     21  C    Isotropic =   144.1079   Anisotropy =    26.3295

     22  H    Isotropic =    29.6669   Anisotropy =     5.6844

     23  H    Isotropic =    29.7311   Anisotropy =     9.9338

     24  C    Isotropic =   125.5744   Anisotropy =    29.8434

     25  H    Isotropic =    28.6330   Anisotropy =     7.1669

     26  C    Isotropic =    30.0255   Anisotropy =   202.2658

     27  C    Isotropic =    52.2427   Anisotropy =   179.6182

     28  H    Isotropic =    24.6166   Anisotropy =    11.6045

     29  C    Isotropic =    49.8673   Anisotropy =   182.9287

     30  H    Isotropic =    24.4646   Anisotropy =     5.7063

     31  C    Isotropic =    52.9843   Anisotropy =   180.2493

     32  H    Isotropic =    24.6545   Anisotropy =     4.5655

     33  C    Isotropic =    50.3300   Anisotropy =   181.4968

     34  H    Isotropic =    24.6502   Anisotropy =     7.5862

     35  C    Isotropic =    47.8917   Anisotropy =   161.0694

     36  H    Isotropic =    25.6997   Anisotropy =     5.5579

     37  C    Isotropic =    35.7763   Anisotropy =   198.7909

     38  C    Isotropic =    46.8272   Anisotropy =   168.9161

     39  H    Isotropic =    24.2909   Anisotropy =     9.0312

     40  C    Isotropic =    48.7839   Anisotropy =   186.9830

     41  H    Isotropic =    24.2488   Anisotropy =     4.0194

     42  C    Isotropic =    52.4636   Anisotropy =   183.1049

     43  H    Isotropic =    24.2848   Anisotropy =     3.6242

     44  C    Isotropic =    49.5355   Anisotropy =   184.9261

     45  H    Isotropic =    24.1305   Anisotropy =     5.7023

     46  C    Isotropic =    52.3631   Anisotropy =   181.4031

     47  H    Isotropic =    24.2688   Anisotropy =     9.8565

     48  C    Isotropic =    29.9531   Anisotropy =   202.3107

     49  C    Isotropic =    52.3812   Anisotropy =   179.5155

     50  H    Isotropic =    24.6282   Anisotropy =    11.6093

     51  C    Isotropic =    49.9125   Anisotropy =   182.7936

     52  H    Isotropic =    24.4594   Anisotropy =     5.6924

     53  C    Isotropic =    53.0254   Anisotropy =   180.0335

     54  H    Isotropic =    24.6497   Anisotropy =     4.5593

     55  C    Isotropic =    50.3857   Anisotropy =   181.5185

     56  H    Isotropic =    24.6552   Anisotropy =     7.5822

     57  C    Isotropic =    47.9706   Anisotropy =   161.0645

     58  H    Isotropic =    25.7044   Anisotropy =     5.5604

     59  C    Isotropic =    35.8086   Anisotropy =   198.7116

     60  C    Isotropic =    46.8675   Anisotropy =   168.8715

     61  H    Isotropic =    24.2923   Anisotropy =     9.0278

     62  C    Isotropic =    48.6944   Anisotropy =   186.9480

     63  H    Isotropic =    24.2384   Anisotropy =     4.0112

     64  C    Isotropic =    52.4142   Anisotropy =   183.1037

     65  H    Isotropic =    24.2820   Anisotropy =     3.6186

     66  C    Isotropic =    49.5456   Anisotropy =   184.8491

     67  H    Isotropic =    24.1269   Anisotropy =     5.6964

     68  C    Isotropic =    52.4020   Anisotropy =   181.5132

     69  H    Isotropic =    24.2790   Anisotropy =     9.8664

 The electronic state is 1-A.
 Alpha  occ. eigenvalues --  -77.04122 -77.04118 -10.19073 -10.19070 -10.18544
 Alpha  occ. eigenvalues --  -10.18537 -10.18140 -10.18138 -10.18097 -10.18092
 Alpha  occ. eigenvalues --  -10.17952 -10.17950 -10.17810 -10.17808 -10.17804
 Alpha  occ. eigenvalues --  -10.17796 -10.17744 -10.17646 -10.17643 -10.17547
 Alpha  occ. eigenvalues --  -10.17546 -10.17471 -10.17463 -10.17326 -10.17317
 Alpha  occ. eigenvalues --  -10.17061 -10.17059 -10.16978 -10.16971 -10.16939
 Alpha  occ. eigenvalues --  -10.16932 -10.16821 -10.16820 -10.16647 -10.16639
 Alpha  occ. eigenvalues --   -6.52659  -6.52657  -4.68794  -4.68792  -4.68770
 Alpha  occ. eigenvalues --   -4.68767  -4.68287  -4.68285  -0.86723  -0.86662
 Alpha  occ. eigenvalues --   -0.85744  -0.85729  -0.82727  -0.82468  -0.77802
 Alpha  occ. eigenvalues --   -0.77788  -0.75228  -0.75226  -0.74944  -0.74929
 Alpha  occ. eigenvalues --   -0.74287  -0.74248  -0.73646  -0.69703  -0.69694
 Alpha  occ. eigenvalues --   -0.67374  -0.65764  -0.61822  -0.61694  -0.60647
 Alpha  occ. eigenvalues --   -0.60619  -0.60326  -0.59980  -0.59472  -0.58958
 Alpha  occ. eigenvalues --   -0.56534  -0.56231  -0.54055  -0.53747  -0.52059
 Alpha  occ. eigenvalues --   -0.51639  -0.50389  -0.50193  -0.47554  -0.47322
 Alpha  occ. eigenvalues --   -0.47082  -0.46951  -0.46378  -0.45666  -0.45625
 Alpha  occ. eigenvalues --   -0.45359  -0.45002  -0.44884  -0.44168  -0.43995
 Alpha  occ. eigenvalues --   -0.43431  -0.42723  -0.42533  -0.41993  -0.41836
 Alpha  occ. eigenvalues --   -0.41372  -0.40527  -0.40018  -0.39479  -0.39426
 Alpha  occ. eigenvalues --   -0.38816  -0.38190  -0.37806  -0.37054  -0.37034
 Alpha  occ. eigenvalues --   -0.36685  -0.36493  -0.35967  -0.35200  -0.35092
 Alpha  occ. eigenvalues --   -0.34556  -0.34337  -0.34064  -0.33816  -0.33298
 Alpha  occ. eigenvalues --   -0.33238  -0.32923  -0.32894  -0.32222  -0.31998
 Alpha  occ. eigenvalues --   -0.30287  -0.26212  -0.26192  -0.25392  -0.25232
 Alpha  occ. eigenvalues --   -0.25187  -0.25145  -0.23597  -0.23556  -0.22719
 Alpha  occ. eigenvalues --   -0.19468
 Alpha virt. eigenvalues --   -0.02474  -0.02453  -0.01997  -0.01807  -0.01413
 Alpha virt. eigenvalues --   -0.01154  -0.01025  -0.00670   0.01013   0.02365
 Alpha virt. eigenvalues --    0.03193   0.03583   0.03789   0.04144   0.04579

 Mulliken charges:
               1
     1  P    0.155730
     2  P    0.155624
     3  C   -0.133916
     4  H    0.090459
     5  C   -0.223211
     6  H    0.105686
     7  H    0.100685
     8  C   -0.113725
     9  H    0.082030
    10  H    0.096454
    11  C   -0.151072
    12  H    0.084165
    13  C   -0.399486
    14  H    0.118099
    15  H    0.118030
    16  C   -0.133329
    17  H    0.090665
    18  C   -0.223861
    19  H    0.106127
    20  H    0.100563
    21  C   -0.112958
    22  H    0.082223
    23  H    0.096076
    24  C   -0.151318
    25  H    0.084134
    26  C    0.232908
    27  C   -0.205410
    28  H    0.094721
    29  C   -0.109455
    30  H    0.103496
    31  C   -0.114595
    32  H    0.103769
    33  C   -0.130434
    34  H    0.098193
    35  C   -0.224413
    36  H    0.178306
    37  C    0.214199
    38  C   -0.188553
    39  H    0.107100
    40  C   -0.104962
    41  H    0.107244
    42  C   -0.147109
    43  H    0.107975
    44  C   -0.095289
    45  H    0.107717
    46  C   -0.263316
    47  H    0.116093
    48  C    0.233092
    49  C   -0.206519
    50  H    0.094915
    51  C   -0.108464
    52  H    0.103336
    53  C   -0.115159
    54  H    0.103740
    55  C   -0.129870
    56  H    0.098088
    57  C   -0.225285
    58  H    0.178808
    59  C    0.214677
    60  C   -0.188840
    61  H    0.106910
    62  C   -0.104616
    63  H    0.107343
    64  C   -0.147234
    65  H    0.107981
    66  C   -0.095114
    67  H    0.107579
    68  C   -0.263600
    69  H    0.116174
 Sum of Mulliken charges =  -0.00000

 Dipole moment (field-independent basis, Debye):
    X=              0.0034    Y=             -0.0018    Z=             -2.1972  Tot=              2.1972
 Quadrupole moment (field-independent basis, Debye-Ang):
   XX=           -218.0637   YY=           -218.1653   ZZ=           -216.9284
   XY=              5.1755   XZ=             -0.0097   YZ=             -0.0010

 Summary of Natural Population Analysis:

                                       Natural Population
                Natural  -----------------------------------------------
    Atom  No    Charge         Core      Valence    Rydberg      Total
 -----------------------------------------------------------------------
      P    1    0.79961      9.99863     4.17105    0.03071    14.20039
      P    2    0.79981      9.99863     4.17084    0.03072    14.20019
      C    3   -0.48223      1.99932     4.45870    0.02422     6.48223
      H    4    0.22041      0.00000     0.77685    0.00274     0.77959
      C    5   -0.38672      1.99941     4.37170    0.01562     6.38672
      H    6    0.19914      0.00000     0.79918    0.00168     0.80086
      H    7    0.21117      0.00000     0.78729    0.00154     0.78883
      C    8   -0.39099      1.99939     4.37623    0.01537     6.39099
      H    9    0.18828      0.00000     0.81004    0.00168     0.81172
      H   10    0.20897      0.00000     0.78907    0.00196     0.79103
      C   11   -0.47950      1.99932     4.45548    0.02470     6.47950
      H   12    0.22115      0.00000     0.77631    0.00254     0.77885
      C   13   -1.04335      1.99947     5.01384    0.03005     7.04335
      H   14    0.24498      0.00000     0.75266    0.00236     0.75502
      H   15    0.24512      0.00000     0.75252    0.00236     0.75488
      C   16   -0.48197      1.99932     4.45846    0.02419     6.48197
      H   17    0.22039      0.00000     0.77687    0.00274     0.77961
      C   18   -0.38696      1.99940     4.37193    0.01563     6.38696
      H   19    0.19927      0.00000     0.79905    0.00168     0.80073
      H   20    0.21118      0.00000     0.78728    0.00154     0.78882
      C   21   -0.39113      1.99939     4.37633    0.01541     6.39113
      H   22    0.18843      0.00000     0.80989    0.00169     0.81157
      H   23    0.20899      0.00000     0.78904    0.00196     0.79101
      C   24   -0.48002      1.99932     4.45597    0.02473     6.48002
      H   25    0.22123      0.00000     0.77623    0.00254     0.77877
      C   26   -0.01556      1.99906     3.99360    0.02290     6.01556
      C   27   -0.21172      1.99906     4.19418    0.01848     6.21172
      H   28    0.19816      0.00000     0.79985    0.00199     0.80184
      C   29   -0.19677      1.99920     4.17877    0.01880     6.19677
      H   30    0.20568      0.00000     0.79306    0.00126     0.79432
      C   31   -0.21583      1.99918     4.19737    0.01927     6.21583
      H   32    0.20614      0.00000     0.79264    0.00122     0.79386
      C   33   -0.19638      1.99919     4.17869    0.01851     6.19638
      H   34    0.20548      0.00000     0.79322    0.00130     0.79452
      C   35   -0.20233      1.99908     4.18416    0.01910     6.20233
      H   36    0.21067      0.00000     0.78754    0.00179     0.78933
      C   37   -0.02243      1.99906     3.99853    0.02484     6.02243
      C   38   -0.19707      1.99910     4.17966    0.01831     6.19707
      H   39    0.21039      0.00000     0.78824    0.00137     0.78961
      C   40   -0.19533      1.99919     4.17689    0.01925     6.19533
      H   41    0.20979      0.00000     0.78897    0.00124     0.79021
      C   42   -0.22153      1.99919     4.20293    0.01941     6.22153
      H   43    0.20898      0.00000     0.78982    0.00120     0.79102
      C   44   -0.20060      1.99919     4.18257    0.01884     6.20060
      H   45    0.20768      0.00000     0.79104    0.00128     0.79232
      C   46   -0.22416      1.99907     4.20677    0.01832     6.22416
      H   47    0.20401      0.00000     0.79417    0.00181     0.79599
      C   48   -0.01508      1.99906     3.99312    0.02290     6.01508
      C   49   -0.21212      1.99906     4.19458    0.01848     6.21212
      H   50    0.19822      0.00000     0.79978    0.00200     0.80178
      C   51   -0.19663      1.99919     4.17861    0.01883     6.19663
      H   52    0.20568      0.00000     0.79306    0.00126     0.79432
      C   53   -0.21593      1.99918     4.19746    0.01929     6.21593
      H   54    0.20621      0.00000     0.79257    0.00122     0.79379
      C   55   -0.19626      1.99919     4.17856    0.01852     6.19626
      H   56    0.20543      0.00000     0.79327    0.00130     0.79457
      C   57   -0.20255      1.99908     4.18438    0.01909     6.20255
      H   58    0.21066      0.00000     0.78755    0.00179     0.78934
      C   59   -0.02238      1.99906     3.99847    0.02485     6.02238
      C   60   -0.19717      1.99910     4.17976    0.01832     6.19717
      H   61    0.21035      0.00000     0.78828    0.00137     0.78965
      C   62   -0.19522      1.99919     4.17678    0.01925     6.19522
      H   63    0.20989      0.00000     0.78887    0.00124     0.79011
      C   64   -0.22154      1.99919     4.20294    0.01941     6.22154
      H   65    0.20900      0.00000     0.78980    0.00120     0.79100
      C   66   -0.20065      1.99919     4.18261    0.01885     6.20065
      H   67    0.20766      0.00000     0.79106    0.00128     0.79234
      C   68   -0.22408      1.99907     4.20670    0.01830     6.22408
      H   69    0.20399      0.00000     0.79419    0.00181     0.79601
 =======================================================================
   * Total *   -0.00000     85.97075   175.24784    0.78141   262.00000

 Normal termination of Gaussian 16 at Wed Nov  6 16:35:07 2024.
