 Gaussian 16, Revision B.01,
 Gaussian 16:  ES64L-G16RevB.01 20-Dec-2017

 --------------------------------------------
 # nmr=giao b3lyp/def2TZVP pop=nbo scfcyc=200
 --------------------------------------------

 ------------------
 Ligand 34 SPE NoRh
 ------------------
 Symbolic Z-matrix:
 Charge =  0 Multiplicity = 1

                         Standard orientation:
 ---------------------------------------------------------------------
 Center     Atomic      Atomic             Coordinates (Angstroms)
 Number     Number       Type             X           Y           Z
 ---------------------------------------------------------------------
      1         15           0        0.177709    0.457962    0.509749
      2         15           0        2.748242    0.306857    0.092286
      3          8           0       -0.846419    1.355871   -0.418991
      4          8           0       -0.819207   -0.735291    1.043827
      5          8           0        3.742797   -1.004361    0.136412
      6          8           0        3.491732    1.125645   -1.112603
      7          7           0        1.269515   -0.124653   -0.665544
      8          6           0       -2.043630    1.786250    0.177800
      9          6           0       -2.136183    3.151484    0.502901
     10          1           0       -1.310968    3.805904    0.253976
     11          6           0       -3.273109    3.619162    1.102774
     12          1           0       -3.370567    4.670790    1.342571
     13          6           0       -4.328667    2.736222    1.439540
     14          6           0       -5.476691    3.197643    2.129733
     15          1           0       -5.549165    4.252540    2.369815
     16          6           0       -6.470459    2.331526    2.502361
     17          1           0       -7.341231    2.694152    3.034215
     18          6           0       -6.351393    0.958624    2.204078
     19          1           0       -7.127319    0.273260    2.522018
     20          6           0       -5.262404    0.481142    1.519070
     21          1           0       -5.188979   -0.575583    1.304222
     22          6           0       -4.225987    1.349931    1.096244
     23          6           0       -3.066784    0.886419    0.383364
     24          6           0       -2.935192   -0.512317   -0.106135
     25          6           0       -3.899600   -1.105761   -0.992942
     26          6           0       -4.960356   -0.366168   -1.575503
     27          1           0       -5.056401    0.687099   -1.355613
     28          6           0       -5.857475   -0.963577   -2.424556
     29          1           0       -6.653383   -0.374884   -2.862706
     30          6           0       -5.752859   -2.334252   -2.737746
     31          1           0       -6.474717   -2.792313   -3.401935
     32          6           0       -4.726999   -3.075240   -2.213335
     33          1           0       -4.623355   -4.124939   -2.463133
     34          6           0       -3.770424   -2.486007   -1.349482
     35          6           0       -2.674554   -3.233711   -0.853957
     36          1           0       -2.593295   -4.282686   -1.111061
     37          6           0       -1.715736   -2.638283   -0.082314
     38          1           0       -0.858979   -3.188916    0.283222
     39          6           0       -1.848771   -1.279481    0.254906
     40          6           0        3.854918   -1.881309    1.221945
     41          6           0        2.757041   -2.576026    1.713318
     42          1           0        1.777267   -2.431064    1.279762
     43          6           0        2.941650   -3.475055    2.760436
     44          1           0        2.091457   -4.025052    3.145236
     45          6           0        5.297259   -2.982493    2.787815
     46          1           0        6.286793   -3.144762    3.195773
     47          6           0        5.125332   -2.076392    1.747706
     48          1           0        5.963061   -1.529093    1.335678
     49          6           0        4.734912    1.766093   -0.968622
     50          6           0        4.744484    3.140145   -0.774737
     51          1           0        3.807238    3.677376   -0.702286
     52          6           0        5.966823    3.802066   -0.702600
     53          1           0        5.985268    4.875694   -0.560058
     54          6           0        7.125847    1.717761   -1.037792
     55          1           0        8.049920    1.165233   -1.155437
     56          6           0        5.911029    1.042016   -1.112442
     57          1           0        5.869394   -0.023666   -1.292094
     58          6           0        0.962070   -0.658300   -2.034801
     59          1           0       -0.065839   -1.017971   -1.962197
     60          6           0        1.858675   -1.846430   -2.377090
     61          1           0        1.792667   -2.632460   -1.623975
     62          1           0        2.902547   -1.546788   -2.472795
     63          1           0        1.542428   -2.266223   -3.333075
     64          6           0        1.015501    0.442075   -3.094346
     65          1           0        0.361410    1.271310   -2.829052
     66          1           0        0.680941    0.036547   -4.050707
     67          1           0        2.030115    0.820233   -3.216905
     68          6           0        7.156956    3.092809   -0.831094
     69          1           0        8.105556    3.612408   -0.781726
     70          6           0        4.207361   -3.682425    3.299116
     71          1           0        4.345519   -4.389606    4.105721
 ---------------------------------------------------------------------

 SCF Done:  E(RB3LYP) =  -2390.33740557     A.U. after   15 cycles

      1  P    Isotropic =   112.4988   Anisotropy =   193.1627

      2  P    Isotropic =   111.9405   Anisotropy =   231.2976

      3  O    Isotropic =   145.2656   Anisotropy =    63.7554

      4  O    Isotropic =   137.5944   Anisotropy =    59.5421

      5  O    Isotropic =   133.5139   Anisotropy =    91.6768

      6  O    Isotropic =   145.8375   Anisotropy =    65.7355

      7  N    Isotropic =    66.2571   Anisotropy =   105.5526

      8  C    Isotropic =    23.4807   Anisotropy =   113.6831

      9  C    Isotropic =    56.9478   Anisotropy =   149.1359

     10  H    Isotropic =    23.9978   Anisotropy =     8.1213

     11  C    Isotropic =    47.2220   Anisotropy =   159.6071

     12  H    Isotropic =    23.6103   Anisotropy =     7.2693

     13  C    Isotropic =    44.5254   Anisotropy =   212.8028

     14  C    Isotropic =    49.4243   Anisotropy =   161.4990

     15  H    Isotropic =    23.6534   Anisotropy =     7.3494

     16  C    Isotropic =    54.0571   Anisotropy =   177.9445

     17  H    Isotropic =    24.2162   Anisotropy =     4.6906

     18  C    Isotropic =    52.3043   Anisotropy =   180.7725

     19  H    Isotropic =    24.4151   Anisotropy =     7.8137

     20  C    Isotropic =    50.0253   Anisotropy =   178.4469

     21  H    Isotropic =    24.4043   Anisotropy =    14.8189

     22  C    Isotropic =    42.3148   Anisotropy =   205.7159

     23  C    Isotropic =    51.7978   Anisotropy =   136.9281

     24  C    Isotropic =    52.1289   Anisotropy =   140.9967

     25  C    Isotropic =    42.0061   Anisotropy =   205.4992

     26  C    Isotropic =    50.1212   Anisotropy =   180.4230

     27  H    Isotropic =    24.3573   Anisotropy =    14.2060

     28  C    Isotropic =    52.0379   Anisotropy =   181.0152

     29  H    Isotropic =    24.3966   Anisotropy =     7.6068

     30  C    Isotropic =    53.9993   Anisotropy =   178.0482

     31  H    Isotropic =    24.2030   Anisotropy =     4.6839

     32  C    Isotropic =    49.3782   Anisotropy =   160.8568

     33  H    Isotropic =    23.6431   Anisotropy =     7.5461

     34  C    Isotropic =    44.8994   Anisotropy =   212.2117

     35  C    Isotropic =    47.9246   Anisotropy =   159.4044

     36  H    Isotropic =    23.6353   Anisotropy =     7.4723

     37  C    Isotropic =    57.3738   Anisotropy =   149.1803

     38  H    Isotropic =    23.8630   Anisotropy =     6.6682

     39  C    Isotropic =    22.9105   Anisotropy =   130.3039

     40  C    Isotropic =    19.8977   Anisotropy =   122.0524

     41  C    Isotropic =    58.7561   Anisotropy =   156.3107

     42  H    Isotropic =    24.0358   Anisotropy =     6.9868

     43  C    Isotropic =    48.5277   Anisotropy =   182.9540

     44  H    Isotropic =    24.2094   Anisotropy =     7.3504

     45  C    Isotropic =    48.2013   Anisotropy =   183.2401

     46  H    Isotropic =    24.3621   Anisotropy =     5.4640

     47  C    Isotropic =    57.1102   Anisotropy =   153.4296

     48  H    Isotropic =    24.6190   Anisotropy =     8.4089

     49  C    Isotropic =    20.0218   Anisotropy =   119.6068

     50  C    Isotropic =    55.4162   Anisotropy =   153.7817

     51  H    Isotropic =    24.3864   Anisotropy =     8.3879

     52  C    Isotropic =    48.1699   Anisotropy =   183.0926

     53  H    Isotropic =    24.2420   Anisotropy =     5.7467

     54  C    Isotropic =    49.1887   Anisotropy =   182.7307

     55  H    Isotropic =    24.2293   Anisotropy =     6.0393

     56  C    Isotropic =    54.5743   Anisotropy =   159.9639

     57  H    Isotropic =    24.0485   Anisotropy =     9.4774

     58  C    Isotropic =   123.7619   Anisotropy =    40.6780

     59  H    Isotropic =    28.4233   Anisotropy =    11.6127

     60  C    Isotropic =   159.6142   Anisotropy =    30.6609

     61  H    Isotropic =    30.1873   Anisotropy =     4.9494

     62  H    Isotropic =    29.9506   Anisotropy =     6.6064

     63  H    Isotropic =    31.0579   Anisotropy =     9.0303

     64  C    Isotropic =   156.8246   Anisotropy =    38.2628

     65  H    Isotropic =    30.2500   Anisotropy =     5.2494

     66  H    Isotropic =    31.3982   Anisotropy =     8.9444

     67  H    Isotropic =    30.1823   Anisotropy =     6.4969

     68  C    Isotropic =    54.1103   Anisotropy =   180.0832

     69  H    Isotropic =    24.4703   Anisotropy =     4.3859

     70  C    Isotropic =    55.1299   Anisotropy =   178.8591

     71  H    Isotropic =    24.5801   Anisotropy =     4.6601

 The electronic state is 1-A.
 Alpha  occ. eigenvalues --  -77.12797 -77.12550 -19.15810 -19.15662 -19.15296
 Alpha  occ. eigenvalues --  -19.15105 -14.33152 -10.24563 -10.24554 -10.24081
 Alpha  occ. eigenvalues --  -10.24045 -10.21838 -10.19960 -10.19883 -10.19788
 Alpha  occ. eigenvalues --  -10.19672 -10.19378 -10.19163 -10.18935 -10.18675
 Alpha  occ. eigenvalues --  -10.18661 -10.18404 -10.18367 -10.18176 -10.18162
 Alpha  occ. eigenvalues --  -10.18156 -10.18152 -10.18091 -10.18019 -10.18000
 Alpha  occ. eigenvalues --  -10.17992 -10.17979 -10.17897 -10.17876 -10.17831
 Alpha  occ. eigenvalues --  -10.17815 -10.17732 -10.17670 -10.17605 -10.17415
 Alpha  occ. eigenvalues --  -10.16298 -10.15564  -6.60172  -6.59971  -4.76390
 Alpha  occ. eigenvalues --   -4.76357  -4.76238  -4.76137  -4.75795  -4.75558
 Alpha  occ. eigenvalues --   -1.07669  -1.06814  -1.03741  -1.03552  -0.91276
 Alpha  occ. eigenvalues --   -0.89265  -0.88032  -0.86087  -0.85782  -0.83745
 Alpha  occ. eigenvalues --   -0.82810  -0.80657  -0.78215  -0.77009  -0.75702
 Alpha  occ. eigenvalues --   -0.75595  -0.75453  -0.75023  -0.74704  -0.74359
 Alpha  occ. eigenvalues --   -0.74299  -0.71768  -0.69070  -0.67042  -0.65532
 Alpha  occ. eigenvalues --   -0.63929  -0.63439  -0.62135  -0.62039  -0.61919
 Alpha  occ. eigenvalues --   -0.61902  -0.61014  -0.60836  -0.58960  -0.58597
 Alpha  occ. eigenvalues --   -0.56691  -0.54903  -0.54438  -0.53721  -0.53022
 Alpha  occ. eigenvalues --   -0.51878  -0.51447  -0.50958  -0.50356  -0.49690
 Alpha  occ. eigenvalues --   -0.48659  -0.47960  -0.47414  -0.47193  -0.46912
 Alpha  occ. eigenvalues --   -0.46830  -0.45971  -0.45883  -0.44867  -0.44789
 Alpha  occ. eigenvalues --   -0.44431  -0.44081  -0.43769  -0.43548  -0.43380
 Alpha  occ. eigenvalues --   -0.43247  -0.43085  -0.42947  -0.42823  -0.42720
 Alpha  occ. eigenvalues --   -0.42373  -0.41456  -0.40289  -0.39982  -0.39742
 Alpha  occ. eigenvalues --   -0.39206  -0.38965  -0.38748  -0.37549  -0.37408
 Alpha  occ. eigenvalues --   -0.37116  -0.36695  -0.36546  -0.36430  -0.36082
 Alpha  occ. eigenvalues --   -0.35799  -0.35659  -0.35439  -0.35342  -0.34665
 Alpha  occ. eigenvalues --   -0.33982  -0.33786  -0.32978  -0.32888  -0.32442
 Alpha  occ. eigenvalues --   -0.32151  -0.30280  -0.29107  -0.28140  -0.27251
 Alpha  occ. eigenvalues --   -0.26345  -0.26188  -0.25626  -0.25236  -0.24812
 Alpha  occ. eigenvalues --   -0.24563  -0.23217  -0.22125  -0.20429
 Alpha virt. eigenvalues --   -0.06298  -0.05121  -0.02855  -0.02336  -0.02092
 Alpha virt. eigenvalues --   -0.01952  -0.01284  -0.00923   0.00314   0.01353
 Alpha virt. eigenvalues --    0.01692   0.02662   0.03083   0.04172   0.04608

 Mulliken charges:
               1
     1  P    0.453468
     2  P    0.449629
     3  O   -0.371102
     4  O   -0.345813
     5  O   -0.364877
     6  O   -0.359157
     7  N   -0.214964
     8  C    0.293720
     9  C   -0.238900
    10  H    0.114255
    11  C   -0.171343
    12  H    0.103522
    13  C    0.157571
    14  C   -0.158726
    15  H    0.101649
    16  C   -0.108381
    17  H    0.108070
    18  C   -0.101772
    19  H    0.109982
    20  C   -0.179790
    21  H    0.133904
    22  C   -0.106549
    23  C    0.129699
    24  C    0.164888
    25  C   -0.104439
    26  C   -0.176774
    27  H    0.136867
    28  C   -0.103013
    29  H    0.110903
    30  C   -0.107565
    31  H    0.108639
    32  C   -0.161823
    33  H    0.101822
    34  C    0.158776
    35  C   -0.176993
    36  H    0.104266
    37  C   -0.216518
    38  H    0.120337
    39  C    0.157586
    40  C    0.265569
    41  C   -0.168342
    42  H    0.156262
    43  C   -0.147760
    44  H    0.108124
    45  C   -0.096476
    46  H    0.109957
    47  C   -0.190951
    48  H    0.121636
    49  C    0.293891
    50  C   -0.208216
    51  H    0.115957
    52  C   -0.082441
    53  H    0.111192
    54  C   -0.085050
    55  H    0.111282
    56  C   -0.207867
    57  H    0.128477
    58  C    0.006943
    59  H    0.098049
    60  C   -0.331902
    61  H    0.110925
    62  H    0.123082
    63  H    0.109812
    64  C   -0.347418
    65  H    0.127891
    66  H    0.099645
    67  H    0.123703
    68  C   -0.119808
    69  H    0.109340
    70  C   -0.104395
    71  H    0.107838
 Sum of Mulliken charges =  -0.00000

 Dipole moment (field-independent basis, Debye):
    X=             -1.0984    Y=             -0.7086    Z=             -1.2165  Tot=              1.7856
 Quadrupole moment (field-independent basis, Debye-Ang):
   XX=           -229.2964   YY=           -234.7009   ZZ=           -260.2989
   XY=             -0.0004   XZ=              1.4428   YZ=              2.2775

 Summary of Natural Population Analysis:

                                       Natural Population
                Natural  -----------------------------------------------
    Atom  No    Charge         Core      Valence    Rydberg      Total
 -----------------------------------------------------------------------
      P    1    1.51655      9.99826     3.39737    0.08782    13.48345
      P    2    1.50416      9.99821     3.40557    0.09206    13.49584
      O    3   -0.77889      1.99978     6.75194    0.02717     8.77889
      O    4   -0.77087      1.99979     6.74555    0.02553     8.77087
      O    5   -0.78421      1.99975     6.75886    0.02560     8.78421
      O    6   -0.78258      1.99975     6.75648    0.02635     8.78258
      N    7   -1.08289      1.99957     6.04794    0.03538     8.08289
      C    8    0.28827      1.99862     3.68865    0.02446     5.71173
      C    9   -0.23337      1.99905     4.21477    0.01956     6.23337
      H   10    0.22611      0.00000     0.77264    0.00126     0.77389
      C   11   -0.15645      1.99914     4.13967    0.01764     6.15645
      H   12    0.20972      0.00000     0.78897    0.00131     0.79028
      C   13   -0.06823      1.99908     4.04883    0.02032     6.06823
      C   14   -0.17209      1.99912     4.15502    0.01794     6.17209
      H   15    0.20665      0.00000     0.79198    0.00137     0.79335
      C   16   -0.21023      1.99918     4.19184    0.01921     6.21023
      H   17    0.20976      0.00000     0.78908    0.00116     0.79024
      C   18   -0.19568      1.99919     4.17813    0.01836     6.19568
      H   19    0.20967      0.00000     0.78915    0.00119     0.79033
      C   20   -0.18863      1.99911     4.17116    0.01836     6.18863
      H   21    0.21808      0.00000     0.78042    0.00149     0.78192
      C   22   -0.03057      1.99902     4.01239    0.01916     6.03057
      C   23   -0.07106      1.99883     4.05042    0.02181     6.07106
      C   24   -0.07415      1.99883     4.05303    0.02229     6.07415
      C   25   -0.02922      1.99902     4.01102    0.01919     6.02922
      C   26   -0.18820      1.99911     4.17094    0.01816     6.18820
      H   27    0.21938      0.00000     0.77913    0.00149     0.78062
      C   28   -0.19524      1.99919     4.17775    0.01830     6.19524
      H   29    0.21003      0.00000     0.78878    0.00119     0.78997
      C   30   -0.21002      1.99918     4.19172    0.01911     6.21002
      H   31    0.21001      0.00000     0.78884    0.00115     0.78999
      C   32   -0.17311      1.99913     4.15562    0.01837     6.17311
      H   33    0.20654      0.00000     0.79206    0.00140     0.79346
      C   34   -0.07146      1.99907     4.05346    0.01892     6.07146
      C   35   -0.15761      1.99913     4.14111    0.01737     6.15761
      H   36    0.20959      0.00000     0.78908    0.00132     0.79041
      C   37   -0.24103      1.99904     4.22256    0.01944     6.24103
      H   38    0.22079      0.00000     0.77770    0.00152     0.77921
      C   39    0.28327      1.99860     3.69468    0.02345     5.71673
      C   40    0.28209      1.99868     3.69628    0.02296     5.71791
      C   41   -0.26331      1.99900     4.24413    0.02018     6.26331
      H   42    0.21918      0.00000     0.77873    0.00209     0.78082
      C   43   -0.18635      1.99921     4.16824    0.01891     6.18635
      H   44    0.20961      0.00000     0.78914    0.00125     0.79039
      C   45   -0.18804      1.99920     4.17028    0.01856     6.18804
      H   46    0.20927      0.00000     0.78949    0.00123     0.79073
      C   47   -0.24309      1.99902     4.22386    0.02020     6.24309
      H   48    0.21828      0.00000     0.77976    0.00196     0.78172
      C   49    0.27056      1.99867     3.70434    0.02643     5.72944
      C   50   -0.24098      1.99903     4.22275    0.01920     6.24098
      H   51    0.22219      0.00000     0.77641    0.00139     0.77781
      C   52   -0.19093      1.99920     4.17266    0.01907     6.19093
      H   53    0.21020      0.00000     0.78862    0.00119     0.78980
      C   54   -0.19236      1.99920     4.17437    0.01878     6.19236
      H   55    0.20917      0.00000     0.78957    0.00126     0.79083
      C   56   -0.24634      1.99901     4.22814    0.01919     6.24634
      H   57    0.22600      0.00000     0.77211    0.00189     0.77400
      C   58   -0.04041      1.99939     4.01752    0.02350     6.04041
      H   59    0.19668      0.00000     0.80020    0.00312     0.80332
      C   60   -0.59887      1.99942     4.58696    0.01249     6.59887
      H   61    0.20868      0.00000     0.79021    0.00111     0.79132
      H   62    0.21157      0.00000     0.78685    0.00159     0.78843
      H   63    0.20753      0.00000     0.79148    0.00099     0.79247
      C   64   -0.60224      1.99941     4.59056    0.01226     6.60224
      H   65    0.21955      0.00000     0.77947    0.00098     0.78045
      H   66    0.20228      0.00000     0.79675    0.00097     0.79772
      H   67    0.21490      0.00000     0.78391    0.00119     0.78510
      C   68   -0.22102      1.99919     4.20255    0.01928     6.22102
      H   69    0.20963      0.00000     0.78923    0.00114     0.79037
      C   70   -0.22552      1.99919     4.20685    0.01948     6.22552
      H   71    0.20927      0.00000     0.78952    0.00121     0.79073
 =======================================================================
   * Total *   -0.00000     99.96256   206.99524    1.04219   308.00000

 1\1\GINC-G2NODEC1\SP\RB3LYP\def2TZVP\C35H29N1O4P2\ROOT\02-Jan-2001\0\\
 # nmr=giao b3lyp/def2TZVP pop=nbo scfcyc=200\\Ligand 34 SPE NoRh\\0,1\
 P,0,-0.346,-0.108,-0.215\P,0,2.13,-0.865,-0.533\O,0,-1.404,0.1,-1.462\
 O,0,-1.36,-0.501,1.018\O,0,3.013,-1.954,0.33\O,0,2.778,-1.152,-2.007\N
 ,0,0.537,-1.467,-0.75\C,0,-2.477,0.983,-1.253\C,0,-2.417,2.223,-1.914\
 H,0,-1.58,2.427,-2.569\C,0,-3.427,3.127,-1.73\H,0,-3.408,4.079,-2.246\
 C,0,-4.499,2.844,-0.848\C,0,-5.509,3.804,-0.592\H,0,-5.465,4.755,-1.11
 1\C,0,-6.514,3.548,0.303\H,0,-7.278,4.291,0.495\C,0,-6.545,2.316,0.988

 Normal termination of Gaussian 16 at Tue Jan  2 08:30:10 2001.
