 Gaussian 16, Revision B.01,
 Gaussian 16:  ES64L-G16RevB.01 20-Dec-2017

 --------------------------------------------
 # nmr=giao b3lyp/def2TZVP pop=nbo scfcyc=200
 --------------------------------------------

 ------------------
 Ligand 35 SPE NoRh
 ------------------
 Symbolic Z-matrix:
 Charge =  0 Multiplicity = 1

                         Standard orientation:
 ---------------------------------------------------------------------
 Center     Atomic      Atomic             Coordinates (Angstroms)
 Number     Number       Type             X           Y           Z
 ---------------------------------------------------------------------
      1         15           0       -0.128318   -0.363518   -0.521098
      2         15           0        2.430565   -0.278069   -0.013882
      3          8           0       -1.150344   -1.482944    0.128329
      4          8           0       -1.143066    0.906704   -0.765848
      5          8           0        3.390770    1.022183    0.292205
      6          8           0        3.166622   -1.356787    0.968039
      7          7           0        0.925670   -0.073343    0.788595
      8          6           0       -2.322866   -1.772772   -0.588846
      9          6           0       -2.375475   -3.014181   -1.247618
     10          1           0       -1.539555   -3.693953   -1.148259
     11          6           0       -3.486828   -3.337619   -1.974674
     12          1           0       -3.552945   -4.297744   -2.473390
     13          6           0       -4.557460   -2.419266   -2.108017
     14          6           0       -5.678985   -2.714900   -2.921558
     15          1           0       -5.718901   -3.676380   -3.419443
     16          6           0       -6.685313   -1.801802   -3.092135
     17          1           0       -7.535616   -2.036182   -3.720527
     18          6           0       -6.607441   -0.545082   -2.456457
     19          1           0       -7.393457    0.183580   -2.613957
     20          6           0       -5.545083   -0.233910   -1.646202
     21          1           0       -5.502357    0.735637   -1.172023
     22          6           0       -4.495835   -1.161485   -1.426449
     23          6           0       -3.363990   -0.869387   -0.590237
     24          6           0       -3.276786    0.365302    0.236419
     25          6           0       -4.273297    0.699589    1.217695
     26          6           0       -5.327473   -0.181774    1.569542
     27          1           0       -5.392651   -1.147490    1.091095
     28          6           0       -6.256552    0.167332    2.517496
     29          1           0       -7.046656   -0.527616    2.773799
     30          6           0       -6.190673    1.417513    3.165640
     31          1           0       -6.936452    1.681409    3.905282
     32          6           0       -5.172282    2.285634    2.869964
     33          1           0       -5.099596    3.240420    3.375487
     34          6           0       -4.185632    1.948303    1.910653
     35          6           0       -3.097495    2.816220    1.646669
     36          1           0       -3.047233    3.768637    2.159781
     37          6           0       -2.109561    2.450744    0.775542
     38          1           0       -1.258387    3.090624    0.582229
     39          6           0       -2.201225    1.218098    0.106096
     40          6           0        3.504388    2.139187   -0.545481
     41          6           0        2.409349    2.928369   -0.867196
     42          1           0        1.424084    2.676226   -0.499948
     43          6           0        2.596768    4.058250   -1.658175
     44          1           0        1.739891    4.673480   -1.906040
     45          6           0        3.861256    4.422369   -2.124340
     46          6           0        4.943647    3.606147   -1.780045
     47          1           0        5.938504    3.864656   -2.125260
     48          6           0        4.774334    2.471623   -0.997105
     49          1           0        5.617913    1.847613   -0.729339
     50          6           0        4.430857   -1.914102    0.699886
     51          6           0        4.489261   -3.199614    0.182765
     52          1           0        3.572025   -3.731978   -0.037439
     53          6           0        5.730469   -3.794947   -0.014540
     54          1           0        5.775416   -4.804020   -0.407625
     55          6           0        6.915323   -3.125566    0.302996
     56          6           0        6.818377   -1.837851    0.835533
     57          1           0        7.720390   -1.305124    1.111552
     58          6           0        5.585759   -1.226442    1.042154
     59          1           0        5.518057   -0.237234    1.474080
     60          6           0        0.578793    0.097938    2.239831
     61          1           0       -0.455183    0.445285    2.233042
     62          6           0        1.439661    1.179778    2.887666
     63          1           0        1.370817    2.126483    2.350879
     64          1           0        2.488520    0.883852    2.932616
     65          1           0        1.094502    1.342797    3.910045
     66          6           0        0.638162   -1.230061    2.994240
     67          1           0        0.008084   -1.979726    2.516291
     68          1           0        0.276114   -1.080989    4.013752
     69          1           0        1.658384   -1.609316    3.043335
     70          6           0        8.258642   -3.768288    0.068849
     71          1           0        8.674575   -3.464889   -0.895156
     72          1           0        8.975819   -3.479252    0.838167
     73          1           0        8.184214   -4.855987    0.067306
     74          6           0        4.062303    5.672705   -2.940497
     75          1           0        4.371965    6.506805   -2.304244
     76          1           0        4.838022    5.536604   -3.696203
     77          1           0        3.143846    5.971411   -3.447558
 ---------------------------------------------------------------------

 SCF Done:  E(RB3LYP) =  -2468.99951082     A.U. after   15 cycles

      1  P    Isotropic =   112.2882   Anisotropy =   193.6222

      2  P    Isotropic =   111.6355   Anisotropy =   230.7504

      3  O    Isotropic =   144.9993   Anisotropy =    63.7032

      4  O    Isotropic =   137.4764   Anisotropy =    59.0048

      5  O    Isotropic =   137.3904   Anisotropy =    94.3553

      6  O    Isotropic =   149.4016   Anisotropy =    65.8653

      7  N    Isotropic =    66.5666   Anisotropy =   105.2148

      8  C    Isotropic =    23.4596   Anisotropy =   114.7263

      9  C    Isotropic =    57.0972   Anisotropy =   149.4226

     10  H    Isotropic =    24.0306   Anisotropy =     8.1053

     11  C    Isotropic =    47.3166   Anisotropy =   158.8731

     12  H    Isotropic =    23.6138   Anisotropy =     7.2619

     13  C    Isotropic =    44.3812   Anisotropy =   211.9562

     14  C    Isotropic =    49.4265   Anisotropy =   160.6008

     15  H    Isotropic =    23.6571   Anisotropy =     7.3850

     16  C    Isotropic =    54.0287   Anisotropy =   177.1080

     17  H    Isotropic =    24.2172   Anisotropy =     4.6928

     18  C    Isotropic =    52.1754   Anisotropy =   179.9223

     19  H    Isotropic =    24.4019   Anisotropy =     7.8279

     20  C    Isotropic =    50.7131   Anisotropy =   179.7973

     21  H    Isotropic =    24.3874   Anisotropy =    14.8279

     22  C    Isotropic =    41.9335   Anisotropy =   204.6378

     23  C    Isotropic =    51.5448   Anisotropy =   136.8949

     24  C    Isotropic =    52.2118   Anisotropy =   141.0319

     25  C    Isotropic =    42.1831   Anisotropy =   206.4556

     26  C    Isotropic =    49.8010   Anisotropy =   179.8437

     27  H    Isotropic =    24.3665   Anisotropy =    14.2702

     28  C    Isotropic =    52.1695   Anisotropy =   181.2695

     29  H    Isotropic =    24.3955   Anisotropy =     7.6218

     30  C    Isotropic =    54.0172   Anisotropy =   178.5953

     31  H    Isotropic =    24.2171   Anisotropy =     4.6657

     32  C    Isotropic =    49.5497   Anisotropy =   161.5612

     33  H    Isotropic =    23.6603   Anisotropy =     7.5868

     34  C    Isotropic =    44.9276   Anisotropy =   213.0361

     35  C    Isotropic =    48.0447   Anisotropy =   159.3147

     36  H    Isotropic =    23.6369   Anisotropy =     7.5444

     37  C    Isotropic =    57.5296   Anisotropy =   149.2604

     38  H    Isotropic =    23.8678   Anisotropy =     6.6421

     39  C    Isotropic =    22.7859   Anisotropy =   129.9460

     40  C    Isotropic =    22.4601   Anisotropy =   118.4691

     41  C    Isotropic =    58.9884   Anisotropy =   153.4919

     42  H    Isotropic =    24.1730   Anisotropy =     7.0900

     43  C    Isotropic =    48.2092   Anisotropy =   160.5385

     44  H    Isotropic =    24.4376   Anisotropy =     9.0329

     45  C    Isotropic =    42.6354   Anisotropy =   192.0074

     46  C    Isotropic =    47.8277   Anisotropy =   165.3501

     47  H    Isotropic =    24.5420   Anisotropy =     7.3148

     48  C    Isotropic =    57.1174   Anisotropy =   151.1859

     49  H    Isotropic =    24.7245   Anisotropy =     8.2323

     50  C    Isotropic =    22.3550   Anisotropy =   115.3704

     51  C    Isotropic =    55.9521   Anisotropy =   151.6902

     52  H    Isotropic =    24.5176   Anisotropy =     8.2970

     53  C    Isotropic =    47.6939   Anisotropy =   161.6245

     54  H    Isotropic =    24.4620   Anisotropy =     7.3972

     55  C    Isotropic =    41.4024   Anisotropy =   194.0874

     56  C    Isotropic =    48.5395   Anisotropy =   163.8582

     57  H    Isotropic =    24.4243   Anisotropy =     7.8427

     58  C    Isotropic =    54.8043   Anisotropy =   157.9416

     59  H    Isotropic =    24.1749   Anisotropy =     9.4205

     60  C    Isotropic =   123.7838   Anisotropy =    40.8130

     61  H    Isotropic =    28.4546   Anisotropy =    11.5763

     62  C    Isotropic =   159.5730   Anisotropy =    30.4195

     63  H    Isotropic =    30.1920   Anisotropy =     5.0014

     64  H    Isotropic =    29.9524   Anisotropy =     6.5592

     65  H    Isotropic =    31.0683   Anisotropy =     8.9978

     66  C    Isotropic =   156.7668   Anisotropy =    38.3462

     67  H    Isotropic =    30.2598   Anisotropy =     5.2143

     68  H    Isotropic =    31.4034   Anisotropy =     8.9618

     69  H    Isotropic =    30.1994   Anisotropy =     6.5540

     70  C    Isotropic =   160.7101   Anisotropy =    41.6859

     71  H    Isotropic =    29.2927   Anisotropy =     8.4503

     72  H    Isotropic =    29.5494   Anisotropy =     7.7309

     73  H    Isotropic =    29.6715   Anisotropy =     7.7359

     74  C    Isotropic =   160.9512   Anisotropy =    41.3020

     75  H    Isotropic =    29.3244   Anisotropy =     8.8749

     76  H    Isotropic =    29.5925   Anisotropy =     8.0705

     77  H    Isotropic =    29.6982   Anisotropy =     6.9538

 The electronic state is 1-A.
 Alpha  occ. eigenvalues --  -77.12474 -77.12356 -19.15651 -19.15499 -19.14989
 Alpha  occ. eigenvalues --  -19.14772 -14.32914 -10.24442 -10.24430 -10.23550
 Alpha  occ. eigenvalues --  -10.23518 -10.21650 -10.19847 -10.19772 -10.19674
 Alpha  occ. eigenvalues --  -10.19570 -10.19270 -10.19061 -10.18825 -10.18566
 Alpha  occ. eigenvalues --  -10.18539 -10.18377 -10.18280 -10.18270 -10.18133
 Alpha  occ. eigenvalues --  -10.18093 -10.18053 -10.18009 -10.17915 -10.17885
 Alpha  occ. eigenvalues --  -10.17812 -10.17718 -10.17622 -10.17603 -10.17552
 Alpha  occ. eigenvalues --  -10.17511 -10.17478 -10.17469 -10.17410 -10.17325
 Alpha  occ. eigenvalues --  -10.16965 -10.16825 -10.16131 -10.15411  -6.59853
 Alpha  occ. eigenvalues --   -6.59777  -4.76070  -4.76045  -4.76039  -4.75943
 Alpha  occ. eigenvalues --   -4.75478  -4.75364  -1.07515  -1.06480  -1.03595
 Alpha  occ. eigenvalues --   -1.03192  -0.91041  -0.89151  -0.87933  -0.86120
 Alpha  occ. eigenvalues --   -0.85858  -0.83637  -0.82710  -0.80549  -0.78267
 Alpha  occ. eigenvalues --   -0.77300  -0.76998  -0.76911  -0.75257  -0.75156
 Alpha  occ. eigenvalues --   -0.75095  -0.74625  -0.74217  -0.71659  -0.69920
 Alpha  occ. eigenvalues --   -0.68879  -0.68391  -0.66636  -0.64007  -0.63680
 Alpha  occ. eigenvalues --   -0.63295  -0.62014  -0.61955  -0.61825  -0.61707
 Alpha  occ. eigenvalues --   -0.60483  -0.59148  -0.58501  -0.58454  -0.56371
 Alpha  occ. eigenvalues --   -0.54773  -0.53959  -0.53620  -0.52909  -0.51757
 Alpha  occ. eigenvalues --   -0.51095  -0.50267  -0.49405  -0.48386  -0.48191
 Alpha  occ. eigenvalues --   -0.47840  -0.47437  -0.47025  -0.46881  -0.46720
 Alpha  occ. eigenvalues --   -0.45855  -0.45589  -0.44712  -0.44441  -0.44288
 Alpha  occ. eigenvalues --   -0.43869  -0.43439  -0.43274  -0.43113  -0.43053
 Alpha  occ. eigenvalues --   -0.42815  -0.42737  -0.42675  -0.42542  -0.42336
 Alpha  occ. eigenvalues --   -0.42202  -0.41793  -0.41183  -0.40186  -0.39897
 Alpha  occ. eigenvalues --   -0.39794  -0.39626  -0.39512  -0.38995  -0.38687
 Alpha  occ. eigenvalues --   -0.38586  -0.36518  -0.36385  -0.36310  -0.36050
 Alpha  occ. eigenvalues --   -0.35944  -0.35714  -0.35556  -0.35488  -0.35349
 Alpha  occ. eigenvalues --   -0.35191  -0.34698  -0.34230  -0.33821  -0.33577
 Alpha  occ. eigenvalues --   -0.32744  -0.32589  -0.32275  -0.31913  -0.30171
 Alpha  occ. eigenvalues --   -0.29001  -0.27892  -0.26786  -0.26020  -0.25865
 Alpha  occ. eigenvalues --   -0.25305  -0.25081  -0.24177  -0.23602  -0.23077
 Alpha  occ. eigenvalues --   -0.21984  -0.20127
 Alpha virt. eigenvalues --   -0.06190  -0.05021  -0.02747  -0.02215  -0.01942
 Alpha virt. eigenvalues --   -0.01779  -0.00882  -0.00522   0.00409   0.01560
 Alpha virt. eigenvalues --    0.01799   0.02847   0.03191   0.04042   0.04517

 Mulliken charges:
               1
     1  P    0.452838
     2  P    0.448732
     3  O   -0.371003
     4  O   -0.345482
     5  O   -0.367857
     6  O   -0.361625
     7  N   -0.215415
     8  C    0.293963
     9  C   -0.239442
    10  H    0.114114
    11  C   -0.170544
    12  H    0.103008
    13  C    0.157815
    14  C   -0.159491
    15  H    0.101382
    16  C   -0.107948
    17  H    0.107664
    18  C   -0.102058
    19  H    0.109678
    20  C   -0.179678
    21  H    0.133770
    22  C   -0.106548
    23  C    0.130069
    24  C    0.165008
    25  C   -0.105164
    26  C   -0.176680
    27  H    0.136769
    28  C   -0.103406
    29  H    0.110654
    30  C   -0.107100
    31  H    0.108190
    32  C   -0.162585
    33  H    0.101645
    34  C    0.159658
    35  C   -0.177105
    36  H    0.103808
    37  C   -0.215647
    38  H    0.120324
    39  C    0.155978
    40  C    0.260032
    41  C   -0.163964
    42  H    0.153065
    43  C   -0.216337
    44  H    0.100477
    45  C    0.176428
    46  C   -0.166558
    47  H    0.101368
    48  C   -0.183613
    49  H    0.118758
    50  C    0.286131
    51  C   -0.200839
    52  H    0.112194
    53  C   -0.149658
    54  H    0.102769
    55  C    0.153766
    56  C   -0.152318
    57  H    0.103100
    58  C   -0.199956
    59  H    0.124993
    60  C    0.007345
    61  H    0.097342
    62  C   -0.331123
    63  H    0.110460
    64  H    0.123147
    65  H    0.108905
    66  C   -0.347734
    67  H    0.127496
    68  H    0.098852
    69  H    0.124254
    70  C   -0.360562
    71  H    0.122054
    72  H    0.116319
    73  H    0.114784
    74  C   -0.364778
    75  H    0.119899
    76  H    0.117116
    77  H    0.116098
 Sum of Mulliken charges =  -0.00000

 Dipole moment (field-independent basis, Debye):
    X=             -0.5035    Y=              0.5470    Z=              1.0493  Tot=              1.2860
 Quadrupole moment (field-independent basis, Debye-Ang):
   XX=           -237.7189   YY=           -247.7715   ZZ=           -269.8912
   XY=             -0.2659   XZ=             -2.6541   YZ=              6.9364

 Summary of Natural Population Analysis:

                                       Natural Population
                Natural  -----------------------------------------------
    Atom  No    Charge         Core      Valence    Rydberg      Total
 -----------------------------------------------------------------------
      P    1    1.51614      9.99826     3.39778    0.08782    13.48386
      P    2    1.50413      9.99821     3.40510    0.09256    13.49587
      O    3   -0.77869      1.99978     6.75173    0.02718     8.77869
      O    4   -0.77079      1.99979     6.74546    0.02554     8.77079
      O    5   -0.78500      1.99975     6.75965    0.02560     8.78500
      O    6   -0.78317      1.99975     6.75708    0.02634     8.78317
      N    7   -1.08320      1.99957     6.04826    0.03537     8.08320
      C    8    0.28881      1.99862     3.68807    0.02450     5.71119
      C    9   -0.23341      1.99904     4.21478    0.01959     6.23341
      H   10    0.22609      0.00000     0.77266    0.00126     0.77391
      C   11   -0.15682      1.99913     4.14001    0.01768     6.15682
      H   12    0.20952      0.00000     0.78917    0.00131     0.79048
      C   13   -0.06812      1.99908     4.04872    0.02032     6.06812
      C   14   -0.17243      1.99912     4.15536    0.01795     6.17243
      H   15    0.20650      0.00000     0.79213    0.00137     0.79350
      C   16   -0.21035      1.99918     4.19195    0.01922     6.21035
      H   17    0.20953      0.00000     0.78931    0.00116     0.79047
      C   18   -0.19606      1.99919     4.17851    0.01836     6.19606
      H   19    0.20956      0.00000     0.78924    0.00119     0.79044
      C   20   -0.18850      1.99911     4.17104    0.01835     6.18850
      H   21    0.21791      0.00000     0.78059    0.00149     0.78209
      C   22   -0.03062      1.99902     4.01244    0.01916     6.03062
      C   23   -0.07109      1.99883     4.05044    0.02181     6.07109
      C   24   -0.07380      1.99883     4.05269    0.02227     6.07380
      C   25   -0.02979      1.99901     4.01158    0.01920     6.02979
      C   26   -0.18779      1.99911     4.17054    0.01814     6.18779
      H   27    0.21923      0.00000     0.77928    0.00149     0.78077
      C   28   -0.19576      1.99919     4.17827    0.01830     6.19576
      H   29    0.21002      0.00000     0.78879    0.00119     0.78998
      C   30   -0.21008      1.99918     4.19178    0.01912     6.21008
      H   31    0.20976      0.00000     0.78909    0.00115     0.79024
      C   32   -0.17339      1.99913     4.15591    0.01835     6.17339
      H   33    0.20643      0.00000     0.79218    0.00140     0.79357
      C   34   -0.07126      1.99907     4.05326    0.01893     6.07126
      C   35   -0.15782      1.99913     4.14132    0.01737     6.15782
      H   36    0.20936      0.00000     0.78932    0.00132     0.79064
      C   37   -0.24096      1.99903     4.22248    0.01945     6.24096
      H   38    0.22078      0.00000     0.77771    0.00151     0.77922
      C   39    0.28365      1.99860     3.69430    0.02345     5.71635
      C   40    0.27254      1.99866     3.70604    0.02276     5.72746
      C   41   -0.25430      1.99901     4.23545    0.01985     6.25430
      H   42    0.21818      0.00000     0.77967    0.00215     0.78182
      C   43   -0.18681      1.99911     4.16982    0.01788     6.18681
      H   44    0.20482      0.00000     0.79376    0.00142     0.79518
      C   45   -0.03645      1.99912     4.01803    0.01930     6.03645
      C   46   -0.18769      1.99911     4.17119    0.01740     6.18769
      H   47    0.20450      0.00000     0.79410    0.00140     0.79550
      C   48   -0.23461      1.99903     4.21565    0.01994     6.23461
      H   49    0.21751      0.00000     0.78042    0.00207     0.78249
      C   50    0.26101      1.99865     3.71435    0.02598     5.73899
      C   51   -0.23294      1.99903     4.21473    0.01917     6.23294
      H   52    0.22138      0.00000     0.77720    0.00142     0.77862
      C   53   -0.19121      1.99911     4.17430    0.01780     6.19121
      H   54    0.20534      0.00000     0.79329    0.00138     0.79466
      C   55   -0.03189      1.99912     4.01362    0.01915     6.03189
      C   56   -0.19216      1.99911     4.17545    0.01761     6.19216
      H   57    0.20430      0.00000     0.79427    0.00144     0.79570
      C   58   -0.23795      1.99902     4.21986    0.01908     6.23795
      H   59    0.22544      0.00000     0.77259    0.00197     0.77456
      C   60   -0.04033      1.99938     4.01747    0.02347     6.04033
      H   61    0.19620      0.00000     0.80067    0.00313     0.80380
      C   62   -0.59878      1.99942     4.58686    0.01251     6.59878
      H   63    0.20869      0.00000     0.79019    0.00111     0.79131
      H   64    0.21182      0.00000     0.78658    0.00160     0.78818
      H   65    0.20700      0.00000     0.79201    0.00099     0.79300
      C   66   -0.60234      1.99941     4.59065    0.01228     6.60234
      H   67    0.21940      0.00000     0.77961    0.00098     0.78060
      H   68    0.20181      0.00000     0.79721    0.00097     0.79819
      H   69    0.21528      0.00000     0.78353    0.00119     0.78472
      C   70   -0.60764      1.99941     4.59656    0.01167     6.60764
      H   71    0.21407      0.00000     0.78463    0.00130     0.78593
      H   72    0.21077      0.00000     0.78809    0.00114     0.78923
      H   73    0.21011      0.00000     0.78880    0.00109     0.78989
      C   74   -0.60760      1.99941     4.59631    0.01188     6.60760
      H   75    0.21250      0.00000     0.78619    0.00131     0.78750
      H   76    0.21112      0.00000     0.78774    0.00114     0.78888
      H   77    0.21042      0.00000     0.78850    0.00109     0.78958
 =======================================================================
   * Total *    0.00000    103.96084   218.97335    1.06581   324.00000

 1\1\GINC-G8NODEC2\SP\RB3LYP\def2TZVP\C37H33N1O4P2\ROOT\06-Nov-2024\0\\
 # nmr=giao b3lyp/def2TZVP pop=nbo scfcyc=200\\Ligand 35 SPE NoRh\\0,1\
 P,0,-0.57,-0.014,-0.279\P,0,1.917,-0.65,-0.751\O,0,-1.615,0.508,-1.443
 \O,0,-1.597,-0.719,0.794\O,0,2.794,-1.922,-0.186\O,0,2.583,-0.541,-2.2
 39\N,0,0.33,-1.182,-1.137\C,0,-2.695,1.303,-1.025\C,0,-2.635,2.673,-1.
 337\H,0,-1.791,3.043,-1.904\C,0,-3.652,3.494,-0.937\H,0,-3.632,4.549,-
 1.185\C,0,-4.734,2.988,-0.175\C,0,-5.753,3.845,0.309\H,0,-5.707,4.898,
 0.058\C,0,-6.767,3.361,1.092\H,0,-7.538,4.026,1.461\C,0,-6.8,1.992,1.4

 Normal termination of Gaussian 16 at Wed Nov  6 17:21:52 2024.
