 Gaussian 16, Revision B.01,
 Gaussian 16:  ES64L-G16RevB.01 20-Dec-2017

 --------------------------------------------
 # nmr=giao b3lyp/def2TZVP pop=nbo scfcyc=200
 --------------------------------------------

 -------------------
 Ligand 37c SPE NoRh
 -------------------
 Symbolic Z-matrix:
 Charge =  0 Multiplicity = 1

                         Standard orientation:
 ---------------------------------------------------------------------
 Center     Atomic      Atomic             Coordinates (Angstroms)
 Number     Number       Type             X           Y           Z
 ---------------------------------------------------------------------
      1         15           0       -0.938253   -0.454454   -0.463802
      2         15           0        1.594851   -0.389316    0.160698
      3          8           0       -1.924569   -1.736589   -0.140612
      4          8           0       -2.008091    0.794480   -0.449793
      5          8           0        2.482133    0.837110    0.802443
      6          8           0        2.347928   -1.640486    0.893110
      7          7           0        0.056215   -0.437517    0.921924
      8          6           0       -3.055450   -1.898249   -0.957022
      9          6           0       -3.022793   -2.950226   -1.889413
     10          1           0       -2.155980   -3.598627   -1.914248
     11          6           0       -4.091445   -3.138808   -2.720714
     12          1           0       -4.091432   -3.956149   -3.431823
     13          6           0       -5.201515   -2.260816   -2.682759
     14          6           0       -6.278435   -2.402151   -3.592935
     15          1           0       -6.253321   -3.220765   -4.302214
     16          6           0       -7.324955   -1.517277   -3.589609
     17          1           0       -8.140141   -1.631897   -4.293039
     18          6           0       -7.331279   -0.443760   -2.675563
     19          1           0       -8.147578    0.267999   -2.693519
     20          6           0       -6.314455   -0.287829   -1.768119
     21          1           0       -6.337415    0.543600   -1.079459
     22          6           0       -5.226914   -1.196931   -1.724167
     23          6           0       -4.141118   -1.063483   -0.793668
     24          6           0       -4.143724   -0.056242    0.300876
     25          6           0       -5.188048   -0.003288    1.288475
     26          6           0       -6.208123   -0.984551    1.376832
     27          1           0       -6.208384   -1.812601    0.683337
     28          6           0       -7.185438   -0.906031    2.337413
     29          1           0       -7.947607   -1.673682    2.388751
     30          6           0       -7.205335    0.157139    3.262670
     31          1           0       -7.988285    0.209672    4.008129
     32          6           0       -6.222271    1.111733    3.222984
     33          1           0       -6.214981    1.922715    3.941525
     34          6           0       -5.187008    1.050963    2.257517
     35          6           0       -4.136345    1.999631    2.252634
     36          1           0       -4.150893    2.805592    2.975958
     37          6           0       -3.100866    1.889705    1.365324
     38          1           0       -2.276762    2.590794    1.364635
     39          6           0       -3.108685    0.846489    0.422075
     40          6           0        2.567717    2.126094    0.260400
     41          6           0        1.452382    2.931878    0.102336
     42          1           0        0.468966    2.567883    0.365158
     43          6           0        1.611580    4.230088   -0.384527
     44          1           0        0.726485    4.839940   -0.493664
     45          6           0        2.866473    4.748496   -0.708395
     46          6           0        3.969391    3.901022   -0.531415
     47          1           0        4.965260    4.256590   -0.761073
     48          6           0        3.831784    2.605037   -0.054446
     49          1           0        4.696037    1.968136    0.084591
     50          6           0        3.646674   -2.068849    0.560244
     51          6           0        3.790029   -3.190077   -0.238635
     52          1           0        2.911789   -3.693261   -0.622273
     53          6           0        5.067936   -3.672545   -0.515641
     54          1           0        5.154778   -4.553281   -1.135012
     55          6           0        6.212019   -3.057585   -0.001163
     56          6           0        6.020291   -1.931542    0.812098
     57          1           0        6.875792   -1.430213    1.246771
     58          6           0        4.756018   -1.435647    1.101056
     59          1           0        4.628126   -0.576601    1.745436
     60          6           0        7.636204   -4.807834   -1.192273
     61          1           0        7.196073   -4.595229   -2.169825
     62          1           0        7.100527   -5.649021   -0.747301
     63          1           0        8.664626   -5.131450   -1.362553
     64          6           0       -0.345854   -0.627628    2.355856
     65          1           0       -1.393637   -0.324369    2.387935
     66          6           0        0.445039    0.299205    3.276383
     67          1           0        0.352760    1.342810    2.974873
     68          1           0        1.503442    0.037813    3.296605
     69          1           0        0.058783    0.204688    4.292692
     70          6           0       -0.252701   -2.093417    2.778592
     71          1           0       -0.833195   -2.730783    2.111743
     72          1           0       -0.653329   -2.202595    3.788944
     73          1           0        0.781354   -2.436958    2.780571
     74          6           0        7.632883   -3.573221   -0.277891
     75          6           0        8.305313   -3.959083    1.057966
     76          1           0        8.383131   -3.109047    1.736850
     77          1           0        7.742853   -4.744585    1.567487
     78          1           0        9.315918   -4.331153    0.876516
     79          6           0        8.456694   -2.461509   -0.963315
     80          1           0        8.007243   -2.168827   -1.914186
     81          1           0        8.537274   -1.569247   -0.339959
     82          1           0        9.470490   -2.815774   -1.165229
     83          6           0        3.071200    6.180641   -1.224968
     84          6           0        3.742072    6.135694   -2.615278
     85          1           0        3.898515    7.149273   -2.991248
     86          1           0        4.714443    5.642370   -2.584504
     87          1           0        3.115747    5.602923   -3.335975
     88          6           0        3.981980    6.950988   -0.243977
     89          1           0        4.963533    6.484952   -0.146397
     90          1           0        4.134536    7.973666   -0.596364
     91          1           0        3.533570    6.999937    0.750834
     92          6           0        1.746675    6.948937   -1.355136
     93          1           0        1.062330    6.470040   -2.060047
     94          1           0        1.236987    7.050777   -0.394524
     95          1           0        1.944297    7.956030   -1.727200
 ---------------------------------------------------------------------

 SCF Done:  E(RB3LYP) =  -2704.95739863     A.U. after   15 cycles

      1  P    Isotropic =   111.9187   Anisotropy =   193.5053

      2  P    Isotropic =   112.1517   Anisotropy =   229.7401

      3  O    Isotropic =   145.1312   Anisotropy =    64.9236

      4  O    Isotropic =   138.0665   Anisotropy =    61.0115

      5  O    Isotropic =   137.6607   Anisotropy =    93.4151

      6  O    Isotropic =   149.6056   Anisotropy =    65.3888

      7  N    Isotropic =    66.6581   Anisotropy =   105.3708

      8  C    Isotropic =    23.1785   Anisotropy =   114.0052

      9  C    Isotropic =    56.7881   Anisotropy =   148.2896

     10  H    Isotropic =    24.0006   Anisotropy =     8.1383

     11  C    Isotropic =    47.5361   Anisotropy =   159.4987

     12  H    Isotropic =    23.6356   Anisotropy =     7.3226

     13  C    Isotropic =    44.6260   Anisotropy =   212.4995

     14  C    Isotropic =    49.2291   Anisotropy =   161.5296

     15  H    Isotropic =    23.6749   Anisotropy =     7.4051

     16  C    Isotropic =    54.0570   Anisotropy =   177.8439

     17  H    Isotropic =    24.2371   Anisotropy =     4.6642

     18  C    Isotropic =    52.5495   Anisotropy =   180.8429

     19  H    Isotropic =    24.4250   Anisotropy =     7.8440

     20  C    Isotropic =    50.1160   Anisotropy =   178.7090

     21  H    Isotropic =    24.4430   Anisotropy =    14.7779

     22  C    Isotropic =    42.3986   Anisotropy =   205.7064

     23  C    Isotropic =    51.9264   Anisotropy =   137.5967

     24  C    Isotropic =    52.4376   Anisotropy =   140.9155

     25  C    Isotropic =    42.2918   Anisotropy =   206.4975

     26  C    Isotropic =    49.4491   Anisotropy =   179.2950

     27  H    Isotropic =    24.3956   Anisotropy =    14.2092

     28  C    Isotropic =    52.5117   Anisotropy =   182.0084

     29  H    Isotropic =    24.4177   Anisotropy =     7.5897

     30  C    Isotropic =    54.1278   Anisotropy =   178.6854

     31  H    Isotropic =    24.2289   Anisotropy =     4.6903

     32  C    Isotropic =    49.3159   Anisotropy =   161.3580

     33  H    Isotropic =    23.6642   Anisotropy =     7.6935

     34  C    Isotropic =    44.9442   Anisotropy =   212.6745

     35  C    Isotropic =    48.0360   Anisotropy =   159.6145

     36  H    Isotropic =    23.6418   Anisotropy =     7.7205

     37  C    Isotropic =    56.8780   Anisotropy =   147.8442

     38  H    Isotropic =    23.8384   Anisotropy =     6.5788

     39  C    Isotropic =    22.7244   Anisotropy =   129.8554

     40  C    Isotropic =    22.5456   Anisotropy =   116.2131

     41  C    Isotropic =    59.5017   Anisotropy =   151.9653

     42  H    Isotropic =    24.1680   Anisotropy =     7.7819

     43  C    Isotropic =    52.7564   Anisotropy =   172.8418

     44  H    Isotropic =    24.3299   Anisotropy =    13.0276

     45  C    Isotropic =    29.4618   Anisotropy =   198.8890

     46  C    Isotropic =    49.3193   Anisotropy =   179.4625

     47  H    Isotropic =    24.3289   Anisotropy =    11.0864

     48  C    Isotropic =    57.5295   Anisotropy =   149.6714

     49  H    Isotropic =    24.6892   Anisotropy =     8.4664

     50  C    Isotropic =    22.5785   Anisotropy =   113.6501

     51  C    Isotropic =    56.6901   Anisotropy =   149.9995

     52  H    Isotropic =    24.5075   Anisotropy =     8.5976

     53  C    Isotropic =    52.4204   Anisotropy =   173.2788

     54  H    Isotropic =    24.3544   Anisotropy =    11.5209

     55  C    Isotropic =    28.2772   Anisotropy =   200.7660

     56  C    Isotropic =    49.9588   Anisotropy =   178.3782

     57  H    Isotropic =    24.1926   Anisotropy =    11.4048

     58  C    Isotropic =    55.3145   Anisotropy =   156.5842

     59  H    Isotropic =    24.1334   Anisotropy =     9.7250

     60  C    Isotropic =   153.0954   Anisotropy =    36.8138

     61  H    Isotropic =    30.3477   Anisotropy =     7.7894

     62  H    Isotropic =    30.3430   Anisotropy =     8.0864

     63  H    Isotropic =    30.8400   Anisotropy =     8.4049

     64  C    Isotropic =   123.8254   Anisotropy =    40.6678

     65  H    Isotropic =    28.4240   Anisotropy =    11.5817

     66  C    Isotropic =   159.5917   Anisotropy =    30.3210

     67  H    Isotropic =    30.1809   Anisotropy =     5.1065

     68  H    Isotropic =    29.9521   Anisotropy =     6.5478

     69  H    Isotropic =    31.0616   Anisotropy =     8.9722

     70  C    Isotropic =   156.7131   Anisotropy =    38.3791

     71  H    Isotropic =    30.2306   Anisotropy =     5.2021

     72  H    Isotropic =    31.3870   Anisotropy =     8.9810

     73  H    Isotropic =    30.1797   Anisotropy =     6.6879

     74  C    Isotropic =   141.7844   Anisotropy =    13.8785

     75  C    Isotropic =   148.7644   Anisotropy =    46.6357

     76  H    Isotropic =    30.3188   Anisotropy =     6.9813

     77  H    Isotropic =    30.8037   Anisotropy =     7.7086

     78  H    Isotropic =    30.7738   Anisotropy =     9.3815

     79  C    Isotropic =   149.0502   Anisotropy =    46.1708

     80  H    Isotropic =    30.7829   Anisotropy =     7.2699

     81  H    Isotropic =    30.2721   Anisotropy =     7.2838

     82  H    Isotropic =    30.7556   Anisotropy =     9.1814

     83  C    Isotropic =   142.4427   Anisotropy =    13.1906

     84  C    Isotropic =   149.2268   Anisotropy =    46.0286

     85  H    Isotropic =    30.8445   Anisotropy =     9.3705

     86  H    Isotropic =    30.4041   Anisotropy =     7.3346

     87  H    Isotropic =    30.8506   Anisotropy =     7.3089

     88  C    Isotropic =   148.6324   Anisotropy =    46.7836

     89  H    Isotropic =    30.3426   Anisotropy =     7.3588

     90  H    Isotropic =    30.7836   Anisotropy =     9.5102

     91  H    Isotropic =    30.8117   Anisotropy =     7.5364

     92  C    Isotropic =   153.0882   Anisotropy =    36.4706

     93  H    Isotropic =    30.3649   Anisotropy =     7.5858

     94  H    Isotropic =    30.3571   Anisotropy =     7.7355

     95  H    Isotropic =    30.8607   Anisotropy =     8.2832

 The electronic state is 1-A.
 Alpha  occ. eigenvalues --  -77.12443 -77.12343 -19.15627 -19.15479 -19.14965
 Alpha  occ. eigenvalues --  -19.14754 -14.32902 -10.24423 -10.24415 -10.23459
 Alpha  occ. eigenvalues --  -10.23448 -10.21638 -10.19823 -10.19763 -10.19648
 Alpha  occ. eigenvalues --  -10.19554 -10.19307 -10.19258 -10.19163 -10.19046
 Alpha  occ. eigenvalues --  -10.18815 -10.18542 -10.18533 -10.18267 -10.18266
 Alpha  occ. eigenvalues --  -10.18076 -10.18054 -10.18053 -10.17992 -10.17895
 Alpha  occ. eigenvalues --  -10.17870 -10.17828 -10.17802 -10.17704 -10.17546
 Alpha  occ. eigenvalues --  -10.17466 -10.17428 -10.17407 -10.17388 -10.17362
 Alpha  occ. eigenvalues --  -10.17288 -10.17251 -10.16111 -10.16086 -10.16060
 Alpha  occ. eigenvalues --  -10.16057 -10.15964 -10.15960 -10.15887 -10.15398
 Alpha  occ. eigenvalues --   -6.59824  -6.59763  -4.76041  -4.76031  -4.76011
 Alpha  occ. eigenvalues --   -4.75928  -4.75448  -4.75349  -1.07504  -1.06458
 Alpha  occ. eigenvalues --   -1.03589  -1.03163  -0.91045  -0.89130  -0.87911
 Alpha  occ. eigenvalues --   -0.86436  -0.86227  -0.83613  -0.82686  -0.81836
 Alpha  occ. eigenvalues --   -0.81568  -0.80541  -0.77948  -0.76894  -0.75242
 Alpha  occ. eigenvalues --   -0.75206  -0.75089  -0.74627  -0.74254  -0.73907
 Alpha  occ. eigenvalues --   -0.73060  -0.71633  -0.69044  -0.68916  -0.68867
 Alpha  occ. eigenvalues --   -0.68866  -0.68711  -0.66862  -0.65322  -0.63799
 Alpha  occ. eigenvalues --   -0.63322  -0.62004  -0.61808  -0.61748  -0.61509
 Alpha  occ. eigenvalues --   -0.61114  -0.60849  -0.59126  -0.58477  -0.56860
 Alpha  occ. eigenvalues --   -0.55349  -0.55273  -0.54754  -0.53987  -0.53600
 Alpha  occ. eigenvalues --   -0.52897  -0.51742  -0.51074  -0.50256  -0.49480
 Alpha  occ. eigenvalues --   -0.48440  -0.48191  -0.47828  -0.47513  -0.47413
 Alpha  occ. eigenvalues --   -0.46873  -0.46701  -0.45851  -0.45566  -0.45170
 Alpha  occ. eigenvalues --   -0.44792  -0.44642  -0.44409  -0.44298  -0.44212
 Alpha  occ. eigenvalues --   -0.43969  -0.43472  -0.43392  -0.43241  -0.43130
 Alpha  occ. eigenvalues --   -0.43034  -0.42869  -0.42655  -0.42449  -0.42362
 Alpha  occ. eigenvalues --   -0.42117  -0.41430  -0.40506  -0.40182  -0.40158
 Alpha  occ. eigenvalues --   -0.39854  -0.39850  -0.39696  -0.39548  -0.39039
 Alpha  occ. eigenvalues --   -0.38709  -0.38536  -0.38180  -0.38127  -0.37075
 Alpha  occ. eigenvalues --   -0.37057  -0.36957  -0.36891  -0.36309  -0.35994
 Alpha  occ. eigenvalues --   -0.35960  -0.35676  -0.35347  -0.35327  -0.35188
 Alpha  occ. eigenvalues --   -0.34547  -0.33943  -0.33752  -0.33548  -0.33401
 Alpha  occ. eigenvalues --   -0.33245  -0.32976  -0.32896  -0.32610  -0.32480
 Alpha  occ. eigenvalues --   -0.32229  -0.31874  -0.31643  -0.30159  -0.28984
 Alpha  occ. eigenvalues --   -0.27876  -0.26765  -0.25874  -0.25722  -0.25274
 Alpha  occ. eigenvalues --   -0.25053  -0.24167  -0.23620  -0.23057  -0.21961
 Alpha  occ. eigenvalues --   -0.20095
 Alpha virt. eigenvalues --   -0.06182  -0.05014  -0.02735  -0.02192  -0.01810
 Alpha virt. eigenvalues --   -0.01599  -0.00778  -0.00441   0.00427   0.01600
 Alpha virt. eigenvalues --    0.01822   0.02614   0.02818   0.02986   0.03666

 Mulliken charges:
               1
     1  P    0.451811
     2  P    0.449035
     3  O   -0.371415
     4  O   -0.345012
     5  O   -0.368522
     6  O   -0.363055
     7  N   -0.213838
     8  C    0.293215
     9  C   -0.238684
    10  H    0.114195
    11  C   -0.171045
    12  H    0.102908
    13  C    0.158062
    14  C   -0.158830
    15  H    0.101329
    16  C   -0.108713
    17  H    0.107702
    18  C   -0.101396
    19  H    0.109517
    20  C   -0.180616
    21  H    0.133843
    22  C   -0.107083
    23  C    0.130650
    24  C    0.164531
    25  C   -0.104024
    26  C   -0.176924
    27  H    0.136727
    28  C   -0.103091
    29  H    0.110484
    30  C   -0.107685
    31  H    0.108286
    32  C   -0.161907
    33  H    0.101492
    34  C    0.158733
    35  C   -0.176720
    36  H    0.103650
    37  C   -0.216037
    38  H    0.121084
    39  C    0.155434
    40  C    0.287713
    41  C   -0.208104
    42  H    0.150805
    43  C   -0.206830
    44  H    0.116918
    45  C    0.205240
    46  C   -0.183808
    47  H    0.105060
    48  C   -0.229715
    49  H    0.117034
    50  C    0.308605
    51  C   -0.234697
    52  H    0.109371
    53  C   -0.151782
    54  H    0.118721
    55  C    0.188604
    56  C   -0.171902
    57  H    0.107107
    58  C   -0.242144
    59  H    0.121808
    60  C   -0.384056
    61  H    0.119548
    62  H    0.117418
    63  H    0.112669
    64  C    0.007132
    65  H    0.097457
    66  C   -0.331966
    67  H    0.110721
    68  H    0.123268
    69  H    0.108916
    70  C   -0.347783
    71  H    0.127675
    72  H    0.098731
    73  H    0.124167
    74  C    0.086693
    75  C   -0.340315
    76  H    0.105738
    77  H    0.113615
    78  H    0.105131
    79  C   -0.340616
    80  H    0.114960
    81  H    0.104658
    82  H    0.105036
    83  C    0.083675
    84  C   -0.341227
    85  H    0.104485
    86  H    0.105374
    87  H    0.115923
    88  C   -0.340606
    89  H    0.105146
    90  H    0.104735
    91  H    0.112194
    92  C   -0.383722
    93  H    0.121282
    94  H    0.115439
    95  H    0.112412
 Sum of Mulliken charges =  -0.00000

 Dipole moment (field-independent basis, Debye):
    X=             -0.4940    Y=              0.2492    Z=              1.0919  Tot=              1.2241
 Quadrupole moment (field-independent basis, Debye-Ang):
   XX=           -277.4563   YY=           -292.8344   ZZ=           -306.1141
   XY=             -0.1029   XZ=             -3.0376   YZ=             10.5107

 Summary of Natural Population Analysis:

                                       Natural Population
                Natural  -----------------------------------------------
    Atom  No    Charge         Core      Valence    Rydberg      Total
 -----------------------------------------------------------------------
      P    1    1.51595      9.99826     3.39811    0.08768    13.48405
      P    2    1.50586      9.99821     3.40441    0.09152    13.49414
      O    3   -0.77863      1.99978     6.75172    0.02714     8.77863
      O    4   -0.77037      1.99979     6.74501    0.02557     8.77037
      O    5   -0.78525      1.99975     6.75999    0.02550     8.78525
      O    6   -0.78376      1.99975     6.75705    0.02695     8.78376
      N    7   -1.08312      1.99957     6.04824    0.03531     8.08312
      C    8    0.28928      1.99862     3.68762    0.02448     5.71072
      C    9   -0.23343      1.99904     4.21478    0.01960     6.23343
      H   10    0.22614      0.00000     0.77260    0.00126     0.77386
      C   11   -0.15701      1.99913     4.14018    0.01769     6.15701
      H   12    0.20949      0.00000     0.78919    0.00131     0.79051
      C   13   -0.06835      1.99908     4.04895    0.02032     6.06835
      C   14   -0.17203      1.99913     4.15498    0.01792     6.17203
      H   15    0.20640      0.00000     0.79223    0.00137     0.79360
      C   16   -0.21059      1.99918     4.19220    0.01921     6.21059
      H   17    0.20956      0.00000     0.78928    0.00116     0.79044
      C   18   -0.19618      1.99919     4.17861    0.01837     6.19618
      H   19    0.20946      0.00000     0.78935    0.00119     0.79054
      C   20   -0.18848      1.99911     4.17102    0.01835     6.18848
      H   21    0.21792      0.00000     0.78059    0.00149     0.78208
      C   22   -0.03046      1.99902     4.01228    0.01916     6.03046
      C   23   -0.07146      1.99884     4.05081    0.02182     6.07146
      C   24   -0.07426      1.99883     4.05315    0.02228     6.07426
      C   25   -0.02907      1.99902     4.01086    0.01919     6.02907
      C   26   -0.18819      1.99911     4.17092    0.01816     6.18819
      H   27    0.21932      0.00000     0.77919    0.00149     0.78068
      C   28   -0.19562      1.99919     4.17813    0.01831     6.19562
      H   29    0.20988      0.00000     0.78893    0.00119     0.79012
      C   30   -0.21038      1.99918     4.19209    0.01911     6.21038
      H   31    0.20981      0.00000     0.78904    0.00115     0.79019
      C   32   -0.17307      1.99913     4.15559    0.01835     6.17307
      H   33    0.20632      0.00000     0.79228    0.00140     0.79368
      C   34   -0.07180      1.99907     4.05379    0.01893     6.07180
      C   35   -0.15795      1.99913     4.14145    0.01736     6.15795
      H   36    0.20931      0.00000     0.78936    0.00133     0.79069
      C   37   -0.24072      1.99904     4.22227    0.01941     6.24072
      H   38    0.22070      0.00000     0.77780    0.00150     0.77930
      C   39    0.28388      1.99860     3.69408    0.02344     5.71612
      C   40    0.27406      1.99864     3.70328    0.02402     5.72594
      C   41   -0.25416      1.99901     4.23630    0.01884     6.25416
      H   42    0.21780      0.00000     0.78046    0.00174     0.78220
      C   43   -0.19446      1.99911     4.17780    0.01755     6.19446
      H   44    0.21007      0.00000     0.78855    0.00138     0.78993
      C   45   -0.02025      1.99903     3.99772    0.02349     6.02025
      C   46   -0.18921      1.99910     4.17345    0.01666     6.18921
      H   47    0.20211      0.00000     0.79599    0.00190     0.79789
      C   48   -0.23490      1.99903     4.21723    0.01864     6.23490
      H   49    0.21759      0.00000     0.78062    0.00179     0.78241
      C   50    0.26349      1.99863     3.71283    0.02504     5.73651
      C   51   -0.23342      1.99904     4.21498    0.01941     6.23342
      H   52    0.22074      0.00000     0.77795    0.00131     0.77926
      C   53   -0.19960      1.99911     4.18256    0.01794     6.19960
      H   54    0.21051      0.00000     0.78812    0.00136     0.78949
      C   55   -0.01535      1.99903     3.99281    0.02352     6.01535
      C   56   -0.19352      1.99910     4.17771    0.01672     6.19352
      H   57    0.20189      0.00000     0.79619    0.00192     0.79811
      C   58   -0.23900      1.99901     4.22155    0.01844     6.23900
      H   59    0.22540      0.00000     0.77282    0.00178     0.77460
      C   60   -0.59258      1.99940     4.58048    0.01269     6.59258
      H   61    0.20519      0.00000     0.79359    0.00122     0.79481
      H   62    0.20431      0.00000     0.79445    0.00124     0.79569
      H   63    0.20576      0.00000     0.79309    0.00115     0.79424
      C   64   -0.04046      1.99939     4.01764    0.02343     6.04046
      H   65    0.19622      0.00000     0.80066    0.00312     0.80378
      C   66   -0.59878      1.99942     4.58687    0.01249     6.59878
      H   67    0.20868      0.00000     0.79020    0.00112     0.79132
      H   68    0.21184      0.00000     0.78657    0.00159     0.78816
      H   69    0.20694      0.00000     0.79207    0.00099     0.79306
      C   70   -0.60238      1.99941     4.59071    0.01226     6.60238
      H   71    0.21955      0.00000     0.77947    0.00098     0.78045
      H   72    0.20178      0.00000     0.79725    0.00097     0.79822
      H   73    0.21537      0.00000     0.78347    0.00116     0.78463
      C   74   -0.05869      1.99938     4.04340    0.01591     6.05869
      C   75   -0.58114      1.99939     4.56967    0.01208     6.58114
      H   76    0.20151      0.00000     0.79747    0.00103     0.79849
      H   77    0.20613      0.00000     0.79278    0.00109     0.79387
      H   78    0.19973      0.00000     0.79900    0.00127     0.80027
      C   79   -0.58131      1.99939     4.56983    0.01210     6.58131
      H   80    0.20671      0.00000     0.79220    0.00109     0.79329
      H   81    0.20119      0.00000     0.79779    0.00102     0.79881
      H   82    0.19970      0.00000     0.79904    0.00126     0.80030
      C   83   -0.05818      1.99938     4.04273    0.01606     6.05818
      C   84   -0.58154      1.99939     4.57004    0.01211     6.58154
      H   85    0.19931      0.00000     0.79943    0.00126     0.80069
      H   86    0.20140      0.00000     0.79757    0.00103     0.79860
      H   87    0.20731      0.00000     0.79161    0.00108     0.79269
      C   88   -0.58109      1.99939     4.56961    0.01209     6.58109
      H   89    0.20128      0.00000     0.79768    0.00104     0.79872
      H   90    0.19951      0.00000     0.79922    0.00128     0.80049
      H   91    0.20541      0.00000     0.79348    0.00110     0.79459
      C   92   -0.59252      1.99940     4.58042    0.01270     6.59252
      H   93    0.20587      0.00000     0.79292    0.00121     0.79413
      H   94    0.20349      0.00000     0.79526    0.00125     0.79651
      H   95    0.20557      0.00000     0.79327    0.00115     0.79443
 =======================================================================
   * Total *    0.00000    115.95692   254.87804    1.16505   372.00000

 1\1\GINC-G4NODEC3\SP\RB3LYP\def2TZVP\C43H45N1O4P2\ROOT\06-Nov-2024\0\\
 # nmr=giao b3lyp/def2TZVP pop=nbo scfcyc=200\\Ligand 37c SPE NoRh\\0,1
 \P,0,1.17,-0.405,-0.198\P,0,-1.332,-0.295,-0.932\O,0,2.162,-1.681,-0.5
 28\O,0,2.247,0.835,-0.114\O,0,-2.182,0.963,-1.563\O,0,-2.059,-1.51,-1.
 747\N,0,0.239,-0.325,-1.625\C,0,3.254,-1.884,0.331\C,0,3.173,-2.972,1.
 218\H,0,2.302,-3.614,1.178\C,0,4.202,-3.202,2.088\H,0,4.165,-4.047,2.7
 65\C,0,5.318,-2.332,2.135\C,0,6.352,-2.518,3.086\H,0,6.29,-3.364,3.76\
 C,0,7.403,-1.642,3.165\H,0,8.185,-1.791,3.899\C,0,7.457,-0.533,2.296\H

 Normal termination of Gaussian 16 at Wed Nov  6 17:43:05 2024.
