 Gaussian 16, Revision B.01,
 Gaussian 16:  ES64L-G16RevB.01 20-Dec-2017

 --------------------------------------------
 # nmr=giao b3lyp/def2TZVP pop=nbo scfcyc=200
 --------------------------------------------

 ------------------
 Ligand 39 SPE NoRh
 ------------------
 Symbolic Z-matrix:
 Charge =  0 Multiplicity = 1

                         Standard orientation:
 ---------------------------------------------------------------------
 Center     Atomic      Atomic             Coordinates (Angstroms)
 Number     Number       Type             X           Y           Z
 ---------------------------------------------------------------------
      1         15           0        1.289015   -1.499705    0.042152
      2         15           0       -1.288892   -1.500666   -0.043680
      3          8           0        2.167576   -1.142944    1.356181
      4          8           0        2.159373   -0.870496   -1.187781
      5          8           0       -2.168447   -1.143427   -1.356585
      6          8           0       -2.158239   -0.870875    1.187476
      7          6           0        2.842468    0.097031    1.465141
      8          6           0        2.373384    0.968860    2.458780
      9          1           0        1.543698    0.662758    3.079815
     10          6           0        2.981227    2.183828    2.611662
     11          1           0        2.642391    2.869696    3.378411
     12          6           0        4.036175    2.579969    1.752890
     13          6           0        4.619071    3.866945    1.858757
     14          1           0        4.266223    4.532812    2.636487
     15          6           0        5.596033    4.271090    0.986901
     16          1           0        6.029948    5.259071    1.073552
     17          6           0        6.024151    3.403267   -0.037782
     18          1           0        6.776928    3.736384   -0.740897
     19          6           0        5.494270    2.143292   -0.156586
     20          1           0        5.831142    1.497430   -0.955330
     21          6           0        4.500279    1.679143    0.741241
     22          6           0        3.914373    0.370165    0.644366
     23          6           0        4.399431   -0.647668   -0.327280
     24          6           0        5.761456   -1.105676   -0.352865
     25          6           0        6.708372   -0.738859    0.637241
     26          1           0        6.404488   -0.091998    1.447022
     27          6           0        8.000425   -1.200861    0.585579
     28          1           0        8.702580   -0.912003    1.357402
     29          6           0        8.421564   -2.049681   -0.458108
     30          1           0        9.446597   -2.396685   -0.490043
     31          6           0        7.528616   -2.443504   -1.419159
     32          1           0        7.836486   -3.109366   -2.215939
     33          6           0        6.181584   -2.002497   -1.386562
     34          6           0        5.241633   -2.451320   -2.345674
     35          1           0        5.573500   -3.109183   -3.140426
     36          6           0        3.927544   -2.079323   -2.263052
     37          1           0        3.190325   -2.423190   -2.976923
     38          6           0        3.528426   -1.205500   -1.238336
     39          6           0       -2.843316    0.097598   -1.465108
     40          6           0       -2.374215    0.968769   -2.459440
     41          1           0       -1.544535    0.662871   -3.080582
     42          6           0       -2.982038    2.184801   -2.610893
     43          1           0       -2.643188    2.869933   -3.378401
     44          6           0       -4.035978    2.579660   -1.752981
     45          6           0       -4.619850    3.866683   -1.858396
     46          1           0       -4.266990    4.533817   -2.635892
     47          6           0       -5.595805    4.271539   -0.986397
     48          1           0       -6.029703    5.259558   -1.071700
     49          6           0       -6.023939    3.403362    0.037981
     50          1           0       -6.775710    3.736245    0.742214
     51          6           0       -5.494082    2.142336    0.157341
     52          1           0       -5.830965    1.497199    0.955858
     53          6           0       -4.500097    1.679486   -0.741649
     54          6           0       -3.914216    0.370463   -0.644236
     55          6           0       -4.399293   -0.647703    0.327053
     56          6           0       -5.761326   -1.105696    0.352475
     57          6           0       -6.709237   -0.738513   -0.636502
     58          1           0       -6.405341   -0.092373   -1.446055
     59          6           0       -8.000298   -1.200510   -0.585002
     60          1           0       -8.703449   -0.911368   -1.355724
     61          6           0       -8.421454   -2.049690    0.459386
     62          1           0       -9.446493   -2.396687    0.491199
     63          6           0       -7.527513   -2.443868    1.420300
     64          1           0       -7.835394   -3.110005    2.216845
     65          6           0       -6.181471   -2.002874    1.386856
     66          6           0       -5.241528   -2.452051    2.345811
     67          1           0       -5.572408   -3.110188    3.140332
     68          6           0       -3.927434   -2.080049    2.263320
     69          1           0       -3.189219   -2.423181    2.976071
     70          6           0       -3.528299   -1.204872    1.237912
     71          8           0        0.000072   -0.433685   -0.001076
 ---------------------------------------------------------------------

 SCF Done:  E(RB3LYP) =  -2598.44516830     A.U. after   15 cycles

      1  P    Isotropic =   105.3405   Anisotropy =   227.4944

      2  P    Isotropic =   105.3082   Anisotropy =   227.5229

      3  O    Isotropic =   135.4306   Anisotropy =    70.0430

      4  O    Isotropic =   134.4688   Anisotropy =    83.1322

      5  O    Isotropic =   135.3412   Anisotropy =    69.7820

      6  O    Isotropic =   134.1839   Anisotropy =    82.9885

      7  C    Isotropic =    24.5075   Anisotropy =   122.7033

      8  C    Isotropic =    56.9833   Anisotropy =   152.6915

      9  H    Isotropic =    24.1432   Anisotropy =     6.5134

     10  C    Isotropic =    47.7390   Anisotropy =   160.9508

     11  H    Isotropic =    23.8140   Anisotropy =     7.2320

     12  C    Isotropic =    44.5195   Anisotropy =   214.2404

     13  C    Isotropic =    49.4365   Anisotropy =   162.0922

     14  H    Isotropic =    23.7632   Anisotropy =     7.4693

     15  C    Isotropic =    54.1617   Anisotropy =   178.9856

     16  H    Isotropic =    24.2744   Anisotropy =     4.6268

     17  C    Isotropic =    52.5286   Anisotropy =   181.3373

     18  H    Isotropic =    24.4465   Anisotropy =     7.5165

     19  C    Isotropic =    49.8595   Anisotropy =   179.6940

     20  H    Isotropic =    24.4492   Anisotropy =    14.2484

     21  C    Isotropic =    42.6976   Anisotropy =   206.0883

     22  C    Isotropic =    52.1786   Anisotropy =   140.0344

     23  C    Isotropic =    51.1780   Anisotropy =   137.9480

     24  C    Isotropic =    42.0249   Anisotropy =   205.9044

     25  C    Isotropic =    49.6119   Anisotropy =   179.2485

     26  H    Isotropic =    24.3873   Anisotropy =    14.7584

     27  C    Isotropic =    52.1212   Anisotropy =   181.2358

     28  H    Isotropic =    24.4091   Anisotropy =     7.7697

     29  C    Isotropic =    53.9455   Anisotropy =   178.8492

     30  H    Isotropic =    24.2074   Anisotropy =     4.6488

     31  C    Isotropic =    49.4291   Anisotropy =   161.8612

     32  H    Isotropic =    23.6503   Anisotropy =     7.3261

     33  C    Isotropic =    44.3925   Anisotropy =   213.3762

     34  C    Isotropic =    47.4291   Anisotropy =   160.3030

     35  H    Isotropic =    23.6014   Anisotropy =     7.1216

     36  C    Isotropic =    57.3337   Anisotropy =   149.5619

     37  H    Isotropic =    24.0038   Anisotropy =     7.7336

     38  C    Isotropic =    25.1383   Anisotropy =   108.7122

     39  C    Isotropic =    24.4978   Anisotropy =   122.4883

     40  C    Isotropic =    56.9108   Anisotropy =   152.7928

     41  H    Isotropic =    24.1395   Anisotropy =     6.5176

     42  C    Isotropic =    47.7937   Anisotropy =   161.0178

     43  H    Isotropic =    23.8114   Anisotropy =     7.2399

     44  C    Isotropic =    44.7599   Anisotropy =   214.0441

     45  C    Isotropic =    49.4174   Anisotropy =   161.9735

     46  H    Isotropic =    23.7622   Anisotropy =     7.4561

     47  C    Isotropic =    54.1862   Anisotropy =   178.9021

     48  H    Isotropic =    24.2718   Anisotropy =     4.6249

     49  C    Isotropic =    52.3479   Anisotropy =   181.5609

     50  H    Isotropic =    24.4467   Anisotropy =     7.5331

     51  C    Isotropic =    49.7137   Anisotropy =   179.8469

     52  H    Isotropic =    24.4466   Anisotropy =    14.2673

     53  C    Isotropic =    42.6975   Anisotropy =   206.0726

     54  C    Isotropic =    52.2289   Anisotropy =   139.9908

     55  C    Isotropic =    51.2627   Anisotropy =   137.8748

     56  C    Isotropic =    42.0354   Anisotropy =   205.8743

     57  C    Isotropic =    49.7940   Anisotropy =   179.2130

     58  H    Isotropic =    24.4006   Anisotropy =    14.7475

     59  C    Isotropic =    52.1583   Anisotropy =   181.2056

     60  H    Isotropic =    24.4083   Anisotropy =     7.7587

     61  C    Isotropic =    53.7929   Anisotropy =   178.9878

     62  H    Isotropic =    24.2041   Anisotropy =     4.6548

     63  C    Isotropic =    49.4015   Anisotropy =   161.9234

     64  H    Isotropic =    23.6451   Anisotropy =     7.3298

     65  C    Isotropic =    44.4141   Anisotropy =   213.3905

     66  C    Isotropic =    47.4289   Anisotropy =   160.2895

     67  H    Isotropic =    23.6043   Anisotropy =     7.1303

     68  C    Isotropic =    57.1518   Anisotropy =   149.6457

     69  H    Isotropic =    24.0038   Anisotropy =     7.7464

     70  C    Isotropic =    24.9658   Anisotropy =   108.6822

     71  O    Isotropic =    23.3738   Anisotropy =   152.7961

 The electronic state is 1-A.
 Alpha  occ. eigenvalues --  -77.14514 -77.14506 -19.16654 -19.16653 -19.16198
 Alpha  occ. eigenvalues --  -19.16185 -19.16182 -10.24895 -10.24884 -10.24595
 Alpha  occ. eigenvalues --  -10.24595 -10.20046 -10.20040 -10.19993 -10.19992
 Alpha  occ. eigenvalues --  -10.19836 -10.19823 -10.19760 -10.19755 -10.19325
 Alpha  occ. eigenvalues --  -10.19321 -10.19214 -10.19211 -10.18848 -10.18847
 Alpha  occ. eigenvalues --  -10.18677 -10.18675 -10.18612 -10.18602 -10.18399
 Alpha  occ. eigenvalues --  -10.18385 -10.18274 -10.18270 -10.18190 -10.18179
 Alpha  occ. eigenvalues --  -10.18119 -10.18117 -10.18049 -10.18037 -10.18034
 Alpha  occ. eigenvalues --  -10.18021 -10.17946 -10.17943 -10.17941 -10.17933
 Alpha  occ. eigenvalues --  -10.17880 -10.17867  -6.61795  -6.61788  -4.78044
 Alpha  occ. eigenvalues --   -4.78037  -4.78002  -4.77995  -4.77369  -4.77363
 Alpha  occ. eigenvalues --   -1.09692  -1.08405  -1.04488  -1.04456  -1.02852
 Alpha  occ. eigenvalues --   -0.89444  -0.89375  -0.88070  -0.88062  -0.83874
 Alpha  occ. eigenvalues --   -0.83760  -0.82885  -0.82877  -0.80679  -0.80668
 Alpha  occ. eigenvalues --   -0.77041  -0.77028  -0.75639  -0.75338  -0.74844
 Alpha  occ. eigenvalues --   -0.74827  -0.74376  -0.74333  -0.71864  -0.71835
 Alpha  occ. eigenvalues --   -0.68039  -0.66584  -0.64275  -0.63841  -0.63599
 Alpha  occ. eigenvalues --   -0.63474  -0.62344  -0.62222  -0.61947  -0.61901
 Alpha  occ. eigenvalues --   -0.60214  -0.58794  -0.58638  -0.58551  -0.55556
 Alpha  occ. eigenvalues --   -0.54968  -0.53762  -0.53749  -0.53068  -0.53056
 Alpha  occ. eigenvalues --   -0.52192  -0.51823  -0.51126  -0.50357  -0.50329
 Alpha  occ. eigenvalues --   -0.49532  -0.48069  -0.47662  -0.47292  -0.47213
 Alpha  occ. eigenvalues --   -0.46812  -0.46587  -0.45968  -0.45938  -0.44875
 Alpha  occ. eigenvalues --   -0.44768  -0.44636  -0.44055  -0.43741  -0.43565
 Alpha  occ. eigenvalues --   -0.43485  -0.43437  -0.43114  -0.43045  -0.42791
 Alpha  occ. eigenvalues --   -0.42701  -0.42538  -0.42453  -0.40368  -0.40277
 Alpha  occ. eigenvalues --   -0.40055  -0.40035  -0.39479  -0.39251  -0.39190
 Alpha  occ. eigenvalues --   -0.38943  -0.38072  -0.36495  -0.36195  -0.36150
 Alpha  occ. eigenvalues --   -0.35957  -0.35654  -0.35629  -0.35469  -0.35351
 Alpha  occ. eigenvalues --   -0.34061  -0.34010  -0.33786  -0.33426  -0.32954
 Alpha  occ. eigenvalues --   -0.32932  -0.32748  -0.32464  -0.30300  -0.30284
 Alpha  occ. eigenvalues --   -0.29162  -0.29137  -0.27153  -0.25905  -0.25392
 Alpha  occ. eigenvalues --   -0.25200  -0.25121  -0.23644  -0.23247  -0.22889
 Alpha  occ. eigenvalues --   -0.22077  -0.21525
 Alpha virt. eigenvalues --   -0.06324  -0.06300  -0.05125  -0.05121  -0.02833
 Alpha virt. eigenvalues --   -0.02807  -0.02379  -0.02270   0.00087   0.00329
 Alpha virt. eigenvalues --    0.00879   0.01728   0.01783   0.02176   0.04584

 Mulliken charges:
               1
     1  P    0.530900
     2  P    0.531210
     3  O   -0.329708
     4  O   -0.336165
     5  O   -0.329843
     6  O   -0.336531
     7  C    0.242189
     8  C   -0.221268
     9  H    0.114300
    10  C   -0.158043
    11  H    0.104426
    12  C    0.145651
    13  C   -0.161342
    14  H    0.102230
    15  C   -0.107149
    16  H    0.108196
    17  C   -0.103822
    18  H    0.110253
    19  C   -0.174682
    20  H    0.135451
    21  C   -0.088997
    22  C    0.107769
    23  C    0.116001
    24  C   -0.090213
    25  C   -0.172872
    26  H    0.135817
    27  C   -0.102356
    28  H    0.110960
    29  C   -0.106459
    30  H    0.108733
    31  C   -0.161885
    32  H    0.102306
    33  C    0.149726
    34  C   -0.160462
    35  H    0.105142
    36  C   -0.247653
    37  H    0.114949
    38  C    0.266172
    39  C    0.242415
    40  C   -0.221711
    41  H    0.114483
    42  C   -0.157656
    43  H    0.104431
    44  C    0.145346
    45  C   -0.161098
    46  H    0.102175
    47  C   -0.107496
    48  H    0.108246
    49  C   -0.103541
    50  H    0.110267
    51  C   -0.175254
    52  H    0.135756
    53  C   -0.088011
    54  C    0.107710
    55  C    0.115601
    56  C   -0.089778
    57  C   -0.173579
    58  H    0.135671
    59  C   -0.101933
    60  H    0.110985
    61  C   -0.106753
    62  H    0.108823
    63  C   -0.161731
    64  H    0.102311
    65  C    0.149912
    66  C   -0.160848
    67  H    0.105139
    68  C   -0.247065
    69  H    0.115048
    70  C    0.265827
    71  O   -0.376626
 Sum of Mulliken charges =  -0.00000

 Dipole moment (field-independent basis, Debye):
    X=             -0.0107    Y=              1.8455    Z=             -0.0024  Tot=              1.8456
 Quadrupole moment (field-independent basis, Debye-Ang):
   XX=           -238.8642   YY=           -269.6349   ZZ=           -266.4004
   XY=             -0.0126   XZ=             -8.5065   YZ=             -0.0017

 Summary of Natural Population Analysis:

                                       Natural Population
                Natural  -----------------------------------------------
    Atom  No    Charge         Core      Valence    Rydberg      Total
 -----------------------------------------------------------------------
      P    1    1.56020      9.99869     3.33759    0.10353    13.43980
      P    2    1.56025      9.99869     3.33756    0.10351    13.43975
      O    3   -0.76843      1.99979     6.74202    0.02661     8.76843
      O    4   -0.77050      1.99978     6.74208    0.02864     8.77050
      O    5   -0.76878      1.99979     6.74239    0.02659     8.76878
      O    6   -0.77065      1.99978     6.74228    0.02859     8.77065
      C    7    0.28064      1.99859     3.69663    0.02415     5.71936
      C    8   -0.22970      1.99904     4.21133    0.01933     6.22970
      H    9    0.22865      0.00000     0.77014    0.00120     0.77135
      C   10   -0.15451      1.99914     4.13744    0.01793     6.15451
      H   11    0.20992      0.00000     0.78877    0.00131     0.79008
      C   12   -0.06770      1.99908     4.04977    0.01885     6.06770
      C   13   -0.17234      1.99913     4.15487    0.01834     6.17234
      H   14    0.20685      0.00000     0.79176    0.00140     0.79315
      C   15   -0.20923      1.99918     4.19095    0.01910     6.20923
      H   16    0.20971      0.00000     0.78915    0.00115     0.79029
      C   17   -0.19588      1.99919     4.17837    0.01832     6.19588
      H   18    0.20980      0.00000     0.78901    0.00119     0.79020
      C   19   -0.18798      1.99911     4.17076    0.01812     6.18798
      H   20    0.21848      0.00000     0.78003    0.00149     0.78152
      C   21   -0.02969      1.99901     4.01143    0.01924     6.02969
      C   22   -0.07280      1.99883     4.05170    0.02227     6.07280
      C   23   -0.06839      1.99883     4.04782    0.02173     6.06839
      C   24   -0.03075      1.99902     4.01252    0.01921     6.03075
      C   25   -0.18708      1.99911     4.16988    0.01808     6.18708
      H   26    0.21895      0.00000     0.77958    0.00147     0.78105
      C   27   -0.19526      1.99919     4.17780    0.01827     6.19526
      H   28    0.21012      0.00000     0.78870    0.00118     0.78988
      C   29   -0.20906      1.99918     4.19079    0.01909     6.20906
      H   30    0.21005      0.00000     0.78880    0.00115     0.78995
      C   31   -0.17248      1.99913     4.15501    0.01833     6.17248
      H   32    0.20685      0.00000     0.79175    0.00139     0.79315
      C   33   -0.06845      1.99907     4.05053    0.01885     6.06845
      C   34   -0.15622      1.99914     4.13910    0.01798     6.15622
      H   35    0.21036      0.00000     0.78833    0.00131     0.78964
      C   36   -0.23458      1.99904     4.21604    0.01950     6.23458
      H   37    0.22768      0.00000     0.77112    0.00120     0.77232
      C   38    0.28199      1.99860     3.69572    0.02369     5.71801
      C   39    0.28052      1.99859     3.69676    0.02414     5.71948
      C   40   -0.22942      1.99904     4.21106    0.01932     6.22942
      H   41    0.22871      0.00000     0.77008    0.00120     0.77129
      C   42   -0.15450      1.99914     4.13742    0.01794     6.15450
      H   43    0.20999      0.00000     0.78870    0.00131     0.79001
      C   44   -0.06840      1.99907     4.05046    0.01887     6.06840
      C   45   -0.17183      1.99913     4.15434    0.01836     6.17183
      H   46    0.20681      0.00000     0.79179    0.00140     0.79319
      C   47   -0.20959      1.99918     4.19131    0.01910     6.20959
      H   48    0.20981      0.00000     0.78904    0.00115     0.79019
      C   49   -0.19558      1.99919     4.17809    0.01830     6.19558
      H   50    0.20969      0.00000     0.78912    0.00119     0.79031
      C   51   -0.18798      1.99911     4.17077    0.01810     6.18798
      H   52    0.21855      0.00000     0.77995    0.00150     0.78145
      C   53   -0.02941      1.99901     4.01114    0.01925     6.02941
      C   54   -0.07280      1.99883     4.05167    0.02230     6.07280
      C   55   -0.06894      1.99883     4.04822    0.02189     6.06894
      C   56   -0.03065      1.99902     4.01244    0.01918     6.03065
      C   57   -0.18758      1.99911     4.17015    0.01832     6.18758
      H   58    0.21884      0.00000     0.77968    0.00148     0.78116
      C   59   -0.19532      1.99919     4.17781    0.01832     6.19532
      H   60    0.21012      0.00000     0.78869    0.00119     0.78988
      C   61   -0.20883      1.99918     4.19050    0.01915     6.20883
      H   62    0.21000      0.00000     0.78884    0.00116     0.79000
      C   63   -0.17227      1.99913     4.15523    0.01792     6.17227
      H   64    0.20695      0.00000     0.79169    0.00136     0.79305
      C   65   -0.06789      1.99908     4.04849    0.02033     6.06789
      C   66   -0.15599      1.99913     4.13922    0.01763     6.15599
      H   67    0.21037      0.00000     0.78833    0.00130     0.78963
      C   68   -0.23453      1.99904     4.21582    0.01966     6.23453
      H   69    0.22757      0.00000     0.77119    0.00124     0.77243
      C   70    0.28221      1.99860     3.69539    0.02380     5.71779
      O   71   -1.01869      1.99982     6.98190    0.03697     9.01869
 =======================================================================
   * Total *   -0.00000    109.95755   222.87483    1.16762   334.00000

 Normal termination of Gaussian 16 at Thu Nov  7 15:39:46 2024.
