 Gaussian 16, Revision B.01,
 Gaussian 16:  ES64L-G16RevB.01 20-Dec-2017

 --------------------------------------------
 # nmr=giao b3lyp/def2TZVP pop=nbo scfcyc=200
 --------------------------------------------

 -----------------
 Ligand 3 SPE NoRh
 -----------------
 Symbolic Z-matrix:
 Charge =  0 Multiplicity = 1

                         Standard orientation:
 ---------------------------------------------------------------------
 Center     Atomic      Atomic             Coordinates (Angstroms)
 Number     Number       Type             X           Y           Z
 ---------------------------------------------------------------------
      1          6           0        0.073031    0.656753    0.531140
      2          1           0       -0.194795    0.093431    1.424933
      3          1           0        0.550282    1.588775    0.837517
      4          6           0       -1.864301    2.769702   -0.261400
      5          1           0       -2.130251    2.870005    0.789954
      6          1           0       -2.726540    3.036340   -0.873943
      7          1           0       -1.052599    3.457958   -0.493957
      8          6           0        0.958010   -2.019650   -0.325600
      9          1           0        1.269562   -2.250886    0.693413
     10          1           0        1.545599   -2.614957   -1.024463
     11          1           0       -0.088909   -2.292718   -0.450295
     12         15           0       -1.318506    1.048466   -0.659862
     13         15           0        1.168437   -0.221548   -0.704833
     14          6           0       -2.736840   -0.078003   -0.171584
     15          6           0       -3.261865    0.164041    1.255608
     16          6           0       -3.885621   -0.034626   -1.195645
     17          1           0       -2.292260   -1.079864   -0.211754
     18          6           0       -4.361231   -0.846590    1.615202
     19          1           0       -3.677701    1.173683    1.325397
     20          1           0       -2.450861    0.104686    1.986317
     21          6           0       -4.994830   -1.031002   -0.826463
     22          1           0       -4.310245    0.974844   -1.231197
     23          1           0       -3.507472   -0.257961   -2.195469
     24          6           0       -5.506682   -0.814579    0.600820
     25          1           0       -4.734187   -0.633525    2.619773
     26          1           0       -3.929639   -1.853845    1.650026
     27          1           0       -5.814629   -0.944152   -1.542623
     28          1           0       -4.604628   -2.050248   -0.922264
     29          1           0       -6.251446   -1.573231    0.850720
     30          1           0       -6.017540    0.153121    0.660872
     31          6           0        2.942943    0.192807   -0.268805
     32          6           0        3.277648    0.014465    1.222440
     33          6           0        3.942019   -0.580991   -1.149945
     34          1           0        3.022521    1.258023   -0.517134
     35          6           0        4.724120    0.445236    1.514477
     36          1           0        3.157836   -1.036584    1.503730
     37          1           0        2.590184    0.590357    1.847021
     38          6           0        5.385574   -0.149913   -0.854685
     39          1           0        3.847152   -1.654444   -0.952207
     40          1           0        3.720970   -0.435837   -2.210067
     41          6           0        5.726935   -0.301204    0.630085
     42          1           0        4.945211    0.275460    2.570155
     43          1           0        4.817716    1.523564    1.345524
     44          1           0        6.072480   -0.739041   -1.465793
     45          1           0        5.517897    0.895358   -1.156051
     46          1           0        6.739032    0.063406    0.822192
     47          1           0        5.724842   -1.364183    0.896220
 ---------------------------------------------------------------------

 SCF Done:  E(RB3LYP) =  -1272.64947429     A.U. after   13 cycles

      1  C    Isotropic =   160.7244   Anisotropy =    24.9894

      2  H    Isotropic =    30.4128   Anisotropy =     4.7332

      3  H    Isotropic =    31.2493   Anisotropy =     6.1268

      4  C    Isotropic =   175.0619   Anisotropy =    21.5925

      5  H    Isotropic =    30.5435   Anisotropy =     7.9294

      6  H    Isotropic =    31.3551   Anisotropy =     9.6145

      7  H    Isotropic =    31.0435   Anisotropy =     8.4467

      8  C    Isotropic =   177.2459   Anisotropy =    20.1072

      9  H    Isotropic =    30.6642   Anisotropy =     7.4650

     10  H    Isotropic =    31.2239   Anisotropy =     9.8786

     11  H    Isotropic =    31.1523   Anisotropy =     8.7674

     12  P    Isotropic =   257.5860   Anisotropy =   117.4590

     13  P    Isotropic =   259.8131   Anisotropy =   118.9307

     14  C    Isotropic =   140.7076   Anisotropy =    18.4006

     15  C    Isotropic =   152.7014   Anisotropy =     6.0660

     16  C    Isotropic =   149.4457   Anisotropy =    12.0682

     17  H    Isotropic =    30.7334   Anisotropy =     6.8929

     18  C    Isotropic =   150.8890   Anisotropy =     7.7074

     19  H    Isotropic =    30.6479   Anisotropy =     5.3728

     20  H    Isotropic =    30.0971   Anisotropy =     6.8800

     21  C    Isotropic =   150.7943   Anisotropy =     6.8651

     22  H    Isotropic =    30.9093   Anisotropy =     6.0484

     23  H    Isotropic =    29.9763   Anisotropy =     7.3328

     24  C    Isotropic =   152.6692   Anisotropy =     3.5313

     25  H    Isotropic =    30.1135   Anisotropy =     9.5771

     26  H    Isotropic =    30.6766   Anisotropy =     7.2882

     27  H    Isotropic =    30.1090   Anisotropy =     9.9995

     28  H    Isotropic =    30.5790   Anisotropy =     7.6960

     29  H    Isotropic =    30.2305   Anisotropy =    10.2066

     30  H    Isotropic =    30.7220   Anisotropy =     8.4961

     31  C    Isotropic =   138.5861   Anisotropy =    19.7371

     32  C    Isotropic =   152.3056   Anisotropy =     8.4333

     33  C    Isotropic =   151.1206   Anisotropy =     9.7057

     34  H    Isotropic =    30.4540   Anisotropy =     4.3852

     35  C    Isotropic =   151.3355   Anisotropy =     7.7319

     36  H    Isotropic =    30.6318   Anisotropy =     4.8439

     37  H    Isotropic =    30.2170   Anisotropy =     7.5617

     38  C    Isotropic =   151.2314   Anisotropy =     6.3708

     39  H    Isotropic =    31.0438   Anisotropy =     5.3881

     40  H    Isotropic =    30.0693   Anisotropy =     7.2887

     41  C    Isotropic =   152.6450   Anisotropy =     3.3022

     42  H    Isotropic =    30.1869   Anisotropy =     9.4348

     43  H    Isotropic =    30.7240   Anisotropy =     7.7785

     44  H    Isotropic =    30.1401   Anisotropy =     9.9249

     45  H    Isotropic =    30.6216   Anisotropy =     8.2171

     46  H    Isotropic =    30.2305   Anisotropy =    10.2315

     47  H    Isotropic =    30.7439   Anisotropy =     8.1235

 The electronic state is 1-A.
 Alpha  occ. eigenvalues --  -77.03141 -77.03035 -10.17427 -10.17422 -10.17082
 Alpha  occ. eigenvalues --  -10.16566 -10.16560 -10.16550 -10.16397 -10.16374
 Alpha  occ. eigenvalues --  -10.16369 -10.16342 -10.16305 -10.16303 -10.16241
 Alpha  occ. eigenvalues --  -10.16211 -10.16174  -6.51725  -6.51618  -4.67892
 Alpha  occ. eigenvalues --   -4.67829  -4.67782  -4.67729  -4.67335  -4.67227
 Alpha  occ. eigenvalues --   -0.83304  -0.83168  -0.76697  -0.75039  -0.74242
 Alpha  occ. eigenvalues --   -0.74153  -0.72563  -0.71051  -0.68737  -0.61763
 Alpha  occ. eigenvalues --   -0.61217  -0.60970  -0.60725  -0.55864  -0.55671
 Alpha  occ. eigenvalues --   -0.52886  -0.52152  -0.47510  -0.47290  -0.44721
 Alpha  occ. eigenvalues --   -0.44460  -0.44171  -0.43990  -0.43809  -0.43654
 Alpha  occ. eigenvalues --   -0.42401  -0.41535  -0.41132  -0.40320  -0.40007
 Alpha  occ. eigenvalues --   -0.38294  -0.38053  -0.37841  -0.37771  -0.37696
 Alpha  occ. eigenvalues --   -0.36368  -0.35627  -0.34533  -0.34463  -0.34097
 Alpha  occ. eigenvalues --   -0.33590  -0.32104  -0.31904  -0.31093  -0.30491
 Alpha  occ. eigenvalues --   -0.30276  -0.29038  -0.28282  -0.21554  -0.17715
 Alpha virt. eigenvalues --    0.01825   0.02344   0.03276   0.03824   0.04058
 Alpha virt. eigenvalues --    0.04577   0.05060   0.06031   0.06131   0.06281
 Alpha virt. eigenvalues --    0.07493   0.08011   0.08647   0.09039   0.09133

 Mulliken charges:
               1
     1  C   -0.371950
     2  H    0.111095
     3  H    0.122624
     4  C   -0.441818
     5  H    0.114642
     6  H    0.125985
     7  H    0.126779
     8  C   -0.450183
     9  H    0.111969
    10  H    0.128920
    11  H    0.129514
    12  P    0.195532
    13  P    0.168567
    14  C   -0.077476
    15  C   -0.211095
    16  C   -0.202051
    17  H    0.052940
    18  C   -0.159447
    19  H    0.088040
    20  H    0.092547
    21  C   -0.160837
    22  H    0.081837
    23  H    0.105069
    24  C   -0.159054
    25  H    0.089198
    26  H    0.078014
    27  H    0.092889
    28  H    0.079732
    29  H    0.092024
    30  H    0.076258
    31  C   -0.061509
    32  C   -0.207296
    33  C   -0.223762
    34  H    0.061937
    35  C   -0.156269
    36  H    0.083225
    37  H    0.094612
    38  C   -0.157678
    39  H    0.085809
    40  H    0.105725
    41  C   -0.160966
    42  H    0.088640
    43  H    0.077826
    44  H    0.091590
    45  H    0.080753
    46  H    0.091324
    47  H    0.075777
 Sum of Mulliken charges =  -0.00000

 Dipole moment (field-independent basis, Debye):
    X=             -0.0642    Y=             -0.2010    Z=              1.9699  Tot=              1.9812
 Quadrupole moment (field-independent basis, Debye-Ang):
   XX=           -120.4520   YY=           -122.7416   ZZ=           -131.3857
   XY=             -0.2570   XZ=             -0.0284   YZ=              1.3909

 Summary of Natural Population Analysis:

                                       Natural Population
                Natural  -----------------------------------------------
    Atom  No    Charge         Core      Valence    Rydberg      Total
 -----------------------------------------------------------------------
      C    1   -1.02250      1.99947     4.99144    0.03160     7.02250
      H    2    0.23030      0.00000     0.76677    0.00293     0.76970
      H    3    0.24457      0.00000     0.75381    0.00161     0.75543
      C    4   -0.92331      1.99945     4.90507    0.01878     6.92331
      H    5    0.20470      0.00000     0.79250    0.00281     0.79530
      H    6    0.22792      0.00000     0.77097    0.00111     0.77208
      H    7    0.22740      0.00000     0.77165    0.00095     0.77260
      C    8   -0.92323      1.99945     4.90425    0.01952     6.92323
      H    9    0.20420      0.00000     0.79272    0.00308     0.79580
      H   10    0.22930      0.00000     0.76968    0.00102     0.77070
      H   11    0.22588      0.00000     0.77299    0.00113     0.77412
      P   12    0.80229      9.99871     4.16128    0.03772    14.19771
      P   13    0.80315      9.99873     4.16026    0.03786    14.19685
      C   14   -0.47858      1.99939     4.45358    0.02561     6.47858
      C   15   -0.39302      1.99939     4.37904    0.01459     6.39302
      C   16   -0.39125      1.99938     4.37640    0.01547     6.39125
      H   17    0.20435      0.00000     0.79276    0.00289     0.79565
      C   18   -0.38249      1.99943     4.36952    0.01354     6.38249
      H   19    0.18648      0.00000     0.81080    0.00272     0.81352
      H   20    0.19620      0.00000     0.80134    0.00246     0.80380
      C   21   -0.38109      1.99943     4.36806    0.01360     6.38109
      H   22    0.18545      0.00000     0.81227    0.00228     0.81455
      H   23    0.21343      0.00000     0.78455    0.00202     0.78657
      C   24   -0.38659      1.99942     4.37379    0.01338     6.38659
      H   25    0.19963      0.00000     0.79890    0.00147     0.80037
      H   26    0.18571      0.00000     0.81246    0.00184     0.81429
      H   27    0.20223      0.00000     0.79642    0.00135     0.79777
      H   28    0.18694      0.00000     0.81125    0.00181     0.81306
      H   29    0.20160      0.00000     0.79707    0.00133     0.79840
      H   30    0.18703      0.00000     0.81113    0.00184     0.81297
      C   31   -0.48057      1.99939     4.45633    0.02485     6.48057
      C   32   -0.39196      1.99939     4.37812    0.01446     6.39196
      C   33   -0.39145      1.99938     4.37680    0.01526     6.39145
      H   34    0.20590      0.00000     0.79183    0.00227     0.79410
      C   35   -0.38284      1.99943     4.36982    0.01359     6.38284
      H   36    0.18395      0.00000     0.81322    0.00284     0.81605
      H   37    0.19744      0.00000     0.80056    0.00200     0.80256
      C   38   -0.38041      1.99943     4.36737    0.01361     6.38041
      H   39    0.18541      0.00000     0.81228    0.00231     0.81459
      H   40    0.21197      0.00000     0.78595    0.00208     0.78803
      C   41   -0.38644      1.99943     4.37359    0.01342     6.38644
      H   42    0.19917      0.00000     0.79935    0.00148     0.80083
      H   43    0.18587      0.00000     0.81229    0.00184     0.81413
      H   44    0.20150      0.00000     0.79713    0.00137     0.79850
      H   45    0.18763      0.00000     0.81055    0.00181     0.81237
      H   46    0.20139      0.00000     0.79728    0.00133     0.79861
      H   47    0.18671      0.00000     0.81144    0.00185     0.81329
 =======================================================================
   * Total *   -0.00000     49.98870    99.61662    0.39468   150.00000

 Normal termination of Gaussian 16 at Wed Nov  6 15:17:14 2024.
