 Gaussian 16, Revision B.01,
 Gaussian 16:  ES64L-G16RevB.01 20-Dec-2017

 --------------------------------------------
 # nmr=giao b3lyp/def2TZVP pop=nbo scfcyc=200
 --------------------------------------------

 ------------------
 Ligand 42 SPE NoRh
 ------------------
 Symbolic Z-matrix:
 Charge =  0 Multiplicity = 1

                         Standard orientation:
 ---------------------------------------------------------------------
 Center     Atomic      Atomic             Coordinates (Angstroms)
 Number     Number       Type             X           Y           Z
 ---------------------------------------------------------------------
      1         15           0        0.131428    0.609294    0.517405
      2         15           0        2.706187    0.425720    0.150577
      3          8           0       -0.892653    1.356295   -0.536711
      4          8           0       -0.859136   -0.508555    1.206363
      5          8           0        3.709545   -0.856075    0.399627
      6          8           0        3.462617    1.066785   -1.150151
      7          7           0        1.240721   -0.120234   -0.555534
      8          6           0       -2.098036    1.856449   -0.014247
      9          6           0       -2.203598    3.252131    0.114752
     10          1           0       -1.382215    3.872236   -0.220156
     11          6           0       -3.348158    3.789988    0.636900
     12          1           0       -3.455584    4.863854    0.725402
     13          6           0       -4.398619    2.953316    1.088274
     14          6           0       -5.555048    3.498344    1.700715
     15          1           0       -5.637387    4.575100    1.788674
     16          6           0       -6.544204    2.683688    2.186352
     17          1           0       -7.421144    3.109631    2.657352
     18          6           0       -6.412231    1.283721    2.085320
     19          1           0       -7.184569    0.643449    2.492323
     20          6           0       -5.314903    0.723737    1.480452
     21          1           0       -5.231768   -0.351416    1.417588
     22          6           0       -4.281633    1.534255    0.944547
     23          6           0       -3.115151    0.984987    0.311737
     24          6           0       -2.969813   -0.467671    0.024492
     25          6           0       -3.922500   -1.188132   -0.776353
     26          6           0       -4.984397   -0.546960   -1.462841
     27          1           0       -5.091442    0.525659   -1.392840
     28          6           0       -5.872277   -1.265121   -2.224128
     29          1           0       -6.669301   -0.750891   -2.744823
     30          6           0       -5.753418   -2.665161   -2.342074
     31          1           0       -6.467451   -3.218115   -2.939685
     32          6           0       -4.725878   -3.317111   -1.712861
     33          1           0       -4.612274   -4.389755   -1.811479
     34          6           0       -3.779789   -2.604093   -0.934243
     35          6           0       -2.680928   -3.264609   -0.333683
     36          1           0       -2.589543   -4.338264   -0.440258
     37          6           0       -1.731788   -2.558513    0.351957
     38          1           0       -0.872613   -3.044088    0.795250
     39          6           0       -1.878227   -1.166550    0.495282
     40          6           0        3.816808   -1.559380    1.603449
     41          6           0        2.720227   -2.182982    2.185441
     42          1           0        1.743084   -2.111614    1.729809
     43          6           0        2.903649   -2.915875    3.356182
     44          1           0        2.053490   -3.407384    3.812411
     45          6           0        5.254639   -2.404873    3.326745
     46          1           0        6.242765   -2.497083    3.760766
     47          6           0        5.084915   -1.664851    2.161967
     48          1           0        5.922718   -1.178408    1.678800
     49          6           0        4.705009    1.720328   -1.089687
     50          6           0        4.715724    3.108760   -1.100710
     51          1           0        3.780116    3.651763   -1.120832
     52          6           0        5.938659    3.773366   -1.114253
     53          1           0        5.958989    4.855240   -1.132406
     54          6           0        7.097006    1.660816   -1.125322
     55          1           0        8.020074    1.096561   -1.149427
     56          6           0        5.880670    0.983035   -1.112700
     57          1           0        5.839529   -0.097017   -1.132934
     58          6           0        0.947439   -0.840470   -1.841141
     59          1           0       -0.089760   -1.167543   -1.738750
     60          6           0        1.823708   -2.093508   -1.968407
     61          1           0        1.758844   -2.658972   -1.035032
     62          1           0        2.870410   -1.796436   -2.080578
     63          6           0        1.038888    0.107062   -3.037550
     64          1           0        0.426686    0.993134   -2.873610
     65          1           0        0.668730   -0.392002   -3.932872
     66          1           0        2.067699    0.419425   -3.215440
     67          6           0        7.129208    3.051610   -1.123629
     68          1           0        8.077383    3.571861   -1.141104
     69          6           0        4.165822   -3.029164    3.928617
     70          1           0        4.302617   -3.608121    4.832468
     71          6           0        1.416878   -2.997781   -3.133251
     72          1           0        1.576368   -2.519870   -4.100174
     73          1           0        2.007947   -3.915322   -3.122329
     74          1           0        0.363418   -3.283509   -3.066738
 ---------------------------------------------------------------------

 SCF Done:  E(RB3LYP) =  -2429.66376298     A.U. after   15 cycles

      1  P    Isotropic =   113.2076   Anisotropy =   192.6028

      2  P    Isotropic =   113.3893   Anisotropy =   230.2774

      3  O    Isotropic =   145.2648   Anisotropy =    63.9287

      4  O    Isotropic =   137.2765   Anisotropy =    59.9645

      5  O    Isotropic =   132.2936   Anisotropy =    93.8558

      6  O    Isotropic =   146.3535   Anisotropy =    66.7097

      7  N    Isotropic =    64.0111   Anisotropy =   110.4641

      8  C    Isotropic =    23.4098   Anisotropy =   113.6868

      9  C    Isotropic =    56.9418   Anisotropy =   148.9987

     10  H    Isotropic =    23.9983   Anisotropy =     8.2231

     11  C    Isotropic =    47.2237   Anisotropy =   159.7023

     12  H    Isotropic =    23.6075   Anisotropy =     7.2789

     13  C    Isotropic =    44.4726   Anisotropy =   212.4459

     14  C    Isotropic =    49.3496   Anisotropy =   161.4990

     15  H    Isotropic =    23.6618   Anisotropy =     7.3662

     16  C    Isotropic =    53.9988   Anisotropy =   177.9299

     17  H    Isotropic =    24.2301   Anisotropy =     4.6760

     18  C    Isotropic =    52.3275   Anisotropy =   180.8455

     19  H    Isotropic =    24.4124   Anisotropy =     7.8678

     20  C    Isotropic =    50.0990   Anisotropy =   178.5865

     21  H    Isotropic =    24.3997   Anisotropy =    14.8982

     22  C    Isotropic =    42.3655   Anisotropy =   205.3226

     23  C    Isotropic =    51.6699   Anisotropy =   137.0498

     24  C    Isotropic =    52.0823   Anisotropy =   141.0110

     25  C    Isotropic =    42.1020   Anisotropy =   206.3553

     26  C    Isotropic =    49.9232   Anisotropy =   180.3060

     27  H    Isotropic =    24.3662   Anisotropy =    14.1731

     28  C    Isotropic =    52.0485   Anisotropy =   181.4699

     29  H    Isotropic =    24.3991   Anisotropy =     7.5903

     30  C    Isotropic =    53.9509   Anisotropy =   178.5967

     31  H    Isotropic =    24.2058   Anisotropy =     4.6747

     32  C    Isotropic =    49.5177   Anisotropy =   161.5166

     33  H    Isotropic =    23.6423   Anisotropy =     7.6086

     34  C    Isotropic =    44.8671   Anisotropy =   213.1135

     35  C    Isotropic =    47.9819   Anisotropy =   159.8965

     36  H    Isotropic =    23.6350   Anisotropy =     7.3726

     37  C    Isotropic =    57.3618   Anisotropy =   149.8074

     38  H    Isotropic =    23.8867   Anisotropy =     6.4020

     39  C    Isotropic =    22.7370   Anisotropy =   130.3786

     40  C    Isotropic =    19.9767   Anisotropy =   122.6621

     41  C    Isotropic =    58.6880   Anisotropy =   156.1359

     42  H    Isotropic =    24.0651   Anisotropy =     6.9641

     43  C    Isotropic =    48.4794   Anisotropy =   182.8107

     44  H    Isotropic =    24.2279   Anisotropy =     7.4273

     45  C    Isotropic =    48.2823   Anisotropy =   183.2915

     46  H    Isotropic =    24.3614   Anisotropy =     5.4401

     47  C    Isotropic =    56.9734   Anisotropy =   153.5615

     48  H    Isotropic =    24.6230   Anisotropy =     8.4724

     49  C    Isotropic =    20.0958   Anisotropy =   119.5071

     50  C    Isotropic =    55.3930   Anisotropy =   153.9009

     51  H    Isotropic =    24.3989   Anisotropy =     8.5227

     52  C    Isotropic =    48.0724   Anisotropy =   183.4222

     53  H    Isotropic =    24.2635   Anisotropy =     5.7714

     54  C    Isotropic =    49.1713   Anisotropy =   182.8030

     55  H    Isotropic =    24.2407   Anisotropy =     6.1438

     56  C    Isotropic =    54.5995   Anisotropy =   159.9162

     57  H    Isotropic =    24.0722   Anisotropy =     9.5682

     58  C    Isotropic =   117.8448   Anisotropy =    42.6381

     59  H    Isotropic =    28.7308   Anisotropy =    11.4578

     60  C    Isotropic =   149.1507   Anisotropy =    19.8291

     61  H    Isotropic =    29.7182   Anisotropy =     4.2240

     62  H    Isotropic =    29.6314   Anisotropy =     7.7865

     63  C    Isotropic =   160.8896   Anisotropy =    31.1541

     64  H    Isotropic =    30.3415   Anisotropy =     5.5836

     65  H    Isotropic =    31.1237   Anisotropy =     7.8520

     66  H    Isotropic =    30.4759   Anisotropy =     7.4944

     67  C    Isotropic =    54.0497   Anisotropy =   180.5704

     68  H    Isotropic =    24.4874   Anisotropy =     4.3877

     69  C    Isotropic =    55.2386   Anisotropy =   178.4375

     70  H    Isotropic =    24.5896   Anisotropy =     4.6094

     71  C    Isotropic =   169.9289   Anisotropy =    22.7513

     72  H    Isotropic =    31.1652   Anisotropy =     8.3504

     73  H    Isotropic =    30.8761   Anisotropy =    10.7152

     74  H    Isotropic =    31.6200   Anisotropy =     8.5406

 The electronic state is 1-A.
 Alpha  occ. eigenvalues --  -77.12783 -77.12538 -19.15798 -19.15657 -19.15274
 Alpha  occ. eigenvalues --  -19.15091 -14.33134 -10.24567 -10.24550 -10.24069
 Alpha  occ. eigenvalues --  -10.24027 -10.21615 -10.19962 -10.19880 -10.19782
 Alpha  occ. eigenvalues --  -10.19663 -10.19381 -10.19159 -10.18931 -10.18671
 Alpha  occ. eigenvalues --  -10.18662 -10.18395 -10.18364 -10.18173 -10.18152
 Alpha  occ. eigenvalues --  -10.18143 -10.18136 -10.18092 -10.17995 -10.17992
 Alpha  occ. eigenvalues --  -10.17974 -10.17972 -10.17894 -10.17859 -10.17818
 Alpha  occ. eigenvalues --  -10.17798 -10.17709 -10.17651 -10.17589 -10.17387
 Alpha  occ. eigenvalues --  -10.16941 -10.16219 -10.15496  -6.60156  -6.59958
 Alpha  occ. eigenvalues --   -4.76375  -4.76341  -4.76225  -4.76124  -4.75779
 Alpha  occ. eigenvalues --   -4.75546  -1.07646  -1.06818  -1.03725  -1.03564
 Alpha  occ. eigenvalues --   -0.91275  -0.89260  -0.88025  -0.86056  -0.85747
 Alpha  occ. eigenvalues --   -0.83734  -0.82801  -0.80654  -0.79443  -0.77003
 Alpha  occ. eigenvalues --   -0.75698  -0.75578  -0.75422  -0.75176  -0.74718
 Alpha  occ. eigenvalues --   -0.74340  -0.74313  -0.72577  -0.71751  -0.67143
 Alpha  occ. eigenvalues --   -0.66048  -0.64684  -0.63498  -0.63362  -0.62115
 Alpha  occ. eigenvalues --   -0.61991  -0.61910  -0.61839  -0.60898  -0.59376
 Alpha  occ. eigenvalues --   -0.58939  -0.58589  -0.56602  -0.54877  -0.54434
 Alpha  occ. eigenvalues --   -0.53716  -0.53015  -0.51839  -0.51539  -0.50809
 Alpha  occ. eigenvalues --   -0.50363  -0.49672  -0.48859  -0.47956  -0.47475
 Alpha  occ. eigenvalues --   -0.47219  -0.47010  -0.46840  -0.46019  -0.45943
 Alpha  occ. eigenvalues --   -0.45639  -0.44804  -0.44659  -0.44339  -0.43775
 Alpha  occ. eigenvalues --   -0.43552  -0.43461  -0.43248  -0.43094  -0.42970
 Alpha  occ. eigenvalues --   -0.42878  -0.42710  -0.42446  -0.42096  -0.41055
 Alpha  occ. eigenvalues --   -0.40303  -0.39997  -0.39427  -0.38981  -0.38825
 Alpha  occ. eigenvalues --   -0.37748  -0.37446  -0.37384  -0.37040  -0.36777
 Alpha  occ. eigenvalues --   -0.36599  -0.36526  -0.36399  -0.35983  -0.35519
 Alpha  occ. eigenvalues --   -0.35458  -0.35333  -0.34430  -0.34113  -0.33715
 Alpha  occ. eigenvalues --   -0.33571  -0.32949  -0.32810  -0.32414  -0.31981
 Alpha  occ. eigenvalues --   -0.30274  -0.29089  -0.28065  -0.27201  -0.26324
 Alpha  occ. eigenvalues --   -0.26153  -0.25614  -0.25224  -0.24790  -0.24539
 Alpha  occ. eigenvalues --   -0.23202  -0.22112  -0.20392
 Alpha virt. eigenvalues --   -0.06300  -0.05125  -0.02851  -0.02330  -0.02083
 Alpha virt. eigenvalues --   -0.01938  -0.01269  -0.00892   0.00290   0.01335
 Alpha virt. eigenvalues --    0.01685   0.02523   0.03021   0.04154   0.04471

 Mulliken charges:
               1
     1  P    0.453669
     2  P    0.450371
     3  O   -0.370674
     4  O   -0.347507
     5  O   -0.365652
     6  O   -0.358544
     7  N   -0.207886
     8  C    0.293831
     9  C   -0.238472
    10  H    0.114266
    11  C   -0.172170
    12  H    0.103567
    13  C    0.158695
    14  C   -0.159170
    15  H    0.101792
    16  C   -0.108008
    17  H    0.108022
    18  C   -0.102041
    19  H    0.109963
    20  C   -0.180753
    21  H    0.133922
    22  C   -0.108381
    23  C    0.130143
    24  C    0.166123
    25  C   -0.105012
    26  C   -0.175778
    27  H    0.136866
    28  C   -0.103850
    29  H    0.111012
    30  C   -0.106590
    31  H    0.108540
    32  C   -0.161884
    33  H    0.101413
    34  C    0.164915
    35  C   -0.190530
    36  H    0.104168
    37  C   -0.214574
    38  H    0.121450
    39  C    0.163185
    40  C    0.264684
    41  C   -0.167171
    42  H    0.156862
    43  C   -0.148620
    44  H    0.108247
    45  C   -0.096738
    46  H    0.109762
    47  C   -0.190871
    48  H    0.121716
    49  C    0.292080
    50  C   -0.208139
    51  H    0.115803
    52  C   -0.082556
    53  H    0.111183
    54  C   -0.085763
    55  H    0.111275
    56  C   -0.207676
    57  H    0.129156
    58  C    0.004351
    59  H    0.091125
    60  C   -0.138907
    61  H    0.090770
    62  H    0.104815
    63  C   -0.378212
    64  H    0.128767
    65  H    0.108565
    66  H    0.123786
    67  C   -0.119702
    68  H    0.109313
    69  C   -0.104190
    70  H    0.107529
    71  C   -0.361818
    72  H    0.115936
    73  H    0.116135
    74  H    0.110066
 Sum of Mulliken charges =  -0.00000

 Dipole moment (field-independent basis, Debye):
    X=             -1.0366    Y=             -0.9275    Z=             -1.1370  Tot=              1.7965
 Quadrupole moment (field-independent basis, Debye-Ang):
   XX=           -235.9134   YY=           -241.3984   ZZ=           -267.4085
   XY=             -0.2248   XZ=              1.2198   YZ=             -1.6029

 Summary of Natural Population Analysis:

                                       Natural Population
                Natural  -----------------------------------------------
    Atom  No    Charge         Core      Valence    Rydberg      Total
 -----------------------------------------------------------------------
      P    1    1.51662      9.99825     3.39743    0.08770    13.48338
      P    2    1.50538      9.99820     3.40457    0.09185    13.49462
      O    3   -0.77890      1.99978     6.75200    0.02712     8.77890
      O    4   -0.77093      1.99979     6.74565    0.02550     8.77093
      O    5   -0.78372      1.99975     6.75841    0.02556     8.78372
      O    6   -0.78227      1.99975     6.75619    0.02632     8.78227
      N    7   -1.08009      1.99957     6.04617    0.03436     8.08009
      C    8    0.28849      1.99862     3.68847    0.02442     5.71151
      C    9   -0.23356      1.99904     4.21495    0.01956     6.23356
      H   10    0.22614      0.00000     0.77261    0.00126     0.77386
      C   11   -0.15631      1.99914     4.13954    0.01764     6.15631
      H   12    0.20973      0.00000     0.78896    0.00131     0.79027
      C   13   -0.06814      1.99908     4.04875    0.02031     6.06814
      C   14   -0.17198      1.99913     4.15494    0.01791     6.17198
      H   15    0.20667      0.00000     0.79197    0.00136     0.79333
      C   16   -0.21018      1.99918     4.19180    0.01920     6.21018
      H   17    0.20967      0.00000     0.78917    0.00116     0.79033
      C   18   -0.19600      1.99919     4.17846    0.01835     6.19600
      H   19    0.20964      0.00000     0.78917    0.00119     0.79036
      C   20   -0.18806      1.99911     4.17062    0.01833     6.18806
      H   21    0.21796      0.00000     0.78055    0.00149     0.78204
      C   22   -0.03095      1.99902     4.01277    0.01917     6.03095
      C   23   -0.07110      1.99883     4.05044    0.02182     6.07110
      C   24   -0.07382      1.99883     4.05279    0.02221     6.07382
      C   25   -0.02953      1.99902     4.01131    0.01920     6.02953
      C   26   -0.18807      1.99911     4.17081    0.01816     6.18807
      H   27    0.21936      0.00000     0.77915    0.00149     0.78064
      C   28   -0.19517      1.99919     4.17770    0.01828     6.19517
      H   29    0.21004      0.00000     0.78877    0.00118     0.78996
      C   30   -0.20994      1.99918     4.19165    0.01911     6.20994
      H   31    0.20995      0.00000     0.78890    0.00115     0.79005
      C   32   -0.17331      1.99913     4.15583    0.01835     6.17331
      H   33    0.20650      0.00000     0.79210    0.00140     0.79350
      C   34   -0.07127      1.99907     4.05319    0.01901     6.07127
      C   35   -0.15840      1.99913     4.14179    0.01748     6.15840
      H   36    0.20953      0.00000     0.78914    0.00133     0.79047
      C   37   -0.24099      1.99904     4.22252    0.01943     6.24099
      H   38    0.22088      0.00000     0.77765    0.00147     0.77912
      C   39    0.28375      1.99860     3.69427    0.02338     5.71625
      C   40    0.28220      1.99868     3.69624    0.02288     5.71780
      C   41   -0.26344      1.99901     4.24446    0.01998     6.26344
      H   42    0.21927      0.00000     0.77878    0.00195     0.78073
      C   43   -0.18630      1.99921     4.16821    0.01888     6.18630
      H   44    0.20957      0.00000     0.78918    0.00125     0.79043
      C   45   -0.18828      1.99920     4.17049    0.01858     6.18828
      H   46    0.20928      0.00000     0.78949    0.00123     0.79072
      C   47   -0.24294      1.99902     4.22374    0.02018     6.24294
      H   48    0.21815      0.00000     0.77988    0.00196     0.78185
      C   49    0.27084      1.99867     3.70408    0.02641     5.72916
      C   50   -0.24078      1.99903     4.22259    0.01917     6.24078
      H   51    0.22201      0.00000     0.77660    0.00139     0.77799
      C   52   -0.19100      1.99921     4.17277    0.01903     6.19100
      H   53    0.21005      0.00000     0.78876    0.00119     0.78995
      C   54   -0.19234      1.99921     4.17439    0.01874     6.19234
      H   55    0.20902      0.00000     0.78972    0.00126     0.79098
      C   56   -0.24656      1.99901     4.22839    0.01916     6.24656
      H   57    0.22612      0.00000     0.77214    0.00174     0.77388
      C   58   -0.03749      1.99935     4.01266    0.02549     6.03749
      H   59    0.19558      0.00000     0.80111    0.00331     0.80442
      C   60   -0.39060      1.99940     4.37694    0.01427     6.39060
      H   61    0.19929      0.00000     0.79888    0.00183     0.80071
      H   62    0.20258      0.00000     0.79539    0.00203     0.79742
      C   63   -0.60738      1.99941     4.59546    0.01251     6.60738
      H   64    0.22106      0.00000     0.77790    0.00103     0.77894
      H   65    0.20406      0.00000     0.79493    0.00102     0.79594
      H   66    0.21459      0.00000     0.78425    0.00116     0.78541
      C   67   -0.22096      1.99919     4.20253    0.01924     6.22096
      H   68    0.20942      0.00000     0.78944    0.00114     0.79058
      C   69   -0.22588      1.99918     4.20718    0.01952     6.22588
      H   70    0.20925      0.00000     0.78954    0.00121     0.79075
      C   71   -0.58994      1.99946     4.58405    0.00643     6.58994
      H   72    0.19911      0.00000     0.79950    0.00139     0.80089
      H   73    0.20740      0.00000     0.79145    0.00115     0.79260
      H   74    0.19744      0.00000     0.80109    0.00147     0.80256
 =======================================================================
   * Total *    0.00000    101.96198   212.98336    1.05467   316.00000

 1\1\GINC-G4NODEC3\SP\RB3LYP\def2TZVP\C36H31N1O4P2\ROOT\06-Nov-2024\0\\
 # nmr=giao b3lyp/def2TZVP pop=nbo scfcyc=200\\Ligand 42 SPE NoRh\\0,1\
 P,0,-0.347,-0.022,-0.192\P,0,2.13,-0.791,-0.458\O,0,-1.406,0.106,-1.44
 9\O,0,-1.36,-0.341,1.064\O,0,3.014,-1.815,0.481\O,0,2.787,-1.174,-1.90
 6\N,0,0.54,-1.409,-0.643\C,0,-2.479,1.001,-1.295\C,0,-2.419,2.197,-2.0
 31\H,0,-1.583,2.359,-2.699\C,0,-3.428,3.112,-1.902\H,0,-3.409,4.03,-2.
 476\C,0,-4.499,2.884,-1.003\C,0,-5.508,3.86,-0.806\H,0,-5.464,4.776,-1
 .383\C,0,-6.512,3.66,0.105\H,0,-7.275,4.414,0.252\C,0,-6.543,2.473,0.8

 Normal termination of Gaussian 16 at Wed Nov  6 17:57:44 2024.
