 Gaussian 16, Revision B.01,
 Gaussian 16:  ES64L-G16RevB.01 20-Dec-2017

 --------------------------------------------
 # nmr=giao b3lyp/def2TZVP pop=nbo scfcyc=200
 --------------------------------------------

 ------------------
 Ligand 43 SPE NoRh
 ------------------
 Symbolic Z-matrix:
 Charge =  0 Multiplicity = 1

                         Standard orientation:
 ---------------------------------------------------------------------
 Center     Atomic      Atomic             Coordinates (Angstroms)
 Number     Number       Type             X           Y           Z
 ---------------------------------------------------------------------
      1         15           0        1.387413   -0.069803   -0.907490
      2         15           0       -1.306383   -0.013371   -0.906360
      3          7           0        0.041876   -0.131655    0.197916
      4          6           0        0.143169    0.066608    1.677274
      5          1           0        1.161720   -0.250708    1.920936
      6          6           0       -0.812436   -0.860474    2.442213
      7          1           0       -0.680945   -1.880444    2.076400
      8          1           0       -1.846468   -0.587028    2.218892
      9          6           0       -0.600914   -0.844669    3.958351
     10          1           0       -1.235028   -1.594107    4.435470
     11          1           0       -0.849166    0.120770    4.399876
     12          1           0        0.435543   -1.076255    4.218440
     13          6           0        0.001923    1.536729    2.086889
     14          1           0        0.631659    2.178982    1.473249
     15          1           0        0.312388    1.666732    3.125162
     16          1           0       -1.027402    1.881909    1.999932
     17          6           0        2.413074    1.415986   -0.542460
     18          6           0        3.382957    1.425077    0.465853
     19          1           0        3.587952    0.528599    1.036243
     20          6           0        4.099717    2.584526    0.735569
     21          1           0        4.848449    2.583455    1.518595
     22          6           0        3.861778    3.741753   -0.000154
     23          1           0        4.425589    4.642546    0.210466
     24          6           0        2.906006    3.739399   -1.009696
     25          1           0        2.725846    4.635785   -1.589995
     26          6           0        2.185230    2.581390   -1.281820
     27          1           0        1.446223    2.575651   -2.073508
     28          6           0        2.501859   -1.482095   -0.517703
     29          6           0        2.099395   -2.550916    0.284033
     30          1           0        1.130692   -2.533619    0.764418
     31          6           0        2.944601   -3.638621    0.483921
     32          1           0        2.626018   -4.456180    1.118334
     33          6           0        4.192786   -3.675544   -0.126254
     34          1           0        4.848679   -4.522871    0.028131
     35          6           0        4.598981   -2.615745   -0.933793
     36          1           0        5.572725   -2.636548   -1.408070
     37          6           0        3.760917   -1.525543   -1.128318
     38          1           0        4.100934   -0.701178   -1.745404
     39          6           0       -2.314651    1.473182   -0.499506
     40          6           0       -3.316120    1.472655    0.478281
     41          1           0       -3.560097    0.564838    1.013213
     42          6           0       -4.010270    2.639766    0.771587
     43          1           0       -4.783656    2.628618    1.529633
     44          6           0       -3.715638    3.819479    0.092229
     45          1           0       -4.259739    4.726615    0.322018
     46          6           0       -2.723928    3.829546   -0.881850
     47          1           0       -2.494814    4.743281   -1.415034
     48          6           0       -2.028844    2.661581   -1.178054
     49          1           0       -1.259557    2.670732   -1.939594
     50          6           0       -2.430542   -1.458609   -0.705048
     51          6           0       -1.903080   -2.718859   -0.411543
     52          1           0       -0.850984   -2.826970   -0.191721
     53          6           0       -2.720509   -3.842818   -0.409134
     54          1           0       -2.299484   -4.810835   -0.168656
     55          6           0       -4.071160   -3.726425   -0.722454
     56          1           0       -4.706878   -4.603213   -0.720756
     57          6           0       -4.599412   -2.481795   -1.044741
     58          1           0       -5.647274   -2.383508   -1.298261
     59          6           0       -3.785768   -1.352654   -1.040233
     60          1           0       -4.216236   -0.393314   -1.296728
 ---------------------------------------------------------------------

 SCF Done:  E(RB3LYP) =  -1822.36510080     A.U. after   14 cycles

      1  P    Isotropic =   156.9261   Anisotropy =   175.2661

      2  P    Isotropic =   167.2597   Anisotropy =   140.0206

      3  N    Isotropic =   154.5145   Anisotropy =    18.8971

      4  C    Isotropic =   116.8437   Anisotropy =    50.4194

      5  H    Isotropic =    28.4310   Anisotropy =     3.1852

      6  C    Isotropic =   146.9519   Anisotropy =    18.8131

      7  H    Isotropic =    29.6608   Anisotropy =     5.8771

      8  H    Isotropic =    30.3987   Anisotropy =     6.7252

      9  C    Isotropic =   170.1947   Anisotropy =    23.3236

     10  H    Isotropic =    30.9660   Anisotropy =    10.9628

     11  H    Isotropic =    31.3049   Anisotropy =     8.2713

     12  H    Isotropic =    31.4047   Anisotropy =     8.9012

     13  C    Isotropic =   164.3657   Anisotropy =    21.7251

     14  H    Isotropic =    32.4705   Anisotropy =    10.1293

     15  H    Isotropic =    31.7860   Anisotropy =     8.6056

     16  H    Isotropic =    32.2892   Anisotropy =    10.3807

     17  C    Isotropic =    33.2463   Anisotropy =   207.5434

     18  C    Isotropic =    43.2607   Anisotropy =   188.1266

     19  H    Isotropic =    24.3058   Anisotropy =    10.5782

     20  C    Isotropic =    49.3021   Anisotropy =   184.2079

     21  H    Isotropic =    24.4499   Anisotropy =     6.3154

     22  C    Isotropic =    48.5798   Anisotropy =   188.6509

     23  H    Isotropic =    24.3067   Anisotropy =     4.2577

     24  C    Isotropic =    50.1245   Anisotropy =   183.6982

     25  H    Isotropic =    24.1386   Anisotropy =     5.5694

     26  C    Isotropic =    40.8795   Anisotropy =   184.5209

     27  H    Isotropic =    23.2915   Anisotropy =     8.3196

     28  C    Isotropic =    31.2542   Anisotropy =   185.3716

     29  C    Isotropic =    49.2103   Anisotropy =   184.2518

     30  H    Isotropic =    23.5637   Anisotropy =     9.7327

     31  C    Isotropic =    50.3384   Anisotropy =   182.7999

     32  H    Isotropic =    24.1414   Anisotropy =     6.8785

     33  C    Isotropic =    52.8027   Anisotropy =   180.1981

     34  H    Isotropic =    24.4645   Anisotropy =     4.2428

     35  C    Isotropic =    49.5723   Anisotropy =   184.2325

     36  H    Isotropic =    24.3858   Anisotropy =     5.4822

     37  C    Isotropic =    50.0904   Anisotropy =   186.0423

     38  H    Isotropic =    24.7342   Anisotropy =    11.4226

     39  C    Isotropic =    35.2020   Anisotropy =   204.3629

     40  C    Isotropic =    42.0288   Anisotropy =   191.2278

     41  H    Isotropic =    23.6553   Anisotropy =     9.8032

     42  C    Isotropic =    49.8561   Anisotropy =   183.5518

     43  H    Isotropic =    24.3431   Anisotropy =     6.0256

     44  C    Isotropic =    48.3114   Anisotropy =   188.7865

     45  H    Isotropic =    24.2916   Anisotropy =     4.3230

     46  C    Isotropic =    49.4073   Anisotropy =   184.4567

     47  H    Isotropic =    24.1571   Anisotropy =     5.7513

     48  C    Isotropic =    40.1234   Anisotropy =   184.6448

     49  H    Isotropic =    23.4002   Anisotropy =     8.3122

     50  C    Isotropic =    31.0621   Anisotropy =   188.4537

     51  C    Isotropic =    47.7686   Anisotropy =   191.9072

     52  H    Isotropic =    23.5242   Anisotropy =     9.6122

     53  C    Isotropic =    50.4657   Anisotropy =   182.5248

     54  H    Isotropic =    24.2587   Anisotropy =     6.9340

     55  C    Isotropic =    53.5196   Anisotropy =   179.2581

     56  H    Isotropic =    24.5644   Anisotropy =     4.2404

     57  C    Isotropic =    50.5698   Anisotropy =   182.2035

     58  H    Isotropic =    24.4813   Anisotropy =     5.7599

     59  C    Isotropic =    51.8188   Anisotropy =   179.4190

     60  H    Isotropic =    24.6148   Anisotropy =    12.0319

 The electronic state is 1-A.
 Alpha  occ. eigenvalues --  -77.06502 -77.06331 -14.32594 -10.21185 -10.18514
 Alpha  occ. eigenvalues --  -10.18428 -10.18373 -10.18365 -10.18345 -10.18313
 Alpha  occ. eigenvalues --  -10.18246 -10.18221 -10.18170 -10.18169 -10.18140
 Alpha  occ. eigenvalues --  -10.18111 -10.18094 -10.18063 -10.17592 -10.17589
 Alpha  occ. eigenvalues --  -10.17534 -10.17522 -10.17376 -10.17345 -10.17339
 Alpha  occ. eigenvalues --  -10.17319 -10.17233 -10.17110 -10.16947 -10.16332
 Alpha  occ. eigenvalues --  -10.15450  -6.54739  -6.54584  -4.70977  -4.70816
 Alpha  occ. eigenvalues --   -4.70815  -4.70659  -4.70393  -4.70239  -0.89943
 Alpha  occ. eigenvalues --   -0.86511  -0.86304  -0.85683  -0.85489  -0.79097
 Alpha  occ. eigenvalues --   -0.76705  -0.75920  -0.75595  -0.75495  -0.74885
 Alpha  occ. eigenvalues --   -0.74730  -0.74596  -0.74464  -0.72184  -0.65602
 Alpha  occ. eigenvalues --   -0.64765  -0.62475  -0.61468  -0.61319  -0.60708
 Alpha  occ. eigenvalues --   -0.60662  -0.60157  -0.59995  -0.58711  -0.56722
 Alpha  occ. eigenvalues --   -0.54669  -0.52491  -0.52167  -0.50869  -0.50506
 Alpha  occ. eigenvalues --   -0.47833  -0.47081  -0.46244  -0.46094  -0.45830
 Alpha  occ. eigenvalues --   -0.45697  -0.45417  -0.45284  -0.44854  -0.44199
 Alpha  occ. eigenvalues --   -0.43625  -0.43242  -0.42961  -0.42700  -0.42149
 Alpha  occ. eigenvalues --   -0.41983  -0.40807  -0.40729  -0.39870  -0.39033
 Alpha  occ. eigenvalues --   -0.38374  -0.37961  -0.37371  -0.37347  -0.36971
 Alpha  occ. eigenvalues --   -0.36645  -0.36185  -0.35611  -0.35399  -0.35267
 Alpha  occ. eigenvalues --   -0.35161  -0.34439  -0.34359  -0.32959  -0.32560
 Alpha  occ. eigenvalues --   -0.32358  -0.28123  -0.27409  -0.26947  -0.26702
 Alpha  occ. eigenvalues --   -0.26508  -0.26413  -0.25768  -0.25590  -0.24952
 Alpha  occ. eigenvalues --   -0.22518  -0.18110
 Alpha virt. eigenvalues --   -0.04230  -0.03292  -0.02727  -0.02459  -0.02102
 Alpha virt. eigenvalues --   -0.01403  -0.01188  -0.00868   0.02633   0.03303
 Alpha virt. eigenvalues --    0.04461   0.04741   0.05011   0.05635   0.05878

 Mulliken charges:
               1
     1  P    0.221034
     2  P    0.207577
     3  N   -0.299445
     4  C    0.011753
     5  H    0.081990
     6  C   -0.131386
     7  H    0.094440
     8  H    0.083554
     9  C   -0.360716
    10  H    0.117084
    11  H    0.118206
    12  H    0.105877
    13  C   -0.394497
    14  H    0.146711
    15  H    0.112126
    16  H    0.136034
    17  C   -0.022920
    18  C   -0.136092
    19  H    0.133336
    20  C   -0.119342
    21  H    0.109333
    22  C   -0.091051
    23  H    0.111526
    24  C   -0.123434
    25  H    0.108828
    26  C   -0.141553
    27  H    0.125568
    28  C    0.010497
    29  C   -0.099515
    30  H    0.118474
    31  C   -0.150644
    32  H    0.102927
    33  C   -0.101086
    34  H    0.106674
    35  C   -0.112396
    36  H    0.107830
    37  C   -0.187400
    38  H    0.117118
    39  C    0.036000
    40  C   -0.201171
    41  H    0.147458
    42  C   -0.102670
    43  H    0.109871
    44  C   -0.093494
    45  H    0.111964
    46  C   -0.122477
    47  H    0.108888
    48  C   -0.142441
    49  H    0.118896
    50  C    0.038933
    51  C   -0.152241
    52  H    0.130973
    53  C   -0.143001
    54  H    0.103577
    55  C   -0.099998
    56  H    0.105343
    57  C   -0.125907
    58  H    0.106407
    59  C   -0.189938
    60  H    0.138008
 Sum of Mulliken charges =  -0.00000

 Dipole moment (field-independent basis, Debye):
    X=              0.0721    Y=              1.5624    Z=              2.4224  Tot=              2.8835
 Quadrupole moment (field-independent basis, Debye-Ang):
   XX=           -185.7441   YY=           -182.6398   ZZ=           -203.4682
   XY=             -0.9298   XZ=             -1.0543   YZ=             -6.2903

 Summary of Natural Population Analysis:

                                       Natural Population
                Natural  -----------------------------------------------
    Atom  No    Charge         Core      Valence    Rydberg      Total
 -----------------------------------------------------------------------
      P    1    1.04892      9.99782     3.91275    0.04051    13.95108
      P    2    1.04386      9.99778     3.91761    0.04074    13.95614
      N    3   -1.00922      1.99956     5.97293    0.03673     8.00922
      C    4   -0.03984      1.99936     4.01539    0.02509     6.03984
      H    5    0.18983      0.00000     0.80696    0.00321     0.81017
      C    6   -0.38784      1.99940     4.37448    0.01396     6.38784
      H    7    0.19978      0.00000     0.79848    0.00174     0.80022
      H    8    0.19557      0.00000     0.80271    0.00172     0.80443
      C    9   -0.58921      1.99946     4.58328    0.00647     6.58921
      H   10    0.20734      0.00000     0.79148    0.00117     0.79266
      H   11    0.19904      0.00000     0.79959    0.00137     0.80096
      H   12    0.19621      0.00000     0.80236    0.00142     0.80379
      C   13   -0.61036      1.99941     4.59855    0.01240     6.61036
      H   14    0.21782      0.00000     0.78072    0.00145     0.78218
      H   15    0.20525      0.00000     0.79364    0.00111     0.79475
      H   16    0.20737      0.00000     0.79109    0.00154     0.79263
      C   17   -0.36078      1.99899     4.32640    0.03539     6.36078
      C   18   -0.19373      1.99908     4.17465    0.02000     6.19373
      H   19    0.21356      0.00000     0.78414    0.00230     0.78644
      C   20   -0.20563      1.99918     4.18738    0.01907     6.20563
      H   21    0.20867      0.00000     0.78996    0.00136     0.79133
      C   22   -0.19627      1.99919     4.17792    0.01916     6.19627
      H   23    0.20903      0.00000     0.78979    0.00117     0.79097
      C   24   -0.20673      1.99918     4.18829    0.01926     6.20673
      H   25    0.20971      0.00000     0.78903    0.00126     0.79029
      C   26   -0.18752      1.99910     4.16846    0.01997     6.18752
      H   27    0.21492      0.00000     0.78362    0.00147     0.78508
      C   28   -0.35084      1.99900     4.31706    0.03478     6.35084
      C   29   -0.21920      1.99907     4.19997    0.02015     6.21920
      H   30    0.20577      0.00000     0.79217    0.00207     0.79423
      C   31   -0.19797      1.99918     4.18006    0.01873     6.19797
      H   32    0.20648      0.00000     0.79222    0.00129     0.79352
      C   33   -0.21534      1.99919     4.19660    0.01955     6.21534
      H   34    0.20754      0.00000     0.79128    0.00117     0.79246
      C   35   -0.19686      1.99919     4.17901    0.01866     6.19686
      H   36    0.20824      0.00000     0.79050    0.00126     0.79176
      C   37   -0.20446      1.99909     4.18563    0.01974     6.20446
      H   38    0.21181      0.00000     0.78644    0.00175     0.78819
      C   39   -0.35833      1.99898     4.32474    0.03461     6.35833
      C   40   -0.19840      1.99908     4.17902    0.02030     6.19840
      H   41    0.21323      0.00000     0.78450    0.00226     0.78677
      C   42   -0.20811      1.99918     4.19005    0.01888     6.20811
      H   43    0.20890      0.00000     0.78975    0.00134     0.79110
      C   44   -0.19523      1.99919     4.17697    0.01907     6.19523
      H   45    0.20919      0.00000     0.78963    0.00117     0.79081
      C   46   -0.20474      1.99918     4.18689    0.01866     6.20474
      H   47    0.20999      0.00000     0.78875    0.00127     0.79001
      C   48   -0.18401      1.99910     4.16499    0.01992     6.18401
      H   49    0.21256      0.00000     0.78521    0.00223     0.78744
      C   50   -0.35056      1.99898     4.31761    0.03397     6.35056
      C   51   -0.20813      1.99908     4.18915    0.01990     6.20813
      H   52    0.20881      0.00000     0.78901    0.00218     0.79119
      C   53   -0.19693      1.99918     4.17920    0.01855     6.19693
      H   54    0.20693      0.00000     0.79179    0.00128     0.79307
      C   55   -0.21632      1.99919     4.19750    0.01964     6.21632
      H   56    0.20701      0.00000     0.79181    0.00118     0.79299
      C   57   -0.19778      1.99919     4.17986    0.01873     6.19778
      H   58    0.20731      0.00000     0.79142    0.00127     0.79269
      C   59   -0.21347      1.99909     4.19482    0.01956     6.21347
      H   60    0.21314      0.00000     0.78511    0.00175     0.78686
 =======================================================================
   * Total *   -0.00000     77.97165   155.28041    0.74794   234.00000

 Normal termination of Gaussian 16 at Wed Nov  6 17:27:09 2024.
