 Gaussian 16, Revision B.01,
 Gaussian 16:  ES64L-G16RevB.01 20-Dec-2017

 --------------------------------------------
 # nmr=giao b3lyp/def2TZVP pop=nbo scfcyc=200
 --------------------------------------------

 ------------------
 Ligand 45 SPE NoRh
 ------------------
 Symbolic Z-matrix:
 Charge =  0 Multiplicity = 1

                         Standard orientation:
 ---------------------------------------------------------------------
 Center     Atomic      Atomic             Coordinates (Angstroms)
 Number     Number       Type             X           Y           Z
 ---------------------------------------------------------------------
      1         15           0       -0.020370    0.086906   -0.288861
      2         15           0       -2.759522   -0.544565   -0.576709
      3          6           0        0.398834    1.809383    0.225520
      4          6           0        0.063502    2.881485   -0.603237
      5          1           0       -0.413501    2.692640   -1.557737
      6          6           0        0.339880    4.186915   -0.206989
      7          1           0        0.078772    5.013895   -0.855013
      8          6           0        0.954847    4.426080    1.016857
      9          1           0        1.173521    5.441124    1.324624
     10          6           0        1.293781    3.359930    1.846877
     11          1           0        1.777168    3.543820    2.797812
     12          6           0        1.019417    2.055160    1.454439
     13          1           0        1.300796    1.232523    2.100182
     14          6           0       -1.493456   -0.354487    0.792151
     15          1           0       -1.724418    0.438421    1.502660
     16          1           0       -1.373354   -1.280303    1.347818
     17          6           0       -4.138776    0.667218   -0.164289
     18          1           0       -4.393685    0.458187    0.878824
     19          6           0       -3.654738    2.117061   -0.265405
     20          1           0       -2.795912    2.321457    0.373246
     21          1           0       -4.457551    2.790546    0.041687
     22          1           0       -3.379547    2.371219   -1.290047
     23          6           0       -5.382370    0.434859   -1.030229
     24          1           0       -5.175994    0.607284   -2.088595
     25          1           0       -6.164518    1.137249   -0.736973
     26          1           0       -5.792099   -0.569516   -0.924341
     27          6           0       -3.510870   -2.257685   -0.353746
     28          1           0       -4.248968   -2.319341   -1.158936
     29          6           0       -4.228128   -2.444410    0.987664
     30          1           0       -4.649215   -3.450590    1.038700
     31          1           0       -5.048537   -1.740628    1.130261
     32          1           0       -3.541928   -2.340000    1.831254
     33          6           0       -2.465802   -3.355055   -0.588867
     34          1           0       -1.716703   -3.380051    0.206104
     35          1           0       -1.941943   -3.225342   -1.536989
     36          1           0       -2.954620   -4.331362   -0.599354
     37          6           0        1.419523   -0.955710    0.234417
     38          6           0        2.718284   -0.730496   -0.337345
     39          6           0        1.244387   -1.994796    1.123835
     40          6           0        3.010428    0.315426   -1.247534
     41          6           0        3.791054   -1.603267    0.037884
     42          6           0        2.307715   -2.845358    1.489440
     43          1           0        0.280989   -2.184165    1.573270
     44          6           0        4.271968    0.486456   -1.762659
     45          1           0        2.236402    1.014018   -1.529962
     46          6           0        5.080279   -1.399674   -0.512487
     47          6           0        3.551386   -2.655437    0.954495
     48          1           0        2.127017   -3.645658    2.195219
     49          6           0        5.319969   -0.380051   -1.396163
     50          1           0        4.465344    1.298492   -2.452234
     51          1           0        5.879891   -2.069409   -0.217346
     52          1           0        4.373136   -3.307321    1.228275
     53          1           0        6.311147   -0.233584   -1.806640
 ---------------------------------------------------------------------

 SCF Done:  E(RB3LYP) =  -1576.39116061     A.U. after   16 cycles

      1  P    Isotropic =   241.0650   Anisotropy =   115.1082

      2  P    Isotropic =   224.5400   Anisotropy =    75.6382

      3  C    Isotropic =    32.8668   Anisotropy =   208.8322

      4  C    Isotropic =    42.0470   Anisotropy =   180.5682

      5  H    Isotropic =    23.4896   Anisotropy =     7.9057

      6  C    Isotropic =    50.5475   Anisotropy =   183.1884

      7  H    Isotropic =    24.2436   Anisotropy =     5.3064

      8  C    Isotropic =    49.1355   Anisotropy =   188.3023

      9  H    Isotropic =    24.3971   Anisotropy =     3.8625

     10  C    Isotropic =    48.4040   Anisotropy =   185.6678

     11  H    Isotropic =    24.5787   Anisotropy =     6.5197

     12  C    Isotropic =    41.6381   Anisotropy =   186.7490

     13  H    Isotropic =    24.4583   Anisotropy =    11.8394

     14  C    Isotropic =   164.3547   Anisotropy =    21.4223

     15  H    Isotropic =    30.6735   Anisotropy =     4.1169

     16  H    Isotropic =    29.4210   Anisotropy =     6.5799

     17  C    Isotropic =   152.5009   Anisotropy =    19.5314

     18  H    Isotropic =    30.0222   Anisotropy =     4.4258

     19  C    Isotropic =   162.2510   Anisotropy =    31.2603

     20  H    Isotropic =    31.3133   Anisotropy =    10.6308

     21  H    Isotropic =    30.9762   Anisotropy =     9.8380

     22  H    Isotropic =    31.0597   Anisotropy =     7.1207

     23  C    Isotropic =   164.8771   Anisotropy =    32.9406

     24  H    Isotropic =    31.1721   Anisotropy =     8.2018

     25  H    Isotropic =    30.9361   Anisotropy =    10.9462

     26  H    Isotropic =    30.9491   Anisotropy =     8.4915

     27  C    Isotropic =   150.5315   Anisotropy =    16.9695

     28  H    Isotropic =    30.1443   Anisotropy =     7.2626

     29  C    Isotropic =   166.9272   Anisotropy =    27.1848

     30  H    Isotropic =    30.8761   Anisotropy =    11.3415

     31  H    Isotropic =    30.5200   Anisotropy =     7.5456

     32  H    Isotropic =    31.0257   Anisotropy =     5.6145

     33  C    Isotropic =   161.7854   Anisotropy =    33.0760

     34  H    Isotropic =    30.9896   Anisotropy =     7.3905

     35  H    Isotropic =    30.5281   Anisotropy =     7.3597

     36  H    Isotropic =    30.7237   Anisotropy =    10.6011

     37  C    Isotropic =    37.9351   Anisotropy =   187.1885

     38  C    Isotropic =    44.2900   Anisotropy =   205.0701

     39  C    Isotropic =    52.5941   Anisotropy =   176.2193

     40  C    Isotropic =    50.9562   Anisotropy =   181.7322

     41  C    Isotropic =    41.5103   Anisotropy =   218.1350

     42  C    Isotropic =    54.4511   Anisotropy =   174.0396

     43  H    Isotropic =    23.8410   Anisotropy =    11.7581

     44  C    Isotropic =    53.8083   Anisotropy =   177.8065

     45  H    Isotropic =    23.9295   Anisotropy =    12.8695

     46  C    Isotropic =    49.1683   Anisotropy =   159.9082

     47  C    Isotropic =    50.2521   Anisotropy =   156.7193

     48  H    Isotropic =    24.1756   Anisotropy =     6.6814

     49  C    Isotropic =    53.1169   Anisotropy =   179.1617

     50  H    Isotropic =    24.5076   Anisotropy =     8.0651

     51  H    Isotropic =    23.8469   Anisotropy =     7.1105

     52  H    Isotropic =    23.9035   Anisotropy =     6.7674

     53  H    Isotropic =    24.3042   Anisotropy =     5.0819

 The electronic state is 1-A.
 Alpha  occ. eigenvalues --  -77.04782 -77.03321 -10.18763 -10.18636 -10.18460
 Alpha  occ. eigenvalues --  -10.18354 -10.18128 -10.18098 -10.18095 -10.18065
 Alpha  occ. eigenvalues --  -10.17984 -10.17948 -10.17888 -10.17887 -10.17670
 Alpha  occ. eigenvalues --  -10.17516 -10.17511 -10.17430 -10.17422 -10.17363
 Alpha  occ. eigenvalues --  -10.17214 -10.16391 -10.16357 -10.16350 -10.16145
 Alpha  occ. eigenvalues --   -6.53316  -6.51927  -4.69471  -4.69435  -4.68949
 Alpha  occ. eigenvalues --   -4.68100  -4.68010  -4.67552  -0.87651  -0.86206
 Alpha  occ. eigenvalues --   -0.82483  -0.80548  -0.78340  -0.78156  -0.75850
 Alpha  occ. eigenvalues --   -0.75289  -0.74389  -0.73192  -0.71627  -0.69038
 Alpha  occ. eigenvalues --   -0.68679  -0.63934  -0.62574  -0.61787  -0.61157
 Alpha  occ. eigenvalues --   -0.61058  -0.59556  -0.58369  -0.55351  -0.52124
 Alpha  occ. eigenvalues --   -0.51747  -0.51258  -0.50115  -0.49587  -0.46923
 Alpha  occ. eigenvalues --   -0.46005  -0.45848  -0.45611  -0.44878  -0.44263
 Alpha  occ. eigenvalues --   -0.43912  -0.43115  -0.42864  -0.42382  -0.42111
 Alpha  occ. eigenvalues --   -0.41066  -0.40737  -0.40137  -0.39876  -0.39223
 Alpha  occ. eigenvalues --   -0.39128  -0.38805  -0.38734  -0.37736  -0.36741
 Alpha  occ. eigenvalues --   -0.35541  -0.35195  -0.35121  -0.34956  -0.34710
 Alpha  occ. eigenvalues --   -0.34252  -0.33901  -0.33520  -0.32020  -0.30748
 Alpha  occ. eigenvalues --   -0.29445  -0.29409  -0.26283  -0.25930  -0.25002
 Alpha  occ. eigenvalues --   -0.23519  -0.21468  -0.18473
 Alpha virt. eigenvalues --   -0.05027  -0.03162  -0.02337  -0.01756   0.00755
 Alpha virt. eigenvalues --    0.01887   0.02610   0.03491   0.04696   0.04817
 Alpha virt. eigenvalues --    0.05253   0.05791   0.06245   0.06967   0.07011

 Mulliken charges:
               1
     1  P    0.142686
     2  P    0.150736
     3  C   -0.039787
     4  C   -0.147960
     5  H    0.117165
     6  C   -0.100484
     7  H    0.110297
     8  C   -0.090041
     9  H    0.110917
    10  C   -0.123038
    11  H    0.108376
    12  C   -0.130591
    13  H    0.131550
    14  C   -0.360828
    15  H    0.130607
    16  H    0.108608
    17  C   -0.066093
    18  H    0.075873
    19  C   -0.362531
    20  H    0.130843
    21  H    0.107695
    22  H    0.107054
    23  C   -0.357918
    24  H    0.113255
    25  H    0.109827
    26  H    0.116284
    27  C   -0.092884
    28  H    0.085726
    29  C   -0.348705
    30  H    0.104109
    31  H    0.118233
    32  H    0.105244
    33  C   -0.337994
    34  H    0.091447
    35  H    0.130904
    36  H    0.110407
    37  C   -0.039083
    38  C    0.071942
    39  C   -0.081365
    40  C   -0.133816
    41  C    0.105630
    42  C   -0.158836
    43  H    0.088705
    44  C   -0.118871
    45  H    0.131903
    46  C   -0.164715
    47  C   -0.168490
    48  H    0.102404
    49  C   -0.103093
    50  H    0.107282
    51  H    0.098364
    52  H    0.096860
    53  H    0.106193
 Sum of Mulliken charges =  -0.00000

 Dipole moment (field-independent basis, Debye):
    X=             -0.6888    Y=              0.4790    Z=              1.8763  Tot=              2.0554
 Quadrupole moment (field-independent basis, Debye-Ang):
   XX=           -156.7143   YY=           -156.4494   ZZ=           -167.6543
   XY=              0.9035   XZ=             -1.2263   YZ=             -4.7173

 Summary of Natural Population Analysis:

                                       Natural Population
                Natural  -----------------------------------------------
    Atom  No    Charge         Core      Valence    Rydberg      Total
 -----------------------------------------------------------------------
      P    1    0.82431      9.99815     4.14478    0.03276    14.17569
      P    2    0.78360      9.99860     4.18403    0.03377    14.21640
      C    3   -0.32698      1.99900     4.29418    0.03379     6.32698
      C    4   -0.20041      1.99909     4.18071    0.02061     6.20041
      H    5    0.21880      0.00000     0.77955    0.00165     0.78120
      C    6   -0.20615      1.99918     4.18743    0.01954     6.20615
      H    7    0.20969      0.00000     0.78903    0.00128     0.79031
      C    8   -0.19934      1.99919     4.18101    0.01914     6.19934
      H    9    0.20861      0.00000     0.79021    0.00117     0.79139
      C   10   -0.20167      1.99919     4.18353    0.01895     6.20167
      H   11    0.20834      0.00000     0.79029    0.00137     0.79166
      C   12   -0.19626      1.99908     4.17719    0.02000     6.19626
      H   13    0.21224      0.00000     0.78555    0.00222     0.78776
      C   14   -1.01479      1.99944     4.98341    0.03193     7.01479
      H   15    0.24813      0.00000     0.74977    0.00210     0.75187
      H   16    0.23757      0.00000     0.75976    0.00267     0.76243
      C   17   -0.47629      1.99945     4.45451    0.02232     6.47629
      H   18    0.19236      0.00000     0.80420    0.00344     0.80764
      C   19   -0.59408      1.99943     4.58249    0.01216     6.59408
      H   20    0.20657      0.00000     0.79191    0.00151     0.79343
      H   21    0.20329      0.00000     0.79507    0.00164     0.79671
      H   22    0.20309      0.00000     0.79506    0.00184     0.79691
      C   23   -0.59697      1.99943     4.58562    0.01192     6.59697
      H   24    0.20471      0.00000     0.79340    0.00189     0.79529
      H   25    0.20490      0.00000     0.79351    0.00159     0.79510
      H   26    0.20231      0.00000     0.79626    0.00143     0.79769
      C   27   -0.47473      1.99945     4.45155    0.02372     6.47473
      H   28    0.21730      0.00000     0.78101    0.00169     0.78270
      C   29   -0.60191      1.99943     4.59027    0.01220     6.60191
      H   30    0.20020      0.00000     0.79790    0.00189     0.79980
      H   31    0.20256      0.00000     0.79610    0.00133     0.79744
      H   32    0.19460      0.00000     0.80371    0.00169     0.80540
      C   33   -0.59442      1.99943     4.58340    0.01159     6.59442
      H   34    0.19287      0.00000     0.80554    0.00159     0.80713
      H   35    0.21774      0.00000     0.78097    0.00129     0.78226
      H   36    0.20402      0.00000     0.79442    0.00157     0.79598
      C   37   -0.28508      1.99894     4.25652    0.02962     6.28508
      C   38   -0.06188      1.99901     4.04048    0.02239     6.06188
      C   39   -0.21384      1.99908     4.19578    0.01897     6.21384
      C   40   -0.18034      1.99910     4.16374    0.01750     6.18034
      C   41   -0.05499      1.99908     4.03585    0.02006     6.05499
      C   42   -0.20262      1.99917     4.18437    0.01908     6.20262
      H   43    0.19451      0.00000     0.80276    0.00273     0.80549
      C   44   -0.19900      1.99919     4.18120    0.01860     6.19900
      H   45    0.21694      0.00000     0.78099    0.00206     0.78306
      C   46   -0.17661      1.99913     4.15891    0.01857     6.17661
      C   47   -0.18031      1.99912     4.16227    0.01892     6.18031
      H   48    0.20747      0.00000     0.79131    0.00123     0.79253
      C   49   -0.20452      1.99918     4.18618    0.01916     6.20452
      H   50    0.20838      0.00000     0.79037    0.00125     0.79162
      H   51    0.20469      0.00000     0.79386    0.00145     0.79531
      H   52    0.20510      0.00000     0.79346    0.00143     0.79490
      H   53    0.20826      0.00000     0.79060    0.00114     0.79174
 =======================================================================
   * Total *   -0.00000     65.97852   129.44603    0.57545   196.00000

 Normal termination of Gaussian 16 at Tue Jan  2 09:12:38 2001.
