 Gaussian 16, Revision B.01,
 Gaussian 16:  ES64L-G16RevB.01 20-Dec-2017

 --------------------------------------------
 # nmr=giao b3lyp/def2TZVP pop=nbo scfcyc=200
 --------------------------------------------

 ------------------
 Ligand 48 SPE NoRh
 ------------------
 Symbolic Z-matrix:
 Charge =  0 Multiplicity = 1

                         Standard orientation:
 ---------------------------------------------------------------------
 Center     Atomic      Atomic             Coordinates (Angstroms)
 Number     Number       Type             X           Y           Z
 ---------------------------------------------------------------------
      1         15           0       -2.825968   -0.338424   -0.809947
      2         15           0       -0.088294   -0.136945   -0.049920
      3          6           0        0.215151    2.658136   -0.213689
      4          1           0        0.039858    2.517039   -1.273100
      5          6           0       -4.083389    0.990201   -0.370828
      6          1           0       -4.534769    0.648387    0.565914
      7          6           0       -3.416865    2.345408   -0.119001
      8          1           0       -4.175725    3.070946    0.184067
      9          1           0       -2.933799    2.725937   -1.020386
     10          1           0       -2.668278    2.305772    0.670829
     11          6           0       -5.182880    1.099320   -1.434381
     12          1           0       -5.908235    1.856661   -1.129301
     13          1           0       -5.728089    0.167553   -1.578828
     14          1           0       -4.779488    1.410977   -2.399997
     15          6           0       -3.831306   -1.925375   -0.973881
     16          1           0       -4.444837   -1.749572   -1.862815
     17          6           0       -4.757264   -2.193527    0.217855
     18          1           0       -4.194006   -2.318479    1.146168
     19          1           0       -5.309464   -3.120563    0.049434
     20          1           0       -5.490385   -1.401595    0.371393
     21          6           0       -2.925571   -3.129372   -1.260533
     22          1           0       -2.257619   -2.947857   -2.103023
     23          1           0       -3.540225   -4.002296   -1.493749
     24          1           0       -2.312407   -3.392668   -0.395557
     25          6           0       -1.755100   -0.590191    0.701644
     26          1           0       -1.783929   -1.647101    0.959052
     27          1           0       -2.029154   -0.006661    1.580630
     28          6           0        1.152219   -1.251934    0.788936
     29          6           0        0.714030   -2.022168    1.875126
     30          1           0       -0.296076   -1.924234    2.243852
     31          6           0        1.549786   -2.923246    2.521882
     32          1           0        1.176725   -3.496812    3.360811
     33          6           0        2.855551   -3.079607    2.080147
     34          1           0        3.521575   -3.781575    2.566253
     35          6           0        3.311641   -2.311119    1.019677
     36          1           0        4.340957   -2.405573    0.698509
     37          6           0        2.494077   -1.381770    0.362684
     38          6           0        3.769549   -1.237693   -1.787531
     39          1           0        3.679621   -2.313580   -1.877695
     40          6           0        3.152137   -0.582301   -0.713318
     41          6           0        4.501679   -0.527652   -2.730175
     42          1           0        4.972366   -1.053994   -3.551934
     43          6           0        4.643725    0.851765   -2.611742
     44          1           0        5.227526    1.403410   -3.337169
     45          6           0        4.047592    1.512598   -1.543495
     46          1           0        4.175024    2.582541   -1.427231
     47          6           0        3.310114    0.802651   -0.600232
     48          1           0        2.892202    1.323939    0.248604
     49          6           0        0.227994    1.552109    0.636044
     50          6           0        0.466190    1.736866    2.001572
     51          1           0        0.501128    0.888013    2.673874
     52          6           0        0.682436    3.014047    2.505325
     53          1           0        0.870552    3.148920    3.563397
     54          6           0        0.666201    4.114951    1.652900
     55          1           0        0.838699    5.107980    2.047512
     56          6           0        0.432542    3.935498    0.293478
     57          1           0        0.422752    4.789454   -0.372303
 ---------------------------------------------------------------------

 SCF Done:  E(RB3LYP) =  -1653.83177502     A.U. after   15 cycles

      1  P    Isotropic =   237.1593   Anisotropy =    52.9395

      2  P    Isotropic =   251.0441   Anisotropy =   119.1390

      3  C    Isotropic =    40.6420   Anisotropy =   184.6201

      4  H    Isotropic =    23.8648   Anisotropy =     6.9372

      5  C    Isotropic =   152.9627   Anisotropy =    19.1429

      6  H    Isotropic =    30.1267   Anisotropy =     4.6777

      7  C    Isotropic =   162.0407   Anisotropy =    31.0012

      8  H    Isotropic =    31.2619   Anisotropy =     9.5501

      9  H    Isotropic =    31.5061   Anisotropy =     6.7728

     10  H    Isotropic =    32.1186   Anisotropy =    11.9841

     11  C    Isotropic =   164.6023   Anisotropy =    33.8342

     12  H    Isotropic =    31.0560   Anisotropy =    11.1023

     13  H    Isotropic =    31.0705   Anisotropy =     8.7100

     14  H    Isotropic =    31.3146   Anisotropy =     8.0737

     15  C    Isotropic =   150.6818   Anisotropy =    16.9128

     16  H    Isotropic =    30.1703   Anisotropy =     7.1882

     17  C    Isotropic =   167.2513   Anisotropy =    27.0216

     18  H    Isotropic =    31.1516   Anisotropy =     5.7581

     19  H    Isotropic =    30.9982   Anisotropy =    11.4385

     20  H    Isotropic =    30.6050   Anisotropy =     7.6301

     21  C    Isotropic =   162.4467   Anisotropy =    33.4337

     22  H    Isotropic =    30.6634   Anisotropy =     8.4777

     23  H    Isotropic =    30.8443   Anisotropy =    10.7572

     24  H    Isotropic =    31.2666   Anisotropy =     5.8755

     25  C    Isotropic =   160.4376   Anisotropy =    19.0262

     26  H    Isotropic =    29.6973   Anisotropy =     5.7157

     27  H    Isotropic =    30.3963   Anisotropy =     4.0720

     28  C    Isotropic =    33.9540   Anisotropy =   195.0805

     29  C    Isotropic =    46.0396   Anisotropy =   178.9266

     30  H    Isotropic =    23.6539   Anisotropy =    12.0553

     31  C    Isotropic =    51.8794   Anisotropy =   179.3753

     32  H    Isotropic =    24.2981   Anisotropy =     5.9685

     33  C    Isotropic =    51.8785   Anisotropy =   179.6166

     34  H    Isotropic =    24.3940   Anisotropy =     4.3726

     35  C    Isotropic =    43.9700   Anisotropy =   165.1666

     36  H    Isotropic =    24.5758   Anisotropy =     9.9536

     37  C    Isotropic =    27.5780   Anisotropy =   189.0669

     38  C    Isotropic =    48.7442   Anisotropy =   168.6733

     39  H    Isotropic =    24.3306   Anisotropy =     8.6838

     40  C    Isotropic =    31.0669   Anisotropy =   192.9791

     41  C    Isotropic =    50.3789   Anisotropy =   182.9981

     42  H    Isotropic =    24.2943   Anisotropy =     4.8847

     43  C    Isotropic =    51.7403   Anisotropy =   184.5599

     44  H    Isotropic =    24.4939   Anisotropy =     4.6966

     45  C    Isotropic =    51.9797   Anisotropy =   181.7621

     46  H    Isotropic =    24.8654   Anisotropy =     7.8858

     47  C    Isotropic =    45.6425   Anisotropy =   185.6566

     48  H    Isotropic =    25.7376   Anisotropy =     8.7487

     49  C    Isotropic =    32.4376   Anisotropy =   211.5329

     50  C    Isotropic =    42.0704   Anisotropy =   192.2658

     51  H    Isotropic =    24.0343   Anisotropy =    11.5141

     52  C    Isotropic =    48.9123   Anisotropy =   184.6044

     53  H    Isotropic =    24.3200   Anisotropy =     6.3316

     54  C    Isotropic =    49.1788   Anisotropy =   187.4590

     55  H    Isotropic =    24.3162   Anisotropy =     3.8822

     56  C    Isotropic =    50.3965   Anisotropy =   183.7166

     57  H    Isotropic =    24.3151   Anisotropy =     4.7775

 The electronic state is 1-A.
 Alpha  occ. eigenvalues --  -77.04720 -77.03264 -10.18988 -10.18481 -10.18353
 Alpha  occ. eigenvalues --  -10.18337 -10.18192 -10.18051 -10.18013 -10.18003
 Alpha  occ. eigenvalues --  -10.17991 -10.17942 -10.17860 -10.17748 -10.17591
 Alpha  occ. eigenvalues --  -10.17502 -10.17443 -10.17403 -10.17215 -10.17162
 Alpha  occ. eigenvalues --  -10.17138 -10.17102 -10.16988 -10.16281 -10.16266
 Alpha  occ. eigenvalues --  -10.16264 -10.15876  -6.53192  -6.51865  -4.69351
 Alpha  occ. eigenvalues --   -4.69307  -4.68831  -4.68036  -4.67952  -4.67494
 Alpha  occ. eigenvalues --   -0.87037  -0.86236  -0.84829  -0.80440  -0.78198
 Alpha  occ. eigenvalues --   -0.77817  -0.76980  -0.75328  -0.74744  -0.74421
 Alpha  occ. eigenvalues --   -0.72431  -0.72008  -0.68911  -0.68527  -0.63827
 Alpha  occ. eigenvalues --   -0.62178  -0.61834  -0.61097  -0.60703  -0.59711
 Alpha  occ. eigenvalues --   -0.58279  -0.57957  -0.55524  -0.52811  -0.51483
 Alpha  occ. eigenvalues --   -0.51172  -0.49491  -0.46811  -0.46600  -0.46166
 Alpha  occ. eigenvalues --   -0.45851  -0.45818  -0.45437  -0.44732  -0.44399
 Alpha  occ. eigenvalues --   -0.43707  -0.43318  -0.42886  -0.42499  -0.42040
 Alpha  occ. eigenvalues --   -0.41915  -0.40998  -0.40083  -0.39616  -0.39528
 Alpha  occ. eigenvalues --   -0.38740  -0.38612  -0.37731  -0.37452  -0.37047
 Alpha  occ. eigenvalues --   -0.36358  -0.35485  -0.35207  -0.35057  -0.34893
 Alpha  occ. eigenvalues --   -0.34609  -0.34288  -0.33863  -0.33661  -0.32213
 Alpha  occ. eigenvalues --   -0.30558  -0.29290  -0.27258  -0.26659  -0.26395
 Alpha  occ. eigenvalues --   -0.25909  -0.25229  -0.23732  -0.22029  -0.18903
 Alpha virt. eigenvalues --   -0.03784  -0.03076  -0.02300  -0.01601  -0.00511
 Alpha virt. eigenvalues --    0.00301   0.02101   0.02614   0.03637   0.04600
 Alpha virt. eigenvalues --    0.04987   0.05265   0.05597   0.06121   0.06683

 Mulliken charges:
               1
     1  P    0.150478
     2  P    0.158380
     3  C   -0.120161
     4  H    0.117155
     5  C   -0.054517
     6  H    0.072777
     7  C   -0.363310
     8  H    0.106858
     9  H    0.104454
    10  H    0.134763
    11  C   -0.357360
    12  H    0.108939
    13  H    0.115808
    14  H    0.113301
    15  C   -0.099937
    16  H    0.086471
    17  C   -0.345181
    18  H    0.104322
    19  H    0.104521
    20  H    0.118556
    21  C   -0.342540
    22  H    0.129780
    23  H    0.108885
    24  H    0.101875
    25  C   -0.386313
    26  H    0.111254
    27  H    0.130212
    28  C   -0.043263
    29  C   -0.140791
    30  H    0.113805
    31  C   -0.150770
    32  H    0.104687
    33  C   -0.092050
    34  H    0.106329
    35  C   -0.227472
    36  H    0.121880
    37  C    0.128547
    38  C   -0.213546
    39  H    0.116345
    40  C    0.180342
    41  C   -0.103038
    42  H    0.105443
    43  C   -0.108208
    44  H    0.106057
    45  C   -0.126496
    46  H    0.105452
    47  C   -0.208515
    48  H    0.173875
    49  C   -0.071913
    50  C   -0.130258
    51  H    0.132391
    52  C   -0.128688
    53  H    0.108570
    54  C   -0.090674
    55  H    0.111433
    56  C   -0.099723
    57  H    0.110782
 Sum of Mulliken charges =  -0.00000

 Dipole moment (field-independent basis, Debye):
    X=             -0.9070    Y=              0.3207    Z=              1.7266  Tot=              1.9766
 Quadrupole moment (field-independent basis, Debye-Ang):
   XX=           -172.4240   YY=           -167.0181   ZZ=           -175.2366
   XY=              1.4664   XZ=             -3.2855   YZ=             -1.4472

 Summary of Natural Population Analysis:

                                       Natural Population
                Natural  -----------------------------------------------
    Atom  No    Charge         Core      Valence    Rydberg      Total
 -----------------------------------------------------------------------
      P    1    0.78458      9.99858     4.18348    0.03337    14.21542
      P    2    0.82474      9.99816     4.14454    0.03255    14.17526
      C    3   -0.19235      1.99908     4.17251    0.02076     6.19235
      H    4    0.22261      0.00000     0.77584    0.00155     0.77739
      C    5   -0.47646      1.99945     4.45459    0.02241     6.47646
      H    6    0.19190      0.00000     0.80462    0.00348     0.80810
      C    7   -0.59355      1.99943     4.58178    0.01235     6.59355
      H    8    0.20245      0.00000     0.79592    0.00163     0.79755
      H    9    0.20368      0.00000     0.79453    0.00179     0.79632
      H   10    0.20902      0.00000     0.78957    0.00141     0.79098
      C   11   -0.59661      1.99943     4.58537    0.01182     6.59661
      H   12    0.20462      0.00000     0.79378    0.00160     0.79538
      H   13    0.20186      0.00000     0.79669    0.00145     0.79814
      H   14    0.20487      0.00000     0.79323    0.00190     0.79513
      C   15   -0.47132      1.99945     4.44819    0.02368     6.47132
      H   16    0.21700      0.00000     0.78134    0.00165     0.78300
      C   17   -0.60255      1.99943     4.59094    0.01218     6.60255
      H   18    0.19526      0.00000     0.80309    0.00165     0.80474
      H   19    0.20041      0.00000     0.79772    0.00187     0.79959
      H   20    0.20255      0.00000     0.79612    0.00133     0.79745
      C   21   -0.59503      1.99943     4.58405    0.01155     6.59503
      H   22    0.21739      0.00000     0.78130    0.00130     0.78261
      H   23    0.20389      0.00000     0.79454    0.00157     0.79611
      H   24    0.19369      0.00000     0.80477    0.00154     0.80631
      C   25   -1.02408      1.99945     4.99270    0.03193     7.02408
      H   26    0.24368      0.00000     0.75371    0.00261     0.75632
      H   27    0.23931      0.00000     0.75825    0.00244     0.76069
      C   28   -0.30112      1.99891     4.27274    0.02947     6.30112
      C   29   -0.21116      1.99911     4.19225    0.01981     6.21116
      H   30    0.20017      0.00000     0.79716    0.00267     0.79983
      C   31   -0.20489      1.99917     4.18675    0.01897     6.20489
      H   32    0.20670      0.00000     0.79206    0.00124     0.79330
      C   33   -0.20316      1.99917     4.18504    0.01894     6.20316
      H   34    0.20877      0.00000     0.79001    0.00121     0.79123
      C   35   -0.18692      1.99910     4.16989    0.01793     6.18692
      H   36    0.21020      0.00000     0.78839    0.00141     0.78980
      C   37   -0.03605      1.99897     4.01348    0.02360     6.03605
      C   38   -0.19313      1.99909     4.17597    0.01807     6.19313
      H   39    0.20863      0.00000     0.78991    0.00146     0.79137
      C   40   -0.04448      1.99903     4.02471    0.02074     6.04448
      C   41   -0.20130      1.99919     4.18347    0.01863     6.20130
      H   42    0.20745      0.00000     0.79134    0.00121     0.79255
      C   43   -0.20760      1.99919     4.18930    0.01911     6.20760
      H   44    0.20697      0.00000     0.79188    0.00115     0.79303
      C   45   -0.20000      1.99919     4.18182    0.01899     6.20000
      H   46    0.20797      0.00000     0.79078    0.00126     0.79203
      C   47   -0.19165      1.99907     4.17405    0.01853     6.19165
      H   48    0.21714      0.00000     0.78063    0.00222     0.78286
      C   49   -0.32422      1.99899     4.29105    0.03418     6.32422
      C   50   -0.20504      1.99907     4.18634    0.01964     6.20504
      H   51    0.21127      0.00000     0.78636    0.00238     0.78873
      C   52   -0.20542      1.99919     4.18729    0.01895     6.20542
      H   53    0.20848      0.00000     0.79014    0.00138     0.79152
      C   54   -0.20075      1.99919     4.18246    0.01909     6.20075
      H   55    0.20893      0.00000     0.78989    0.00118     0.79107
      C   56   -0.20732      1.99918     4.18870    0.01944     6.20732
      H   57    0.20995      0.00000     0.78877    0.00128     0.79005
 =======================================================================
   * Total *    0.00000     69.97669   139.40580    0.61751   210.00000

 Normal termination of Gaussian 16 at Tue Jan  2 09:53:32 2001.
