 Gaussian 16, Revision B.01,
 Gaussian 16:  ES64L-G16RevB.01 20-Dec-2017

 --------------------------------------------
 # nmr=giao b3lyp/def2TZVP pop=nbo scfcyc=200
 --------------------------------------------

 ------------------
 Ligand 52 SPE NoRh
 ------------------
 Symbolic Z-matrix:
 Charge =  0 Multiplicity = 1

                         Standard orientation:
 ---------------------------------------------------------------------
 Center     Atomic      Atomic             Coordinates (Angstroms)
 Number     Number       Type             X           Y           Z
 ---------------------------------------------------------------------
      1          6           0        3.048428   -1.478460   -0.830073
      2          6           0        4.361990   -1.316256   -0.380662
      3          1           0        4.811933   -0.338268   -0.314521
      4          6           0        5.120497   -2.421175   -0.003279
      5          1           0        6.136909   -2.275681    0.341431
      6          6           0        4.579340   -3.699036   -0.063927
      7          1           0        5.171996   -4.554667    0.232971
      8          6           0        3.274237   -3.873700   -0.515127
      9          1           0        2.846697   -4.867222   -0.571178
     10          6           0        2.519453   -2.774458   -0.901885
     11          1           0        1.507392   -2.922509   -1.261878
     12          6           0        2.854727    1.527758   -1.588327
     13          6           0        1.821705    2.529502   -2.135351
     14          1           0        1.030459    2.728516   -1.413002
     15          1           0        1.364324    2.179581   -3.063122
     16          1           0        2.326641    3.475772   -2.343434
     17          6           0        3.940956    1.287071   -2.656978
     18          1           0        3.532528    0.865553   -3.575716
     19          1           0        4.739581    0.632525   -2.311599
     20          1           0        4.390451    2.249711   -2.913095
     21          6           0        3.485966    2.115821   -0.317703
     22          1           0        4.032122    3.021424   -0.596569
     23          1           0        4.196222    1.448854    0.167013
     24          1           0        2.735086    2.398871    0.412678
     25          6           0        0.554036    0.136208    1.320162
     26          1           0       -0.494595   -0.071944    1.541746
     27          6           0        1.371824   -0.949247    2.017213
     28          1           0        1.107127   -1.930269    1.626744
     29          1           0        1.155789   -0.941796    3.086329
     30          1           0        2.445377   -0.814982    1.886412
     31          6           0        0.806570    1.553850    1.829049
     32          6           0        0.018276    2.607344    1.354290
     33          1           0       -0.739169    2.411705    0.606215
     34          6           0        0.189018    3.899176    1.837321
     35          1           0       -0.434012    4.699855    1.459240
     36          6           0        1.144802    4.162188    2.815249
     37          1           0        1.273932    5.167557    3.195050
     38          6           0        1.920904    3.121390    3.306596
     39          1           0        2.659733    3.309928    4.075361
     40          6           0        1.751711    1.826945    2.819471
     41          1           0        2.368905    1.036646    3.225105
     42          6           0       -3.113987    0.703695   -1.208299
     43          6           0       -3.518287    1.587410   -2.198658
     44          1           0       -2.796196    2.279173   -2.612443
     45          6           0       -4.842487    1.587183   -2.617998
     46          1           0       -5.165095    2.278641   -3.385609
     47          6           0       -4.000560   -0.188241   -0.595634
     48          6           0       -3.589853   -1.083356    0.509438
     49          6           0       -2.915524   -2.850692    2.599738
     50          1           0       -2.656987   -3.539319    3.394049
     51          6           0       -2.050474   -2.676004    1.528055
     52          1           0       -1.123912   -3.229672    1.461092
     53          6           0       -2.382473   -1.792581    0.509315
     54          7           0        0.615800    0.003504   -0.180635
     55          8           0       -1.787946    0.786524   -0.765285
     56          8           0       -1.503300   -1.733370   -0.579531
     57         15           0        1.921642   -0.119259   -1.382131
     58         15           0       -0.709235   -0.407532   -1.152996
     59          6           0       -4.111339   -2.140399    2.642629
     60          1           0       -4.787602   -2.260232    3.478677
     61          6           0       -4.436847   -1.273652    1.610860
     62          1           0       -5.363793   -0.715757    1.654953
     63          6           0       -5.327341   -0.173460   -1.048974
     64          1           0       -6.035141   -0.868548   -0.615449
     65          6           0       -5.746279    0.697865   -2.044045
     66          1           0       -6.777364    0.682514   -2.372370
 ---------------------------------------------------------------------

 SCF Done:  E(RB3LYP) =  -2050.36462528     A.U. after   14 cycles

      1  C    Isotropic =    33.1306   Anisotropy =   192.1112

      2  C    Isotropic =    47.4543   Anisotropy =   183.1846

      3  H    Isotropic =    23.8121   Anisotropy =    11.4707

      4  C    Isotropic =    50.6991   Anisotropy =   182.3978

      5  H    Isotropic =    24.3802   Anisotropy =     5.8957

      6  C    Isotropic =    51.0211   Anisotropy =   184.2732

      7  H    Isotropic =    24.3923   Anisotropy =     4.0468

      8  C    Isotropic =    49.6706   Anisotropy =   184.3428

      9  H    Isotropic =    24.1524   Anisotropy =     6.0695

     10  C    Isotropic =    42.6927   Anisotropy =   188.2099

     11  H    Isotropic =    23.5562   Anisotropy =     9.5066

     12  C    Isotropic =   137.4473   Anisotropy =    22.9940

     13  C    Isotropic =   152.9731   Anisotropy =    42.5073

     14  H    Isotropic =    30.5534   Anisotropy =     7.0002

     15  H    Isotropic =    30.6111   Anisotropy =     8.0167

     16  H    Isotropic =    31.4897   Anisotropy =     8.4627

     17  C    Isotropic =   154.7697   Anisotropy =    43.7560

     18  H    Isotropic =    30.7092   Anisotropy =     8.4848

     19  H    Isotropic =    30.5266   Anisotropy =     8.1223

     20  H    Isotropic =    31.2801   Anisotropy =     9.9755

     21  C    Isotropic =   155.0849   Anisotropy =    37.6272

     22  H    Isotropic =    31.5498   Anisotropy =     8.5579

     23  H    Isotropic =    30.3577   Anisotropy =     6.1328

     24  H    Isotropic =    32.3543   Anisotropy =    16.9079

     25  C    Isotropic =   121.6841   Anisotropy =    29.5674

     26  H    Isotropic =    26.9725   Anisotropy =     8.8698

     27  C    Isotropic =   162.3008   Anisotropy =    12.0884

     28  H    Isotropic =    30.9147   Anisotropy =     4.2163

     29  H    Isotropic =    30.9739   Anisotropy =     9.0493

     30  H    Isotropic =    30.7901   Anisotropy =     6.8425

     31  C    Isotropic =    30.7829   Anisotropy =   200.6326

     32  C    Isotropic =    45.2554   Anisotropy =   190.8380

     33  H    Isotropic =    23.5646   Anisotropy =     9.4947

     34  C    Isotropic =    49.5235   Anisotropy =   184.7254

     35  H    Isotropic =    24.3674   Anisotropy =     6.9710

     36  C    Isotropic =    51.6540   Anisotropy =   183.5884

     37  H    Isotropic =    24.5304   Anisotropy =     3.9193

     38  C    Isotropic =    50.8388   Anisotropy =   182.6354

     39  H    Isotropic =    24.4940   Anisotropy =     5.3981

     40  C    Isotropic =    51.8412   Anisotropy =   184.7800

     41  H    Isotropic =    24.5847   Anisotropy =    11.0635

     42  C    Isotropic =    23.0254   Anisotropy =   115.4933

     43  C    Isotropic =    56.1559   Anisotropy =   151.7798

     44  H    Isotropic =    24.3051   Anisotropy =     8.3800

     45  C    Isotropic =    48.8929   Anisotropy =   181.1028

     46  H    Isotropic =    24.2210   Anisotropy =     5.4376

     47  C    Isotropic =    43.4349   Anisotropy =   158.9102

     48  C    Isotropic =    44.9085   Anisotropy =   163.4360

     49  C    Isotropic =    49.8015   Anisotropy =   180.4556

     50  H    Isotropic =    24.4603   Anisotropy =     5.8273

     51  C    Isotropic =    56.3229   Anisotropy =   154.4060

     52  H    Isotropic =    24.3895   Anisotropy =     7.4497

     53  C    Isotropic =    20.4443   Anisotropy =   133.4322

     54  N    Isotropic =    95.5987   Anisotropy =    67.0587

     55  O    Isotropic =   129.8236   Anisotropy =    91.8238

     56  O    Isotropic =   137.9067   Anisotropy =    76.4958

     57  P    Isotropic =   183.8937   Anisotropy =    96.3394

     58  P    Isotropic =   116.8744   Anisotropy =   205.0377

     59  C    Isotropic =    55.0187   Anisotropy =   177.2897

     60  H    Isotropic =    24.5463   Anisotropy =     4.2852

     61  C    Isotropic =    46.9651   Anisotropy =   167.6204

     62  H    Isotropic =    24.2212   Anisotropy =     8.1803

     63  C    Isotropic =    47.6614   Anisotropy =   167.4770

     64  H    Isotropic =    24.1698   Anisotropy =     8.9981

     65  C    Isotropic =    54.0775   Anisotropy =   177.6966

     66  H    Isotropic =    24.3801   Anisotropy =     4.5688

 The electronic state is 1-A.
 Alpha  occ. eigenvalues --  -77.11685 -77.06491 -19.15101 -19.14988 -14.32966
 Alpha  occ. eigenvalues --  -10.24248 -10.24168 -10.22252 -10.19599 -10.19480
 Alpha  occ. eigenvalues --  -10.19453 -10.18695 -10.18488 -10.18390 -10.18350
 Alpha  occ. eigenvalues --  -10.18277 -10.18210 -10.18020 -10.18019 -10.17973
 Alpha  occ. eigenvalues --  -10.17948 -10.17915 -10.17913 -10.17883 -10.17872
 Alpha  occ. eigenvalues --  -10.17769 -10.17640 -10.17569 -10.17540 -10.17512
 Alpha  occ. eigenvalues --  -10.17071 -10.16404 -10.16316 -10.15868 -10.15500
 Alpha  occ. eigenvalues --   -6.59075  -6.54740  -4.75357  -4.75225  -4.74661
 Alpha  occ. eigenvalues --   -4.71017  -4.70787  -4.70365  -1.06869  -1.03121
 Alpha  occ. eigenvalues --   -0.90515  -0.87574  -0.86223  -0.85731  -0.85536
 Alpha  occ. eigenvalues --   -0.81343  -0.78963  -0.78275  -0.75823  -0.75359
 Alpha  occ. eigenvalues --   -0.75289  -0.74886  -0.74813  -0.73075  -0.72806
 Alpha  occ. eigenvalues --   -0.68949  -0.68589  -0.65954  -0.65469  -0.63848
 Alpha  occ. eigenvalues --   -0.62284  -0.61082  -0.60806  -0.60620  -0.59867
 Alpha  occ. eigenvalues --   -0.59247  -0.59123  -0.57067  -0.53812  -0.53389
 Alpha  occ. eigenvalues --   -0.52501  -0.52342  -0.50371  -0.49965  -0.48964
 Alpha  occ. eigenvalues --   -0.48081  -0.47593  -0.46846  -0.46604  -0.46278
 Alpha  occ. eigenvalues --   -0.45770  -0.45660  -0.44739  -0.44480  -0.44249
 Alpha  occ. eigenvalues --   -0.44013  -0.43820  -0.43487  -0.43341  -0.42952
 Alpha  occ. eigenvalues --   -0.42426  -0.41953  -0.41174  -0.40531  -0.39376
 Alpha  occ. eigenvalues --   -0.39149  -0.38886  -0.38576  -0.38213  -0.38031
 Alpha  occ. eigenvalues --   -0.37427  -0.37281  -0.37227  -0.37025  -0.36604
 Alpha  occ. eigenvalues --   -0.36520  -0.36077  -0.35427  -0.35163  -0.34622
 Alpha  occ. eigenvalues --   -0.33881  -0.33692  -0.33248  -0.32975  -0.32291
 Alpha  occ. eigenvalues --   -0.31410  -0.28756  -0.27442  -0.26909  -0.26330
 Alpha  occ. eigenvalues --   -0.26151  -0.25864  -0.25648  -0.25199  -0.23802
 Alpha  occ. eigenvalues --   -0.23324  -0.19051
 Alpha virt. eigenvalues --   -0.04339  -0.03349  -0.02045  -0.01843  -0.01710
 Alpha virt. eigenvalues --   -0.01540  -0.01333   0.00827   0.02482   0.02890
 Alpha virt. eigenvalues --    0.03939   0.04446   0.04880   0.05005   0.05095

 Mulliken charges:
               1
     1  C    0.100580
     2  C   -0.167456
     3  H    0.109994
     4  C   -0.145652
     5  H    0.106679
     6  C   -0.096133
     7  H    0.109391
     8  C   -0.117621
     9  H    0.111202
    10  C   -0.190199
    11  H    0.129770
    12  C    0.095114
    13  C   -0.384943
    14  H    0.132836
    15  H    0.124290
    16  H    0.104353
    17  C   -0.368393
    18  H    0.125561
    19  H    0.119606
    20  H    0.108104
    21  C   -0.364191
    22  H    0.096654
    23  H    0.095902
    24  H    0.165515
    25  C    0.035325
    26  H    0.107621
    27  C   -0.370243
    28  H    0.120649
    29  H    0.130018
    30  H    0.134734
    31  C    0.027896
    32  C   -0.202353
    33  H    0.169848
    34  C   -0.091320
    35  H    0.107874
    36  C   -0.122311
    37  H    0.107084
    38  C   -0.103714
    39  H    0.106122
    40  C   -0.174080
    41  H    0.116328
    42  C    0.261950
    43  C   -0.228081
    44  H    0.120084
    45  C   -0.089412
    46  H    0.111504
    47  C    0.082324
    48  C    0.126500
    49  C   -0.105459
    50  H    0.111210
    51  C   -0.178264
    52  H    0.124026
    53  C    0.121868
    54  N   -0.257335
    55  O   -0.383300
    56  O   -0.351609
    57  P    0.149455
    58  P    0.452840
    59  C   -0.115244
    60  H    0.108724
    61  C   -0.203127
    62  H    0.125963
    63  C   -0.204308
    64  H    0.125134
    65  C   -0.114338
    66  H    0.108455
 Sum of Mulliken charges =  -0.00000

 Dipole moment (field-independent basis, Debye):
    X=              0.4634    Y=              0.5313    Z=              2.1423  Tot=              2.2553
 Quadrupole moment (field-independent basis, Debye-Ang):
   XX=           -201.8143   YY=           -211.8433   ZZ=           -221.6883
   XY=             -1.9645   XZ=              3.8450   YZ=            -10.0807

 Summary of Natural Population Analysis:

                                       Natural Population
                Natural  -----------------------------------------------
    Atom  No    Charge         Core      Valence    Rydberg      Total
 -----------------------------------------------------------------------
      C    1   -0.34926      1.99897     4.31735    0.03294     6.34926
      C    2   -0.21000      1.99908     4.19114    0.01978     6.21000
      H    3    0.20254      0.00000     0.79495    0.00252     0.79746
      C    4   -0.20264      1.99918     4.18461    0.01884     6.20264
      H    5    0.20749      0.00000     0.79120    0.00131     0.79251
      C    6   -0.20562      1.99919     4.18703    0.01941     6.20562
      H    7    0.20849      0.00000     0.79033    0.00118     0.79151
      C    8   -0.20175      1.99918     4.18399    0.01858     6.20175
      H    9    0.20991      0.00000     0.78882    0.00127     0.79009
      C   10   -0.19539      1.99910     4.17650    0.01979     6.19539
      H   11    0.21734      0.00000     0.78086    0.00180     0.78266
      C   12   -0.29290      1.99944     4.26665    0.02680     6.29290
      C   13   -0.60294      1.99937     4.59176    0.01181     6.60294
      H   14    0.21597      0.00000     0.78277    0.00127     0.78403
      H   15    0.21317      0.00000     0.78558    0.00125     0.78683
      H   16    0.20350      0.00000     0.79463    0.00187     0.79650
      C   17   -0.60332      1.99937     4.59239    0.01157     6.60332
      H   18    0.21477      0.00000     0.78380    0.00143     0.78523
      H   19    0.20735      0.00000     0.79145    0.00120     0.79265
      H   20    0.20622      0.00000     0.79185    0.00193     0.79378
      C   21   -0.60234      1.99935     4.59004    0.01295     6.60234
      H   22    0.19605      0.00000     0.80181    0.00214     0.80395
      H   23    0.19461      0.00000     0.80406    0.00133     0.80539
      H   24    0.22294      0.00000     0.77543    0.00163     0.77706
      C   25   -0.06676      1.99923     4.04082    0.02670     6.06676
      H   26    0.21106      0.00000     0.78553    0.00341     0.78894
      C   27   -0.60253      1.99943     4.59030    0.01280     6.60253
      H   28    0.21586      0.00000     0.78254    0.00159     0.78414
      H   29    0.21109      0.00000     0.78784    0.00107     0.78891
      H   30    0.20924      0.00000     0.78904    0.00172     0.79076
      C   31   -0.03550      1.99902     4.01371    0.02277     6.03550
      C   32   -0.20508      1.99908     4.18660    0.01940     6.20508
      H   33    0.23052      0.00000     0.76766    0.00183     0.76948
      C   34   -0.19934      1.99919     4.18180    0.01835     6.19934
      H   35    0.20807      0.00000     0.79069    0.00124     0.79193
      C   36   -0.20963      1.99918     4.19132    0.01913     6.20963
      H   37    0.20803      0.00000     0.79079    0.00118     0.79197
      C   38   -0.20314      1.99919     4.18465    0.01930     6.20314
      H   39    0.20728      0.00000     0.79150    0.00122     0.79272
      C   40   -0.21102      1.99909     4.19327    0.01866     6.21102
      H   41    0.21036      0.00000     0.78823    0.00141     0.78964
      C   42    0.28886      1.99864     3.68748    0.02503     5.71114
      C   43   -0.23660      1.99904     4.21802    0.01954     6.23660
      H   44    0.22296      0.00000     0.77573    0.00131     0.77704
      C   45   -0.18944      1.99920     4.17132    0.01892     6.18944
      H   46    0.21086      0.00000     0.78799    0.00114     0.78914
      C   47   -0.08976      1.99891     4.06932    0.02153     6.08976
      C   48   -0.09390      1.99891     4.07320    0.02180     6.09390
      C   49   -0.18982      1.99920     4.17227    0.01835     6.18982
      H   50    0.21037      0.00000     0.78844    0.00119     0.78963
      C   51   -0.24247      1.99904     4.22407    0.01936     6.24247
      H   52    0.21890      0.00000     0.77961    0.00149     0.78110
      C   53    0.28480      1.99861     3.69243    0.02416     5.71520
      N   54   -1.04793      1.99955     6.01214    0.03623     8.04793
      O   55   -0.79137      1.99977     6.76577    0.02583     8.79137
      O   56   -0.78042      1.99978     6.75630    0.02434     8.78042
      P   57    0.99625      9.99795     3.96672    0.03908    14.00375
      P   58    1.53646      9.99814     3.37639    0.08900    13.46354
      C   59   -0.21937      1.99919     4.20095    0.01924     6.21937
      H   60    0.21111      0.00000     0.78775    0.00114     0.78889
      C   61   -0.17391      1.99914     4.15660    0.01817     6.17391
      H   62    0.21222      0.00000     0.78640    0.00138     0.78778
      C   63   -0.17570      1.99914     4.15833    0.01823     6.17570
      H   64    0.21169      0.00000     0.78691    0.00139     0.78831
      C   65   -0.21718      1.99919     4.19886    0.01914     6.21718
      H   66    0.21070      0.00000     0.78815    0.00114     0.78930
 =======================================================================
   * Total *    0.00000     85.96905   177.17639    0.85456   264.00000

 1\1\GINC-G4NODEC5\SP\RB3LYP\def2TZVP\C30H31N1O2P2\ROOT\06-Nov-2024\0\\
 # nmr=giao b3lyp/def2TZVP pop=nbo scfcyc=200\\Ligand 52 SPE NoRh\\0,1\
 C,0,2.84,0.91,1.183\C,0,3.93,1.785,1.184\H,0,4.222,2.313,0.29\C,0,4.66
 4,1.997,2.348\H,0,5.506,2.678,2.329\C,0,4.319,1.345,3.525\H,0,4.891,1.
 515,4.428\C,0,3.239,0.467,3.535\H,0,2.967,-0.05,4.447\C,0,2.512,0.246,
 2.373\H,0,1.679,-0.448,2.389\C,0,2.533,1.173,-1.897\C,0,1.602,0.688,-3
 .023\H,0,0.613,1.14,-2.952\H,0,1.488,-0.398,-3.02\H,0,2.032,0.98,-3.98
 4\C,0,3.91,0.495,-2.052\H,0,3.848,-0.591,-1.979\H,0,4.639,0.841,-1.321

 Normal termination of Gaussian 16 at Wed Nov  6 19:27:03 2024.
