 Gaussian 16, Revision B.01,
 Gaussian 16:  ES64L-G16RevB.01 20-Dec-2017

 --------------------------------------------
 # nmr=giao b3lyp/def2TZVP pop=nbo scfcyc=200
 --------------------------------------------

 -----------------
 Ligand 5 SPE NoRh
 -----------------
 Symbolic Z-matrix:
 Charge =  0 Multiplicity = 1

                         Standard orientation:
 ---------------------------------------------------------------------
 Center     Atomic      Atomic             Coordinates (Angstroms)
 Number     Number       Type             X           Y           Z
 ---------------------------------------------------------------------
      1          6           0        0.069223    0.916745    0.436887
      2          1           0        0.644372    1.843500    0.452029
      3          1           0       -0.249807    0.669062    1.449055
      4          6           0        0.561383   -1.982408    0.332896
      5          1           0        0.848795   -1.965709    1.385644
      6          1           0        1.073953   -2.807207   -0.161982
      7          1           0       -0.513319   -2.134566    0.244646
      8          6           0       -1.772267    2.872761   -0.844807
      9          1           0       -2.105803    3.184445    0.144953
     10          1           0       -2.587067    3.022048   -1.552921
     11          1           0       -0.922729    3.484280   -1.147941
     12         15           0        1.032501   -0.391087   -0.483191
     13         15           0       -1.277297    1.093321   -0.855789
     14          6           0       -2.737488    0.183474   -0.208954
     15          6           0       -3.341765    0.550926    0.998481
     16          6           0       -3.255054   -0.893163   -0.933905
     17          6           0       -4.447722   -0.148002    1.467718
     18          1           0       -2.958610    1.380282    1.581599
     19          6           0       -4.362671   -1.590160   -0.460482
     20          1           0       -2.788264   -1.186293   -1.866502
     21          6           0       -4.959669   -1.218552    0.738364
     22          1           0       -4.910350    0.143116    2.401937
     23          1           0       -4.758663   -2.421776   -1.029490
     24          1           0       -5.822106   -1.759098    1.105907
     25          6           0        2.819107   -0.198235   -0.094735
     26          6           0        3.741624   -0.964193   -0.816427
     27          6           0        3.279696    0.662968    0.903832
     28          6           0        5.099752   -0.874045   -0.538503
     29          1           0        3.406512   -1.642389   -1.593072
     30          6           0        4.641208    0.755240    1.174474
     31          1           0        2.587743    1.260841    1.483856
     32          6           0        5.551935   -0.009803    0.455809
     33          1           0        5.804456   -1.474185   -1.098570
     34          1           0        4.988472    1.425461    1.951968
     35          1           0        6.610614    0.063356    0.669698
 ---------------------------------------------------------------------

 SCF Done:  E(RB3LYP) =  -1265.39765849     A.U. after   14 cycles

      1  C    Isotropic =   155.1016   Anisotropy =    17.7532

      2  H    Isotropic =    30.1182   Anisotropy =     7.3284

      3  H    Isotropic =    30.0185   Anisotropy =     5.0846

      4  C    Isotropic =   166.5629   Anisotropy =    20.9580

      5  H    Isotropic =    30.8038   Anisotropy =     6.9346

      6  H    Isotropic =    30.9965   Anisotropy =     9.5080

      7  H    Isotropic =    31.1879   Anisotropy =     9.7839

      8  C    Isotropic =   165.8371   Anisotropy =    24.5193

      9  H    Isotropic =    29.9172   Anisotropy =     8.4030

     10  H    Isotropic =    30.9211   Anisotropy =     9.1026

     11  H    Isotropic =    30.5977   Anisotropy =     7.9904

     12  P    Isotropic =   264.9153   Anisotropy =   125.3677

     13  P    Isotropic =   272.6429   Anisotropy =   108.5757

     14  C    Isotropic =    33.9478   Anisotropy =   211.6613

     15  C    Isotropic =    43.5706   Anisotropy =   189.0879

     16  C    Isotropic =    41.2704   Anisotropy =   177.2736

     17  C    Isotropic =    49.1980   Anisotropy =   184.1742

     18  H    Isotropic =    23.7247   Anisotropy =    10.2197

     19  C    Isotropic =    50.0760   Anisotropy =   183.1965

     20  H    Isotropic =    23.6832   Anisotropy =     7.9106

     21  C    Isotropic =    48.3805   Anisotropy =   188.4475

     22  H    Isotropic =    24.2492   Anisotropy =     5.7691

     23  H    Isotropic =    24.2487   Anisotropy =     5.3983

     24  H    Isotropic =    24.2540   Anisotropy =     4.7911

     25  C    Isotropic =    29.4426   Anisotropy =   208.8456

     26  C    Isotropic =    47.8488   Anisotropy =   182.8647

     27  C    Isotropic =    49.3508   Anisotropy =   179.6158

     28  C    Isotropic =    49.7722   Anisotropy =   183.7198

     29  H    Isotropic =    24.2916   Anisotropy =     9.6885

     30  C    Isotropic =    49.7748   Anisotropy =   182.9372

     31  H    Isotropic =    24.2771   Anisotropy =    11.5833

     32  C    Isotropic =    52.0905   Anisotropy =   182.3032

     33  H    Isotropic =    24.3658   Anisotropy =     5.3923

     34  H    Isotropic =    24.4068   Anisotropy =     6.0843

     35  H    Isotropic =    24.5269   Anisotropy =     4.5805

 The electronic state is 1-A.
 Alpha  occ. eigenvalues --  -77.04311 -77.04188 -10.18484 -10.18419 -10.18410
 Alpha  occ. eigenvalues --  -10.18300 -10.18247 -10.18199 -10.18178 -10.17943
 Alpha  occ. eigenvalues --  -10.17596 -10.17590 -10.17535 -10.17519 -10.17407
 Alpha  occ. eigenvalues --  -10.16789 -10.16648  -6.52882  -6.52750  -4.69042
 Alpha  occ. eigenvalues --   -4.68997  -4.68927  -4.68851  -4.68498  -4.68372
 Alpha  occ. eigenvalues --   -0.86487  -0.85761  -0.77707  -0.75988  -0.75588
 Alpha  occ. eigenvalues --   -0.74906  -0.73534  -0.71700  -0.69184  -0.61940
 Alpha  occ. eigenvalues --   -0.61338  -0.61049  -0.60532  -0.55638  -0.54500
 Alpha  occ. eigenvalues --   -0.51226  -0.50558  -0.46218  -0.45901  -0.45452
 Alpha  occ. eigenvalues --   -0.45222  -0.44626  -0.43326  -0.43026  -0.42532
 Alpha  occ. eigenvalues --   -0.41624  -0.41508  -0.40866  -0.39889  -0.39030
 Alpha  occ. eigenvalues --   -0.38378  -0.37446  -0.36751  -0.35497  -0.34867
 Alpha  occ. eigenvalues --   -0.33075  -0.32811  -0.31282  -0.26639  -0.26481
 Alpha  occ. eigenvalues --   -0.26282  -0.25878  -0.22487  -0.18653
 Alpha virt. eigenvalues --   -0.03480  -0.02359  -0.01964  -0.01514   0.02398
 Alpha virt. eigenvalues --    0.03186   0.04312   0.04454   0.05323   0.05617
 Alpha virt. eigenvalues --    0.06897   0.07384   0.07678   0.08127   0.08814

 Mulliken charges:
               1
     1  C   -0.373016
     2  H    0.126733
     3  H    0.122772
     4  C   -0.418213
     5  H    0.116651
     6  H    0.123704
     7  H    0.140846
     8  C   -0.410795
     9  H    0.106893
    10  H    0.129940
    11  H    0.126052
    12  P    0.151587
    13  P    0.159474
    14  C    0.050044
    15  C   -0.187053
    16  C   -0.162345
    17  C   -0.114012
    18  H    0.114706
    19  C   -0.096410
    20  H    0.118411
    21  C   -0.098722
    22  H    0.108615
    23  H    0.112017
    24  H    0.112826
    25  C    0.112165
    26  C   -0.190579
    27  C   -0.187190
    28  C   -0.104460
    29  H    0.104455
    30  C   -0.114397
    31  H    0.109719
    32  C   -0.110801
    33  H    0.107947
    34  H    0.104701
    35  H    0.107734
 Sum of Mulliken charges =  -0.00000

 Dipole moment (field-independent basis, Debye):
    X=             -0.8552    Y=              0.1040    Z=              2.0592  Tot=              2.2322
 Quadrupole moment (field-independent basis, Debye-Ang):
   XX=           -107.7848   YY=           -112.1385   ZZ=           -119.0120
   XY=              2.0384   XZ=             -1.6544   YZ=              5.4269

 Summary of Natural Population Analysis:

                                       Natural Population
                Natural  -----------------------------------------------
    Atom  No    Charge         Core      Valence    Rydberg      Total
 -----------------------------------------------------------------------
      C    1   -1.01228      1.99946     4.98100    0.03182     7.01228
      H    2    0.24721      0.00000     0.75120    0.00159     0.75279
      H    3    0.23407      0.00000     0.76312    0.00281     0.76593
      C    4   -0.90492      1.99944     4.88587    0.01961     6.90492
      H    5    0.21061      0.00000     0.78659    0.00280     0.78939
      H    6    0.22966      0.00000     0.76932    0.00102     0.77034
      H    7    0.23101      0.00000     0.76778    0.00121     0.76899
      C    8   -0.90902      1.99945     4.89124    0.01833     6.90902
      H    9    0.20401      0.00000     0.79334    0.00266     0.79599
      H   10    0.23277      0.00000     0.76631    0.00092     0.76723
      H   11    0.22713      0.00000     0.77192    0.00095     0.77287
      P   12    0.81066      9.99851     4.15221    0.03862    14.18934
      P   13    0.79629      9.99852     4.16667    0.03852    14.20371
      C   14   -0.33445      1.99901     4.30317    0.03228     6.33445
      C   15   -0.19640      1.99908     4.17648    0.02084     6.19640
      C   16   -0.19125      1.99910     4.17064    0.02151     6.19125
      C   17   -0.20410      1.99919     4.18547    0.01944     6.20410
      H   18    0.20132      0.00000     0.79589    0.00279     0.79868
      C   19   -0.20619      1.99918     4.18714    0.01987     6.20619
      H   20    0.22030      0.00000     0.77799    0.00171     0.77970
      C   21   -0.19762      1.99919     4.17914    0.01929     6.19762
      H   22    0.20760      0.00000     0.79097    0.00143     0.79240
      H   23    0.21006      0.00000     0.78862    0.00132     0.78994
      H   24    0.20907      0.00000     0.78971    0.00122     0.79093
      C   25   -0.32162      1.99901     4.29190    0.03071     6.32162
      C   26   -0.20188      1.99910     4.18179    0.02100     6.20188
      C   27   -0.21238      1.99908     4.19256    0.02074     6.21238
      C   28   -0.19945      1.99919     4.18042    0.01984     6.19945
      H   29    0.21029      0.00000     0.78790    0.00180     0.78971
      C   30   -0.19961      1.99919     4.18090    0.01952     6.19961
      H   31    0.20087      0.00000     0.79678    0.00235     0.79913
      C   32   -0.21239      1.99919     4.19349    0.01972     6.21239
      H   33    0.20768      0.00000     0.79098    0.00134     0.79232
      H   34    0.20573      0.00000     0.79285    0.00143     0.79427
      H   35    0.20726      0.00000     0.79150    0.00124     0.79274
 =======================================================================
   * Total *    0.00000     49.98490    87.57286    0.44225   138.00000

 Normal termination of Gaussian 16 at Tue Jan  2 06:44:28 2001.
