 Gaussian 16, Revision B.01,
 Gaussian 16:  ES64L-G16RevB.01 20-Dec-2017

 --------------------------------------------
 # nmr=giao b3lyp/def2TZVP pop=nbo scfcyc=200
 --------------------------------------------

 ------------------
 Ligand 62 SPE NoRh
 ------------------
 Symbolic Z-matrix:
 Charge =  0 Multiplicity = 1

                         Standard orientation:
 ---------------------------------------------------------------------
 Center     Atomic      Atomic             Coordinates (Angstroms)
 Number     Number       Type             X           Y           Z
 ---------------------------------------------------------------------
      1         15           0        0.925976    0.929005   -1.112605
      2         15           0       -1.657608    0.194212   -0.894538
      3          7           0       -0.231430    0.426888    0.097904
      4          6           0        1.710860    2.496472   -0.548142
      5          6           0        2.886173    2.922975   -1.179135
      6          6           0        3.443443    4.157619   -0.869189
      7          6           0        2.838700    4.981913    0.075098
      8          6           0        1.669901    4.566873    0.704056
      9          6           0        1.104839    3.336256    0.388905
     10          6           0        2.313714   -0.272982   -1.228978
     11          6           0        2.244850   -1.260536   -2.215743
     12          6           0        3.257323   -2.205187   -2.338674
     13          6           0        4.347968   -2.169419   -1.477384
     14          6           0        4.424731   -1.187318   -0.493597
     15          6           0        3.416119   -0.241235   -0.368421
     16          6           0       -2.215246   -1.561899   -0.842229
     17          6           0       -2.993678   -2.104487    0.187352
     18          6           0       -3.347824   -3.448154    0.166863
     19          6           0       -2.932155   -4.266459   -0.880561
     20          6           0       -2.164723   -3.736254   -1.910938
     21          6           0       -1.809520   -2.391621   -1.892437
     22          6           0       -3.067804    1.198213   -0.260943
     23          6           0       -4.387165    0.760507   -0.413279
     24          6           0       -5.449943    1.593614   -0.073449
     25          6           0       -5.210131    2.872555    0.414757
     26          6           0       -3.899696    3.324904    0.546823
     27          6           0       -2.838264    2.499330    0.201384
     28          6           0        0.077524    0.201858    1.543372
     29          6           0       -1.172744    0.252502    2.428203
     30          6           0        0.895845   -1.047763    1.851768
     31          6           0        0.675990   -2.280112    1.239841
     32          6           0        1.404487   -3.401341    1.625244
     33          6           0        2.358029   -3.309446    2.632596
     34          6           0        2.583873   -2.084366    3.252225
     35          6           0        1.859655   -0.964443    2.859406
     36          1           0        3.377917    2.290054   -1.906893
     37          1           0        4.354294    4.473236   -1.362600
     38          1           0        3.277077    5.941058    0.320314
     39          1           0        1.196123    5.201748    1.443320
     40          1           0        0.193437    3.031219    0.883641
     41          1           0        1.396222   -1.286559   -2.888805
     42          1           0        3.197188   -2.964625   -3.107849
     43          1           0        5.140004   -2.902200   -1.573317
     44          1           0        5.272422   -1.159471    0.180357
     45          1           0        3.491070    0.516398    0.398698
     46          1           0       -3.334646   -1.485140    1.004768
     47          1           0       -3.948164   -3.855754    0.969317
     48          1           0       -3.210776   -5.312537   -0.893417
     49          1           0       -1.844506   -4.366544   -2.731117
     50          1           0       -1.214501   -1.978603   -2.698105
     51          1           0       -4.598515   -0.228131   -0.797141
     52          1           0       -6.465192    1.237449   -0.191028
     53          1           0       -6.037740    3.517171    0.682887
     54          1           0       -3.705085    4.325026    0.914285
     55          1           0       -1.827583    2.872960    0.286282
     56          1           0        0.700389    1.052914    1.831133
     57          1           0       -0.059268   -2.373016    0.453689
     58          1           0        1.223634   -4.350689    1.135816
     59          1           0        2.920967   -4.184598    2.932816
     60          1           0        3.325364   -1.999090    4.036978
     61          1           0        2.047263   -0.012900    3.346951
     62          1           0       -0.861513    0.178364    3.469745
     63          1           0       -1.834841   -0.589556    2.231116
     64          1           0       -1.727338    1.179930    2.301195
 ---------------------------------------------------------------------

 SCF Done:  E(RB3LYP) =  -1974.83277069     A.U. after   15 cycles

      1  P    Isotropic =   152.6156   Anisotropy =   171.2780

      2  P    Isotropic =   154.8141   Anisotropy =   171.6049

      3  N    Isotropic =   154.7732   Anisotropy =    17.8353

      4  C    Isotropic =    32.3192   Anisotropy =   183.0946

      5  C    Isotropic =    50.3336   Anisotropy =   185.1999

      6  C    Isotropic =    49.4716   Anisotropy =   184.4939

      7  C    Isotropic =    53.2175   Anisotropy =   179.6892

      8  C    Isotropic =    50.3602   Anisotropy =   182.1284

      9  C    Isotropic =    49.5815   Anisotropy =   182.7819

     10  C    Isotropic =    35.7048   Anisotropy =   205.1727

     11  C    Isotropic =    41.2329   Anisotropy =   184.7000

     12  C    Isotropic =    51.2972   Anisotropy =   183.1066

     13  C    Isotropic =    48.9362   Anisotropy =   189.8826

     14  C    Isotropic =    50.1150   Anisotropy =   187.5383

     15  C    Isotropic =    42.0998   Anisotropy =   195.7327

     16  C    Isotropic =    34.1940   Anisotropy =   205.4586

     17  C    Isotropic =    40.9865   Anisotropy =   193.2645

     18  C    Isotropic =    48.9200   Anisotropy =   185.8659

     19  C    Isotropic =    47.8890   Anisotropy =   190.1405

     20  C    Isotropic =    49.1707   Anisotropy =   184.9840

     21  C    Isotropic =    38.8128   Anisotropy =   184.9151

     22  C    Isotropic =    30.7113   Anisotropy =   187.9553

     23  C    Isotropic =    51.9868   Anisotropy =   176.7363

     24  C    Isotropic =    50.1160   Anisotropy =   182.5011

     25  C    Isotropic =    53.0148   Anisotropy =   179.4584

     26  C    Isotropic =    50.1340   Anisotropy =   182.7286

     27  C    Isotropic =    47.6200   Anisotropy =   189.7039

     28  C    Isotropic =   114.1093   Anisotropy =    46.8461

     29  C    Isotropic =   154.8642   Anisotropy =    31.0025

     30  C    Isotropic =    29.1707   Anisotropy =   200.9068

     31  C    Isotropic =    51.1721   Anisotropy =   192.4198

     32  C    Isotropic =    49.8440   Anisotropy =   187.5628

     33  C    Isotropic =    52.8146   Anisotropy =   183.5960

     34  C    Isotropic =    51.0993   Anisotropy =   182.8754

     35  C    Isotropic =    51.3317   Anisotropy =   167.4053

     36  H    Isotropic =    24.8679   Anisotropy =    12.2390

     37  H    Isotropic =    24.4255   Anisotropy =     5.6949

     38  H    Isotropic =    24.4634   Anisotropy =     4.0680

     39  H    Isotropic =    24.0639   Anisotropy =     6.6901

     40  H    Isotropic =    23.4089   Anisotropy =    10.0374

     41  H    Isotropic =    23.5599   Anisotropy =     8.1695

     42  H    Isotropic =    24.4513   Anisotropy =     5.2446

     43  H    Isotropic =    24.7319   Anisotropy =     3.7221

     44  H    Isotropic =    25.1365   Anisotropy =     5.8345

     45  H    Isotropic =    24.8327   Anisotropy =     8.6082

     46  H    Isotropic =    23.5232   Anisotropy =     9.7080

     47  H    Isotropic =    24.2313   Anisotropy =     5.8874

     48  H    Isotropic =    24.1431   Anisotropy =     3.8291

     49  H    Isotropic =    23.9571   Anisotropy =     5.4681

     50  H    Isotropic =    23.2003   Anisotropy =     8.3854

     51  H    Isotropic =    24.5874   Anisotropy =    12.4852

     52  H    Isotropic =    24.4733   Anisotropy =     6.0780

     53  H    Isotropic =    24.5128   Anisotropy =     4.3093

     54  H    Isotropic =    24.1423   Anisotropy =     6.7988

     55  H    Isotropic =    23.1990   Anisotropy =     9.8441

     56  H    Isotropic =    26.5812   Anisotropy =     3.7497

     57  H    Isotropic =    26.1946   Anisotropy =     5.5864

     58  H    Isotropic =    25.4926   Anisotropy =     7.4983

     59  H    Isotropic =    25.0533   Anisotropy =     3.8294

     60  H    Isotropic =    24.7934   Anisotropy =     4.9493

     61  H    Isotropic =    24.9443   Anisotropy =     9.2037

     62  H    Isotropic =    31.0246   Anisotropy =     8.5361

     63  H    Isotropic =    30.4492   Anisotropy =     6.0451

     64  H    Isotropic =    29.9537   Anisotropy =     8.6439

 The electronic state is 1-A.
 Alpha  occ. eigenvalues --  -77.06835 -77.06314 -14.33039 -10.21962 -10.18755
 Alpha  occ. eigenvalues --  -10.18691 -10.18629 -10.18523 -10.18461 -10.18435
 Alpha  occ. eigenvalues --  -10.18395 -10.18238 -10.18011 -10.17952 -10.17879
 Alpha  occ. eigenvalues --  -10.17870 -10.17663 -10.17633 -10.17612 -10.17609
 Alpha  occ. eigenvalues --  -10.17574 -10.17555 -10.17525 -10.17520 -10.17513
 Alpha  occ. eigenvalues --  -10.17509 -10.17458 -10.17343 -10.17333 -10.17283
 Alpha  occ. eigenvalues --  -10.17223 -10.17181 -10.17111 -10.16816 -10.16510
 Alpha  occ. eigenvalues --   -6.55044  -6.54569  -4.71282  -4.71119  -4.70807
 Alpha  occ. eigenvalues --   -4.70697  -4.70640  -4.70223  -0.90205  -0.86741
 Alpha  occ. eigenvalues --   -0.86020  -0.85803  -0.85625  -0.85276  -0.78250
 Alpha  occ. eigenvalues --   -0.76750  -0.75859  -0.75713  -0.75032  -0.74937
 Alpha  occ. eigenvalues --   -0.74873  -0.74710  -0.74490  -0.74370  -0.72587
 Alpha  occ. eigenvalues --   -0.65477  -0.64245  -0.62302  -0.61714  -0.60954
 Alpha  occ. eigenvalues --   -0.60864  -0.60666  -0.60485  -0.60237  -0.59877
 Alpha  occ. eigenvalues --   -0.58665  -0.56751  -0.54935  -0.52630  -0.52357
 Alpha  occ. eigenvalues --   -0.51956  -0.50789  -0.50026  -0.47934  -0.46824
 Alpha  occ. eigenvalues --   -0.46386  -0.46151  -0.45887  -0.45634  -0.45493
 Alpha  occ. eigenvalues --   -0.45300  -0.45027  -0.44557  -0.44099  -0.43590
 Alpha  occ. eigenvalues --   -0.43174  -0.43009  -0.42645  -0.42561  -0.42028
 Alpha  occ. eigenvalues --   -0.41999  -0.41253  -0.40790  -0.39696  -0.38934
 Alpha  occ. eigenvalues --   -0.38191  -0.37839  -0.37622  -0.37345  -0.36888
 Alpha  occ. eigenvalues --   -0.36587  -0.35976  -0.35614  -0.35200  -0.35065
 Alpha  occ. eigenvalues --   -0.34846  -0.34716  -0.34294  -0.33375  -0.33222
 Alpha  occ. eigenvalues --   -0.32544  -0.28311  -0.27665  -0.27018  -0.26863
 Alpha  occ. eigenvalues --   -0.26715  -0.26166  -0.25872  -0.25732  -0.25275
 Alpha  occ. eigenvalues --   -0.25095  -0.24357  -0.22725  -0.17987
 Alpha virt. eigenvalues --   -0.04529  -0.03244  -0.02825  -0.02599  -0.02002
 Alpha virt. eigenvalues --   -0.01635  -0.01366  -0.01069  -0.00922  -0.00457
 Alpha virt. eigenvalues --    0.02991   0.03329   0.04407   0.05006   0.05404

 Mulliken charges:
               1
     1  P    0.213246
     2  P    0.213155
     3  N   -0.305185
     4  C    0.072557
     5  C   -0.212017
     6  C   -0.108328
     7  C   -0.108276
     8  C   -0.140159
     9  C   -0.171596
    10  C    0.037184
    11  C   -0.167226
    12  C   -0.122039
    13  C   -0.088699
    14  C   -0.108266
    15  C   -0.123304
    16  C   -0.014414
    17  C   -0.174091
    18  C   -0.110821
    19  C   -0.090019
    20  C   -0.129681
    21  C   -0.130251
    22  C    0.063839
    23  C   -0.184462
    24  C   -0.134266
    25  C   -0.097248
    26  C   -0.134073
    27  C   -0.186385
    28  C   -0.022223
    29  C   -0.356288
    30  C    0.133378
    31  C   -0.143101
    32  C   -0.144163
    33  C   -0.100890
    34  C   -0.116498
    35  C   -0.203184
    36  H    0.126549
    37  H    0.107832
    38  H    0.106375
    39  H    0.103512
    40  H    0.126505
    41  H    0.118138
    42  H    0.105169
    43  H    0.108093
    44  H    0.103398
    45  H    0.123889
    46  H    0.153088
    47  H    0.111160
    48  H    0.113053
    49  H    0.111152
    50  H    0.125245
    51  H    0.145649
    52  H    0.106900
    53  H    0.106637
    54  H    0.105135
    55  H    0.123975
    56  H    0.095447
    57  H    0.194198
    58  H    0.100372
    59  H    0.103498
    60  H    0.103675
    61  H    0.097893
    62  H    0.122560
    63  H    0.104823
    64  H    0.139873
 Sum of Mulliken charges =  -0.00000

 Dipole moment (field-independent basis, Debye):
    X=              0.3711    Y=             -1.8440    Z=              1.7466  Tot=              2.5668
 Quadrupole moment (field-independent basis, Debye-Ang):
   XX=           -206.8685   YY=           -203.7471   ZZ=           -221.3058
   XY=              1.9689   XZ=             -2.1553   YZ=             11.9079

 Summary of Natural Population Analysis:

                                       Natural Population
                Natural  -----------------------------------------------
    Atom  No    Charge         Core      Valence    Rydberg      Total
 -----------------------------------------------------------------------
      P    1    1.04882      9.99781     3.91338    0.04000    13.95118
      P    2    1.04891      9.99777     3.91256    0.04076    13.95109
      N    3   -1.00898      1.99956     5.97333    0.03609     8.00898
      C    4   -0.34942      1.99899     4.31629    0.03414     6.34942
      C    5   -0.20562      1.99910     4.18687    0.01966     6.20562
      C    6   -0.19612      1.99918     4.17830    0.01864     6.19612
      C    7   -0.21658      1.99919     4.19777    0.01962     6.21658
      C    8   -0.19743      1.99918     4.17951    0.01874     6.19743
      C    9   -0.22095      1.99907     4.20189    0.01999     6.22095
      C   10   -0.35994      1.99898     4.32704    0.03393     6.35994
      C   11   -0.18510      1.99909     4.16625    0.01976     6.18510
      C   12   -0.20804      1.99918     4.19021    0.01865     6.20804
      C   13   -0.19273      1.99919     4.17455    0.01899     6.19273
      C   14   -0.20264      1.99918     4.18431    0.01914     6.20264
      C   15   -0.18061      1.99907     4.16074    0.02080     6.18061
      C   16   -0.36795      1.99898     4.33409    0.03488     6.36795
      C   17   -0.19387      1.99908     4.17483    0.01996     6.19387
      C   18   -0.20577      1.99918     4.18773    0.01885     6.20577
      C   19   -0.19319      1.99919     4.17500    0.01900     6.19319
      C   20   -0.20736      1.99918     4.18905    0.01913     6.20736
      C   21   -0.18469      1.99910     4.16580    0.01980     6.18469
      C   22   -0.34900      1.99897     4.31593    0.03410     6.34900
      C   23   -0.21423      1.99909     4.19551    0.01963     6.21423
      C   24   -0.19610      1.99919     4.17823    0.01868     6.19610
      C   25   -0.21527      1.99919     4.19648    0.01961     6.21527
      C   26   -0.19680      1.99918     4.17906    0.01856     6.19680
      C   27   -0.21191      1.99908     4.19267    0.02015     6.21191
      C   28   -0.06456      1.99923     4.03771    0.02761     6.06456
      C   29   -0.59222      1.99939     4.58058    0.01224     6.59222
      C   30   -0.02593      1.99902     4.00288    0.02403     6.02593
      C   31   -0.20589      1.99904     4.18703    0.01981     6.20589
      C   32   -0.19250      1.99920     4.17411    0.01919     6.19250
      C   33   -0.21167      1.99918     4.19331    0.01918     6.21167
      C   34   -0.20169      1.99919     4.18322    0.01928     6.20169
      C   35   -0.21013      1.99909     4.19199    0.01905     6.21013
      H   36    0.21388      0.00000     0.78442    0.00171     0.78612
      H   37    0.20821      0.00000     0.79052    0.00126     0.79179
      H   38    0.20753      0.00000     0.79129    0.00117     0.79247
      H   39    0.20662      0.00000     0.79210    0.00129     0.79338
      H   40    0.20249      0.00000     0.79548    0.00203     0.79751
      H   41    0.21057      0.00000     0.78727    0.00216     0.78943
      H   42    0.20800      0.00000     0.79072    0.00128     0.79200
      H   43    0.20749      0.00000     0.79133    0.00118     0.79251
      H   44    0.20818      0.00000     0.79048    0.00134     0.79182
      H   45    0.21345      0.00000     0.78396    0.00259     0.78655
      H   46    0.21223      0.00000     0.78526    0.00251     0.78777
      H   47    0.20991      0.00000     0.78872    0.00137     0.79009
      H   48    0.20998      0.00000     0.78885    0.00117     0.79002
      H   49    0.21107      0.00000     0.78767    0.00126     0.78893
      H   50    0.21810      0.00000     0.78041    0.00149     0.78190
      H   51    0.21400      0.00000     0.78424    0.00176     0.78600
      H   52    0.20767      0.00000     0.79106    0.00127     0.79233
      H   53    0.20766      0.00000     0.79116    0.00118     0.79234
      H   54    0.20774      0.00000     0.79098    0.00128     0.79226
      H   55    0.20743      0.00000     0.79056    0.00202     0.79257
      H   56    0.19800      0.00000     0.79837    0.00363     0.80200
      H   57    0.21874      0.00000     0.77891    0.00235     0.78126
      H   58    0.20711      0.00000     0.79160    0.00129     0.79289
      H   59    0.20636      0.00000     0.79247    0.00117     0.79364
      H   60    0.20627      0.00000     0.79252    0.00121     0.79373
      H   61    0.20305      0.00000     0.79554    0.00141     0.79695
      H   62    0.21472      0.00000     0.78433    0.00095     0.78528
      H   63    0.20459      0.00000     0.79415    0.00126     0.79541
      H   64    0.21614      0.00000     0.78268    0.00119     0.78386
 =======================================================================
   * Total *   -0.00000     85.96731   171.18527    0.84742   258.00000

 Normal termination of Gaussian 16 at Wed Nov  6 20:34:54 2024.
