 Gaussian 16, Revision B.01,
 Gaussian 16:  ES64L-G16RevB.01 20-Dec-2017

 --------------------------------------------
 # nmr=giao b3lyp/def2TZVP pop=nbo scfcyc=200
 --------------------------------------------

 ------------------
 Ligand 63 SPE NoRh
 ------------------
 Symbolic Z-matrix:
 Charge =  0 Multiplicity = 1

                         Standard orientation:
 ---------------------------------------------------------------------
 Center     Atomic      Atomic             Coordinates (Angstroms)
 Number     Number       Type             X           Y           Z
 ---------------------------------------------------------------------
      1         15           0        1.221309    0.912842   -1.065534
      2          7           0       -0.203053    0.456508   -0.121450
      3          6           0        2.092335    2.205799   -0.098500
      4          6           0        3.453266    2.448986   -0.316438
      5          6           0        4.082735    3.514048    0.318868
      6          6           0        3.363887    4.344021    1.173629
      7          6           0        2.008450    4.113143    1.384333
      8          6           0        1.370904    3.056575    0.744489
      9          6           0        2.348087   -0.525158   -1.182614
     10          6           0        2.225376   -1.355043   -2.302112
     11          6           0        3.032597   -2.478062   -2.432022
     12          6           0        3.968664   -2.778655   -1.447702
     13          6           0        4.092006   -1.959408   -0.330065
     14          6           0        3.286378   -0.836100   -0.193200
     15          6           0       -0.194121   -0.077093    1.272815
     16          6           0       -1.481278    0.276983    2.025800
     17          6           0        0.102427   -1.568810    1.365236
     18          6           0       -0.461364   -2.504540    0.498168
     19          6           0       -0.224376   -3.863226    0.678961
     20          6           0        0.570209   -4.306425    1.730804
     21          6           0        1.133016   -3.379900    2.601785
     22          6           0        0.901628   -2.020897    2.416245
     23          1           0        4.029375    1.809302   -0.972388
     24          1           0        5.137637    3.691618    0.148205
     25          1           0        3.858237    5.169137    1.670840
     26          1           0        1.443431    4.758769    2.045547
     27          1           0        0.311317    2.900343    0.902834
     28          1           0        1.492132   -1.125133   -3.065161
     29          1           0        2.933593   -3.116444   -3.301628
     30          1           0        4.600603   -3.651997   -1.550359
     31          1           0        4.815343   -2.197010    0.439743
     32          1           0        3.391803   -0.209864    0.681907
     33          1           0        0.625228    0.449397    1.766985
     34          1           0       -1.087045   -2.178369   -0.322422
     35          1           0       -0.667565   -4.579585   -0.003419
     36          1           0        0.749043   -5.364789    1.871228
     37          1           0        1.753403   -3.712794    3.425162
     38          1           0        1.346153   -1.306514    3.100701
     39          1           0       -1.379460   -0.048078    3.060746
     40          1           0       -2.345572   -0.242562    1.610514
     41          1           0       -1.670891    1.350413    2.016479
     42          6           0       -3.717817   -0.140290   -0.844998
     43          6           0       -3.769818    1.160357   -0.365311
     44          6           0       -4.805785   -0.982620   -0.779126
     45          6           0       -4.911695    1.677369    0.208449
     46          6           0       -5.972516   -0.469639   -0.205253
     47          1           0       -4.751348   -1.994064   -1.157044
     48          6           0       -6.024486    0.834639    0.277871
     49          1           0       -4.937670    2.692287    0.580992
     50          1           0       -6.848727   -1.100639   -0.139016
     51          1           0       -6.940824    1.206851    0.717505
     52         15           0       -1.418864    0.838809   -1.242003
     53          8           0       -2.564237    1.833396   -0.531218
     54          8           0       -2.471482   -0.456762   -1.376961
 ---------------------------------------------------------------------

 SCF Done:  E(RB3LYP) =  -1893.06329602     A.U. after   15 cycles

      1  P    Isotropic =   196.8009   Anisotropy =    79.3144

      2  N    Isotropic =    92.2178   Anisotropy =    66.3150

      3  C    Isotropic =    36.0691   Anisotropy =   182.9878

      4  C    Isotropic =    49.2660   Anisotropy =   186.2228

      5  C    Isotropic =    49.7407   Anisotropy =   184.9638

      6  C    Isotropic =    52.1502   Anisotropy =   181.6373

      7  C    Isotropic =    49.3703   Anisotropy =   184.6527

      8  C    Isotropic =    49.8787   Anisotropy =   187.3617

      9  C    Isotropic =    39.8822   Anisotropy =   200.3331

     10  C    Isotropic =    41.0396   Anisotropy =   188.4341

     11  C    Isotropic =    49.8881   Anisotropy =   186.0556

     12  C    Isotropic =    47.9314   Anisotropy =   191.6379

     13  C    Isotropic =    49.9498   Anisotropy =   187.1791

     14  C    Isotropic =    42.6268   Anisotropy =   197.6509

     15  C    Isotropic =   115.6304   Anisotropy =    43.2039

     16  C    Isotropic =   155.4559   Anisotropy =    35.6314

     17  C    Isotropic =    30.6812   Anisotropy =   201.2191

     18  C    Isotropic =    50.7534   Anisotropy =   192.6887

     19  C    Isotropic =    49.2240   Anisotropy =   188.3590

     20  C    Isotropic =    52.2409   Anisotropy =   184.6740

     21  C    Isotropic =    50.8460   Anisotropy =   183.8004

     22  C    Isotropic =    51.3085   Anisotropy =   168.3583

     23  H    Isotropic =    24.5404   Anisotropy =    11.8259

     24  H    Isotropic =    24.3581   Anisotropy =     5.6343

     25  H    Isotropic =    24.4060   Anisotropy =     4.1697

     26  H    Isotropic =    24.1172   Anisotropy =     6.6313

     27  H    Isotropic =    23.8657   Anisotropy =    10.3502

     28  H    Isotropic =    23.8319   Anisotropy =     8.6821

     29  H    Isotropic =    24.4298   Anisotropy =     4.7975

     30  H    Isotropic =    24.6223   Anisotropy =     3.7792

     31  H    Isotropic =    24.8591   Anisotropy =     5.7647

     32  H    Isotropic =    24.2694   Anisotropy =     9.5207

     33  H    Isotropic =    27.1799   Anisotropy =     2.8746

     34  H    Isotropic =    24.0383   Anisotropy =     8.5252

     35  H    Isotropic =    24.6708   Anisotropy =     6.0909

     36  H    Isotropic =    24.8441   Anisotropy =     3.5358

     37  H    Isotropic =    24.7759   Anisotropy =     5.0564

     38  H    Isotropic =    24.9955   Anisotropy =     8.9673

     39  H    Isotropic =    31.0682   Anisotropy =     8.3835

     40  H    Isotropic =    31.1172   Anisotropy =     8.3628

     41  H    Isotropic =    30.0229   Anisotropy =     7.0344

     42  C    Isotropic =    28.0704   Anisotropy =   112.3228

     43  C    Isotropic =    27.1310   Anisotropy =   114.6977

     44  C    Isotropic =    66.3609   Anisotropy =   151.4280

     45  C    Isotropic =    66.3263   Anisotropy =   151.2845

     46  C    Isotropic =    56.3741   Anisotropy =   173.2003

     47  H    Isotropic =    24.6276   Anisotropy =     6.5046

     48  C    Isotropic =    56.1177   Anisotropy =   173.3420

     49  H    Isotropic =    24.6472   Anisotropy =     6.1995

     50  H    Isotropic =    24.7879   Anisotropy =     4.5426

     51  H    Isotropic =    24.7636   Anisotropy =     4.1742

     52  P    Isotropic =   112.3252   Anisotropy =   225.2902

     53  O    Isotropic =   137.7698   Anisotropy =    90.5932

     54  O    Isotropic =   136.1377   Anisotropy =    88.4536

 The electronic state is 1-A.
 Alpha  occ. eigenvalues --  -77.12828 -77.07375 -19.16472 -19.16322 -14.33911
 Alpha  occ. eigenvalues --  -10.23874 -10.23812 -10.22686 -10.18958 -10.18751
 Alpha  occ. eigenvalues --  -10.18494 -10.18432 -10.18392 -10.18349 -10.18341
 Alpha  occ. eigenvalues --  -10.18327 -10.18160 -10.18110 -10.18100 -10.18071
 Alpha  occ. eigenvalues --  -10.18013 -10.17991 -10.17940 -10.17883 -10.17789
 Alpha  occ. eigenvalues --  -10.17673 -10.17612 -10.17535 -10.17445 -10.17191
 Alpha  occ. eigenvalues --  -10.17016  -6.60235  -6.55665  -4.76511  -4.76386
 Alpha  occ. eigenvalues --   -4.75821  -4.71933  -4.71724  -4.71299  -1.09664
 Alpha  occ. eigenvalues --   -1.02808  -0.91630  -0.86617  -0.86372  -0.86170
 Alpha  occ. eigenvalues --   -0.85737  -0.78852  -0.76675  -0.75891  -0.75630
 Alpha  occ. eigenvalues --   -0.75390  -0.74970  -0.74874  -0.74556  -0.73016
 Alpha  occ. eigenvalues --   -0.65726  -0.64842  -0.62786  -0.61811  -0.61666
 Alpha  occ. eigenvalues --   -0.61442  -0.61249  -0.60727  -0.60440  -0.58611
 Alpha  occ. eigenvalues --   -0.56334  -0.52914  -0.52535  -0.51954  -0.51834
 Alpha  occ. eigenvalues --   -0.51394  -0.49385  -0.47950  -0.46983  -0.46362
 Alpha  occ. eigenvalues --   -0.46306  -0.46096  -0.45758  -0.45177  -0.45150
 Alpha  occ. eigenvalues --   -0.44723  -0.43933  -0.43595  -0.43191  -0.42832
 Alpha  occ. eigenvalues --   -0.42379  -0.41710  -0.41345  -0.40086  -0.39607
 Alpha  occ. eigenvalues --   -0.38372  -0.38252  -0.38132  -0.37996  -0.37452
 Alpha  occ. eigenvalues --   -0.37105  -0.36613  -0.35825  -0.35761  -0.35494
 Alpha  occ. eigenvalues --   -0.35352  -0.35230  -0.34548  -0.34207  -0.33492
 Alpha  occ. eigenvalues --   -0.28782  -0.28600  -0.26916  -0.26714  -0.26611
 Alpha  occ. eigenvalues --   -0.26278  -0.25664  -0.25584  -0.24967  -0.22811
 Alpha  occ. eigenvalues --   -0.19754
 Alpha virt. eigenvalues --   -0.04136  -0.03000  -0.02492  -0.01914  -0.01692
 Alpha virt. eigenvalues --   -0.01400  -0.00901  -0.00339   0.01252   0.02886
 Alpha virt. eigenvalues --    0.04144   0.04635   0.04713   0.05142   0.05573

 Mulliken charges:
               1
     1  P    0.224999
     2  N   -0.244768
     3  C    0.070865
     4  C   -0.232164
     5  C   -0.102659
     6  C   -0.112092
     7  C   -0.108513
     8  C   -0.195327
     9  C    0.071367
    10  C   -0.186824
    11  C   -0.104560
    12  C   -0.091122
    13  C   -0.100950
    14  C   -0.166076
    15  C   -0.070571
    16  C   -0.351695
    17  C    0.196836
    18  C   -0.200279
    19  C   -0.097749
    20  C   -0.112592
    21  C   -0.106744
    22  C   -0.218872
    23  H    0.135522
    24  H    0.110149
    25  H    0.109194
    26  H    0.107900
    27  H    0.139731
    28  H    0.120506
    29  H    0.110797
    30  H    0.111304
    31  H    0.106657
    32  H    0.132009
    33  H    0.108886
    34  H    0.148396
    35  H    0.105546
    36  H    0.105885
    37  H    0.104160
    38  H    0.099635
    39  H    0.124652
    40  H    0.138945
    41  H    0.121304
    42  C    0.204064
    43  C    0.174899
    44  C   -0.215110
    45  C   -0.194896
    46  C   -0.101672
    47  H    0.118694
    48  C   -0.109461
    49  H    0.117698
    50  H    0.110119
    51  H    0.109798
    52  P    0.470164
    53  O   -0.338377
    54  O   -0.347607
 Sum of Mulliken charges =  -0.00000

 Dipole moment (field-independent basis, Debye):
    X=              1.1762    Y=             -1.5415    Z=              2.3899  Tot=              3.0775
 Quadrupole moment (field-independent basis, Debye-Ang):
   XX=           -179.6030   YY=           -185.1866   ZZ=           -195.3587
   XY=             -1.6053   XZ=             -0.3120   YZ=             10.5767

 Summary of Natural Population Analysis:

                                       Natural Population
                Natural  -----------------------------------------------
    Atom  No    Charge         Core      Valence    Rydberg      Total
 -----------------------------------------------------------------------
      P    1    1.02907      9.99783     3.93368    0.03942    13.97093
      N    2   -1.04492      1.99957     6.00952    0.03583     8.04492
      C    3   -0.35533      1.99900     4.32258    0.03375     6.35533
      C    4   -0.20867      1.99909     4.18997    0.01961     6.20867
      C    5   -0.19566      1.99919     4.17780    0.01868     6.19566
      C    6   -0.21287      1.99919     4.19419    0.01949     6.21287
      C    7   -0.19510      1.99918     4.17718    0.01874     6.19510
      C    8   -0.21373      1.99909     4.19456    0.02008     6.21373
      C    9   -0.36672      1.99899     4.33373    0.03400     6.36672
      C   10   -0.17859      1.99910     4.15985    0.01963     6.17859
      C   11   -0.20405      1.99918     4.18573    0.01914     6.20405
      C   12   -0.18946      1.99919     4.17140    0.01887     6.18946
      C   13   -0.20225      1.99918     4.18400    0.01906     6.20225
      C   14   -0.18408      1.99908     4.16447    0.02054     6.18408
      C   15   -0.06399      1.99925     4.03721    0.02753     6.06399
      C   16   -0.59538      1.99941     4.58366    0.01231     6.59538
      C   17   -0.02719      1.99902     4.00545    0.02271     6.02719
      C   18   -0.20953      1.99905     4.19112    0.01936     6.20953
      C   19   -0.19235      1.99920     4.17454    0.01862     6.19235
      C   20   -0.21028      1.99919     4.19212    0.01898     6.21028
      C   21   -0.19873      1.99919     4.18085    0.01869     6.19873
      C   22   -0.20729      1.99908     4.18940    0.01882     6.20729
      H   23    0.21475      0.00000     0.78356    0.00169     0.78525
      H   24    0.20920      0.00000     0.78954    0.00125     0.79080
      H   25    0.20862      0.00000     0.79021    0.00116     0.79138
      H   26    0.20889      0.00000     0.78985    0.00126     0.79111
      H   27    0.21264      0.00000     0.78527    0.00209     0.78736
      H   28    0.21815      0.00000     0.78038    0.00147     0.78185
      H   29    0.21057      0.00000     0.78818    0.00125     0.78943
      H   30    0.20882      0.00000     0.79001    0.00117     0.79118
      H   31    0.20855      0.00000     0.79010    0.00136     0.79145
      H   32    0.21271      0.00000     0.78475    0.00254     0.78729
      H   33    0.20224      0.00000     0.79440    0.00336     0.79776
      H   34    0.22415      0.00000     0.77390    0.00195     0.77585
      H   35    0.20702      0.00000     0.79178    0.00119     0.79298
      H   36    0.20722      0.00000     0.79162    0.00116     0.79278
      H   37    0.20672      0.00000     0.79206    0.00122     0.79328
      H   38    0.20117      0.00000     0.79729    0.00153     0.79883
      H   39    0.21617      0.00000     0.78281    0.00101     0.78383
      H   40    0.20998      0.00000     0.78849    0.00153     0.79002
      H   41    0.21416      0.00000     0.78468    0.00116     0.78584
      C   42    0.21130      1.99856     3.76452    0.02563     5.78870
      C   43    0.21655      1.99856     3.75915    0.02574     5.78345
      C   44   -0.24086      1.99904     4.22248    0.01934     6.24086
      C   45   -0.24197      1.99905     4.22349    0.01943     6.24197
      C   46   -0.21102      1.99922     4.19283    0.01897     6.21102
      H   47    0.22342      0.00000     0.77523    0.00136     0.77658
      C   48   -0.21028      1.99922     4.19210    0.01896     6.21028
      H   49    0.22348      0.00000     0.77515    0.00136     0.77652
      H   50    0.21113      0.00000     0.78778    0.00109     0.78887
      H   51    0.21101      0.00000     0.78790    0.00109     0.78899
      P   52    1.50386      9.99840     3.40816    0.08958    13.49614
      O   53   -0.73336      1.99980     6.70679    0.02676     8.73336
      O   54   -0.73790      1.99980     6.71197    0.02612     8.73790
 =======================================================================
   * Total *   -0.00000     77.97191   153.22944    0.79865   232.00000

 1\1\GINC-G2NODEC3\SP\RB3LYP\def2TZVP\C26H23N1O2P2\ROOT\06-Nov-2024\0\\
 # nmr=giao b3lyp/def2TZVP pop=nbo scfcyc=200\\Ligand 63 SPE NoRh\\0,1\
 P,0,-0.1,-1.232,0.302\N,0,-0.93,0.299,0.611\C,0,-0.013,-2.109,1.911\C,
 0,0.155,-3.498,1.946\C,0,0.353,-4.147,3.16\C,0,0.386,-3.42,4.346\C,0,0
 .231,-2.038,4.315\C,0,0.043,-1.382,3.104\C,0,-1.127,-2.255,-0.816\C,0,
 -0.873,-2.169,-2.189\C,0,-1.639,-2.899,-3.089\C,0,-2.661,-3.721,-2.625
 \C,0,-2.921,-3.807,-1.261\C,0,-2.16,-3.078,-0.356\C,0,-2.301,0.451,1.1
 82\C,0,-2.455,1.769,1.949\C,0,-3.421,0.275,0.164\C,0,-3.371,0.829,-1.1

 Normal termination of Gaussian 16 at Wed Nov  6 20:17:06 2024.
