 Gaussian 16, Revision B.01,
 Gaussian 16:  ES64L-G16RevB.01 20-Dec-2017

 --------------------------------------------
 # nmr=giao b3lyp/def2TZVP pop=nbo scfcyc=200
 --------------------------------------------

 -------------------
 Ligand 64a SPE NoRh
 -------------------
 Symbolic Z-matrix:
 Charge =  0 Multiplicity = 1

                         Standard orientation:
 ---------------------------------------------------------------------
 Center     Atomic      Atomic             Coordinates (Angstroms)
 Number     Number       Type             X           Y           Z
 ---------------------------------------------------------------------
      1         15           0        1.522155   -0.270948   -0.932614
      2         15           0       -0.856688    0.935294   -1.134333
      3          7           0        2.958366    0.478325   -0.213643
      4          7           0        2.788068    1.644935    0.498116
      5          7           0        0.182579    0.159773    0.053156
      6          6           0       -2.642795   -0.845197   -2.289459
      7          1           0       -1.835514   -1.011094   -2.992778
      8          6           0        2.540077   -2.527115    0.470138
      9          1           0        2.938447   -1.837222    1.202650
     10          6           0        0.004421   -0.145726    1.513749
     11          1           0        0.891081   -0.736486    1.757209
     12          6           0       -1.213713    2.667035   -0.634895
     13          6           0       -1.197107   -1.049764    1.799541
     14          6           0        0.066320    1.112509    2.378365
     15          1           0        0.968924    1.668782    2.141319
     16          1           0        0.100603    0.831336    3.432680
     17          1           0       -0.796548    1.761346    2.228510
     18          6           0       -2.431831    3.275658   -0.961603
     19          1           0       -3.234348    2.700942   -1.404654
     20          6           0       -2.469263    0.065397   -1.242739
     21          6           0       -0.181738    3.443428   -0.093504
     22          1           0        0.774095    2.988921    0.137619
     23          6           0       -3.514931    0.271861   -0.336018
     24          1           0       -3.399503    0.964203    0.485884
     25          6           0        1.874111   -2.049134   -0.663661
     26          6           0        1.387361   -2.955273   -1.609882
     27          1           0        0.868875   -2.589268   -2.488243
     28          6           0       -4.709164   -0.421173   -0.479836
     29          1           0       -5.510552   -0.258589    0.229340
     30          6           0       -1.605239    5.391468   -0.153227
     31          1           0       -1.758673    6.445511    0.040758
     32          6           0       -2.623518    4.632759   -0.716837
     33          1           0       -3.572311    5.090206   -0.965674
     34          6           0       -4.875242   -1.321708   -1.527682
     35          1           0       -5.811364   -1.856838   -1.637682
     36          6           0       -2.144052   -0.724623    2.772410
     37          1           0       -2.077455    0.209176    3.312853
     38          6           0       -1.321420   -2.279045    1.145247
     39          1           0       -0.598511   -2.562727    0.392582
     40          6           0        3.998400    2.156928    0.648998
     41          6           0       -3.840603   -1.536042   -2.431173
     42          1           0       -3.966694   -2.236154   -3.247424
     43          6           0       -2.360547   -3.149332    1.445174
     44          1           0       -2.432854   -4.097439    0.925604
     45          6           0        4.288378    0.301692   -0.558385
     46          6           0        4.836412   -0.829595   -1.367984
     47          1           0        4.857971   -1.764671   -0.808048
     48          1           0        5.857863   -0.589693   -1.660430
     49          1           0        4.264114   -1.011291   -2.279356
     50          6           0       -0.385419    4.794675    0.154556
     51          1           0        0.412623    5.384988    0.585660
     52          6           0       -3.299147   -2.812667    2.415481
     53          1           0       -4.105524   -3.494098    2.656335
     54          6           0        1.560988   -4.321643   -1.425081
     55          1           0        1.186238   -5.018833   -2.164999
     56          6           0        4.967872    1.353072    0.001474
     57          1           0        6.032273    1.519545   -0.046515
     58          6           0        2.218997   -4.791964   -0.293287
     59          1           0        2.355263   -5.855942   -0.149136
     60          6           0        2.706496   -3.894901    0.653194
     61          1           0        3.219652   -4.260064    1.533980
     62          6           0       -3.186568   -1.596696    3.077469
     63          1           0       -3.904824   -1.324536    3.841474
     64          6           0        4.214369    3.413902    1.425485
     65          1           0        3.262318    3.825155    1.759627
     66          1           0        4.724210    4.166091    0.819544
     67          1           0        4.833589    3.229588    2.305944
 ---------------------------------------------------------------------

 SCF Done:  E(RB3LYP) =  -2047.46330070     A.U. after   15 cycles

      1  P    Isotropic =   130.2014   Anisotropy =   196.2758

      2  P    Isotropic =   161.5643   Anisotropy =   142.4112

      3  N    Isotropic =    13.7905   Anisotropy =   109.2263

      4  N    Isotropic =   -84.5692   Anisotropy =   307.1451

      5  N    Isotropic =   136.3410   Anisotropy =    37.0111

      6  C    Isotropic =    41.7348   Anisotropy =   182.4339

      7  H    Isotropic =    23.7320   Anisotropy =     8.5280

      8  C    Isotropic =    45.5701   Anisotropy =   194.3971

      9  H    Isotropic =    23.9841   Anisotropy =     9.3735

     10  C    Isotropic =   118.6371   Anisotropy =    36.1818

     11  H    Isotropic =    26.7953   Anisotropy =     5.7942

     12  C    Isotropic =    32.4740   Anisotropy =   183.6754

     13  C    Isotropic =    33.7294   Anisotropy =   196.0655

     14  C    Isotropic =   162.4224   Anisotropy =    14.1020

     15  H    Isotropic =    28.3934   Anisotropy =     9.0684

     16  H    Isotropic =    30.6167   Anisotropy =     9.8290

     17  H    Isotropic =    30.2171   Anisotropy =     4.2839

     18  C    Isotropic =    51.5190   Anisotropy =   179.1640

     19  H    Isotropic =    24.8901   Anisotropy =    12.7737

     20  C    Isotropic =    38.8745   Anisotropy =   200.5622

     21  C    Isotropic =    43.2997   Anisotropy =   201.8710

     22  H    Isotropic =    22.0688   Anisotropy =     9.0904

     23  C    Isotropic =    40.3474   Anisotropy =   198.6157

     24  H    Isotropic =    24.5929   Anisotropy =     7.4691

     25  C    Isotropic =    33.3122   Anisotropy =   206.7695

     26  C    Isotropic =    43.5647   Anisotropy =   190.2208

     27  H    Isotropic =    23.4327   Anisotropy =     7.8776

     28  C    Isotropic =    50.5229   Anisotropy =   187.7832

     29  H    Isotropic =    25.0598   Anisotropy =     5.8863

     30  C    Isotropic =    53.2165   Anisotropy =   179.5767

     31  H    Isotropic =    24.5531   Anisotropy =     4.3200

     32  C    Isotropic =    51.4685   Anisotropy =   180.7448

     33  H    Isotropic =    24.6067   Anisotropy =     5.9465

     34  C    Isotropic =    48.9938   Anisotropy =   189.7807

     35  H    Isotropic =    24.6548   Anisotropy =     3.8793

     36  C    Isotropic =    51.8695   Anisotropy =   185.2030

     37  H    Isotropic =    24.5617   Anisotropy =    11.3836

     38  C    Isotropic =    47.9801   Anisotropy =   191.1335

     39  H    Isotropic =    26.3323   Anisotropy =     7.9584

     40  C    Isotropic =    24.9687   Anisotropy =   147.6216

     41  C    Isotropic =    51.1056   Anisotropy =   182.9749

     42  H    Isotropic =    24.4342   Anisotropy =     5.1714

     43  C    Isotropic =    51.0574   Anisotropy =   186.3514

     44  H    Isotropic =    25.5364   Anisotropy =     6.8907

     45  C    Isotropic =    33.3081   Anisotropy =   134.4040

     46  C    Isotropic =   167.8425   Anisotropy =    15.1293

     47  H    Isotropic =    30.5839   Anisotropy =     7.3786

     48  H    Isotropic =    29.8679   Anisotropy =    10.2336

     49  H    Isotropic =    30.3441   Anisotropy =     5.4060

     50  C    Isotropic =    50.7605   Anisotropy =   182.6743

     51  H    Isotropic =    24.1650   Anisotropy =     7.2966

     52  C    Isotropic =    52.0792   Anisotropy =   184.9398

     53  H    Isotropic =    25.0059   Anisotropy =     3.5699

     54  C    Isotropic =    49.0372   Anisotropy =   187.0403

     55  H    Isotropic =    23.9690   Anisotropy =     5.1724

     56  C    Isotropic =    70.3635   Anisotropy =    95.0574

     57  H    Isotropic =    25.6927   Anisotropy =     4.6123

     58  C    Isotropic =    47.5961   Anisotropy =   190.2346

     59  H    Isotropic =    24.1905   Anisotropy =     3.8207

     60  C    Isotropic =    48.8348   Anisotropy =   187.6124

     61  H    Isotropic =    24.3198   Anisotropy =     6.1249

     62  C    Isotropic =    51.2804   Anisotropy =   183.0183

     63  H    Isotropic =    24.6720   Anisotropy =     5.0573

     64  C    Isotropic =   167.7601   Anisotropy =    31.5669

     65  H    Isotropic =    29.1522   Anisotropy =     6.3142

     66  H    Isotropic =    29.3647   Anisotropy =     8.8114

     67  H    Isotropic =    29.4786   Anisotropy =     8.7846

 The electronic state is 1-A.
 Alpha  occ. eigenvalues --  -77.09103 -77.06360 -14.36959 -14.33202 -14.31950
 Alpha  occ. eigenvalues --  -10.21791 -10.20955 -10.19082 -10.19061 -10.19020
 Alpha  occ. eigenvalues --  -10.18923 -10.18875 -10.18783 -10.18730 -10.18082
 Alpha  occ. eigenvalues --  -10.18061 -10.17937 -10.17927 -10.17696 -10.17688
 Alpha  occ. eigenvalues --  -10.17646 -10.17639 -10.17535 -10.17229 -10.17166
 Alpha  occ. eigenvalues --  -10.17113 -10.17066 -10.16867 -10.16824 -10.16788
 Alpha  occ. eigenvalues --  -10.16678 -10.16611 -10.16524 -10.16255 -10.15352
 Alpha  occ. eigenvalues --  -10.15067  -6.57075  -6.54620  -4.73337  -4.73170
 Alpha  occ. eigenvalues --   -4.72684  -4.70877  -4.70681  -4.70264  -1.02369
 Alpha  occ. eigenvalues --   -0.90479  -0.87106  -0.85966  -0.85462  -0.84865
 Alpha  occ. eigenvalues --   -0.82515  -0.78989  -0.77712  -0.76509  -0.76239
 Alpha  occ. eigenvalues --   -0.75655  -0.75083  -0.74512  -0.74075  -0.73887
 Alpha  occ. eigenvalues --   -0.72219  -0.71040  -0.70447  -0.64873  -0.64391
 Alpha  occ. eigenvalues --   -0.62100  -0.62008  -0.60932  -0.60234  -0.60019
 Alpha  occ. eigenvalues --   -0.59504  -0.59396  -0.58178  -0.57077  -0.54972
 Alpha  occ. eigenvalues --   -0.53671  -0.52314  -0.52001  -0.51693  -0.49720
 Alpha  occ. eigenvalues --   -0.49645  -0.47514  -0.46935  -0.46474  -0.45645
 Alpha  occ. eigenvalues --   -0.45400  -0.45365  -0.45296  -0.44897  -0.44583
 Alpha  occ. eigenvalues --   -0.44054  -0.43701  -0.43650  -0.42816  -0.42605
 Alpha  occ. eigenvalues --   -0.42299  -0.42096  -0.41977  -0.41702  -0.41212
 Alpha  occ. eigenvalues --   -0.40749  -0.40483  -0.39276  -0.39074  -0.38610
 Alpha  occ. eigenvalues --   -0.38207  -0.37866  -0.37482  -0.37018  -0.36657
 Alpha  occ. eigenvalues --   -0.36393  -0.36287  -0.35987  -0.35668  -0.35009
 Alpha  occ. eigenvalues --   -0.34910  -0.34218  -0.33905  -0.32751  -0.32544
 Alpha  occ. eigenvalues --   -0.28727  -0.28485  -0.27735  -0.27237  -0.26810
 Alpha  occ. eigenvalues --   -0.26671  -0.26116  -0.25370  -0.25303  -0.24919
 Alpha  occ. eigenvalues --   -0.24496  -0.23987  -0.22515  -0.18264
 Alpha virt. eigenvalues --   -0.04726  -0.03339  -0.03034  -0.01969  -0.01460
 Alpha virt. eigenvalues --   -0.01140  -0.00893  -0.00298   0.00727   0.02684
 Alpha virt. eigenvalues --    0.03472   0.03946   0.04558   0.04739   0.05168

 Mulliken charges:
               1
     1  P    0.243935
     2  P    0.183482
     3  N    0.076672
     4  N   -0.341237
     5  N   -0.247799
     6  C   -0.179300
     7  H    0.118363
     8  C   -0.190778
     9  H    0.149496
    10  C    0.052191
    11  H    0.068969
    12  C   -0.009451
    13  C    0.089341
    14  C   -0.407807
    15  H    0.157362
    16  H    0.116757
    17  H    0.129408
    18  C   -0.180876
    19  H    0.141679
    20  C    0.076658
    21  C   -0.158119
    22  H    0.216894
    23  C   -0.163339
    24  H    0.135960
    25  C    0.016976
    26  C   -0.166325
    27  H    0.118999
    28  C   -0.093515
    29  H    0.102775
    30  C   -0.090329
    31  H    0.102740
    32  C   -0.132813
    33  H    0.103990
    34  C   -0.093844
    35  H    0.108316
    36  C   -0.227333
    37  H    0.120159
    38  C   -0.136261
    39  H    0.190513
    40  C    0.147839
    41  C   -0.112716
    42  H    0.106136
    43  C   -0.127700
    44  H    0.097181
    45  C    0.035030
    46  C   -0.369204
    47  H    0.133182
    48  H    0.126188
    49  H    0.135290
    50  C   -0.161881
    51  H    0.102452
    52  C   -0.113019
    53  H    0.102768
    54  C   -0.114113
    55  H    0.113510
    56  C   -0.205369
    57  H    0.109050
    58  C   -0.093663
    59  H    0.114975
    60  C   -0.098739
    61  H    0.113422
    62  C   -0.111380
    63  H    0.103924
    64  C   -0.398863
    65  H    0.126832
    66  H    0.119840
    67  H    0.116517
 Sum of Mulliken charges =  -0.00000

 Dipole moment (field-independent basis, Debye):
    X=              0.2691    Y=             -3.0138    Z=              1.0114  Tot=              3.1904
 Quadrupole moment (field-independent basis, Debye-Ang):
   XX=           -206.5987   YY=           -212.4810   ZZ=           -227.4083
   XY=             -0.3945   XZ=              0.8710   YZ=             10.0421

 Summary of Natural Population Analysis:

                                       Natural Population
                Natural  -----------------------------------------------
    Atom  No    Charge         Core      Valence    Rydberg      Total
 -----------------------------------------------------------------------
      P    1    1.22067      9.99779     3.73243    0.04911    13.77933
      P    2    1.03769      9.99777     3.92394    0.04060    13.96231
      N    3   -0.46000      1.99940     5.42239    0.03820     7.46000
      N    4   -0.31122      1.99930     5.27941    0.03251     7.31122
      N    5   -1.00511      1.99955     5.96653    0.03903     8.00511
      C    6   -0.18260      1.99910     4.16366    0.01984     6.18260
      H    7    0.21469      0.00000     0.78374    0.00157     0.78531
      C    8   -0.20039      1.99908     4.18063    0.02068     6.20039
      H    9    0.21484      0.00000     0.78271    0.00246     0.78516
      C   10   -0.06196      1.99924     4.03448    0.02823     6.06196
      H   11    0.20435      0.00000     0.79258    0.00307     0.79565
      C   12   -0.35758      1.99898     4.32500    0.03360     6.35758
      C   13   -0.03079      1.99902     4.00906    0.02272     6.03079
      C   14   -0.61383      1.99941     4.60075    0.01367     6.61383
      H   15    0.24405      0.00000     0.75448    0.00146     0.75595
      H   16    0.20447      0.00000     0.79448    0.00105     0.79553
      H   17    0.20472      0.00000     0.79383    0.00145     0.79528
      C   18   -0.21259      1.99910     4.19398    0.01952     6.21259
      H   19    0.21348      0.00000     0.78481    0.00172     0.78652
      C   20   -0.36272      1.99898     4.32956    0.03418     6.36272
      C   21   -0.21126      1.99909     4.19177    0.02041     6.21126
      H   22    0.24018      0.00000     0.75738    0.00245     0.75982
      C   23   -0.17887      1.99907     4.15862    0.02118     6.17887
      H   24    0.21528      0.00000     0.78215    0.00257     0.78472
      C   25   -0.39356      1.99900     4.35734    0.03722     6.39356
      C   26   -0.19068      1.99909     4.17135    0.02024     6.19068
      H   27    0.21839      0.00000     0.77992    0.00169     0.78161
      C   28   -0.20426      1.99918     4.18578    0.01930     6.20426
      H   29    0.20884      0.00000     0.78977    0.00139     0.79116
      C   30   -0.21430      1.99919     4.19544    0.01967     6.21430
      H   31    0.20535      0.00000     0.79345    0.00120     0.79465
      C   32   -0.20216      1.99918     4.18417    0.01881     6.20216
      H   33    0.20614      0.00000     0.79258    0.00128     0.79386
      C   34   -0.19155      1.99919     4.17341    0.01895     6.19155
      H   35    0.20747      0.00000     0.79134    0.00119     0.79253
      C   36   -0.21055      1.99909     4.19293    0.01853     6.21055
      H   37    0.21081      0.00000     0.78776    0.00143     0.78919
      C   38   -0.19366      1.99907     4.17476    0.01983     6.19366
      H   39    0.21443      0.00000     0.78324    0.00233     0.78557
      C   40    0.14238      1.99928     3.83420    0.02415     5.85762
      C   41   -0.21059      1.99918     4.19213    0.01928     6.21059
      H   42    0.20832      0.00000     0.79040    0.00127     0.79168
      C   43   -0.19675      1.99919     4.17834    0.01922     6.19675
      H   44    0.20670      0.00000     0.79199    0.00131     0.79330
      C   45    0.15741      1.99905     3.82173    0.02181     5.84259
      C   46   -0.62918      1.99937     4.61786    0.01194     6.62918
      H   47    0.22442      0.00000     0.77415    0.00143     0.77558
      H   48    0.22265      0.00000     0.77646    0.00089     0.77735
      H   49    0.22304      0.00000     0.77557    0.00139     0.77696
      C   50   -0.19961      1.99918     4.18193    0.01850     6.19961
      H   51    0.20532      0.00000     0.79335    0.00133     0.79468
      C   52   -0.20762      1.99918     4.18918    0.01926     6.20762
      H   53    0.20621      0.00000     0.79261    0.00118     0.79379
      C   54   -0.20483      1.99918     4.18638    0.01927     6.20483
      H   55    0.21185      0.00000     0.78688    0.00127     0.78815
      C   56   -0.33062      1.99889     4.31375    0.01798     6.33062
      H   57    0.21704      0.00000     0.78172    0.00123     0.78296
      C   58   -0.19369      1.99919     4.17544    0.01906     6.19369
      H   59    0.21088      0.00000     0.78795    0.00116     0.78912
      C   60   -0.20272      1.99918     4.18450    0.01904     6.20272
      H   61    0.21074      0.00000     0.78787    0.00138     0.78926
      C   62   -0.20412      1.99919     4.18551    0.01942     6.20412
      H   63    0.20565      0.00000     0.79312    0.00122     0.79435
      C   64   -0.61721      1.99938     4.60615    0.01168     6.61721
      H   65    0.22081      0.00000     0.77804    0.00115     0.77919
      H   66    0.21423      0.00000     0.78468    0.00109     0.78577
      H   67    0.21310      0.00000     0.78577    0.00113     0.78690
 =======================================================================
   * Total *   -0.00000     87.96733   179.13928    0.89339   268.00000

 Normal termination of Gaussian 16 at Wed Nov  6 21:02:15 2024.
