 Gaussian 16, Revision B.01,
 Gaussian 16:  ES64L-G16RevB.01 20-Dec-2017

 --------------------------------------------
 # nmr=giao b3lyp/def2TZVP pop=nbo scfcyc=200
 --------------------------------------------

 -------------------
 Ligand 65b SPE NoRh
 -------------------
 Symbolic Z-matrix:
 Charge =  0 Multiplicity = 1

                         Standard orientation:
 ---------------------------------------------------------------------
 Center     Atomic      Atomic             Coordinates (Angstroms)
 Number     Number       Type             X           Y           Z
 ---------------------------------------------------------------------
      1         15           0       -1.316034   -1.230453    0.048004
      2         15           0        1.303946   -1.224052    0.068077
      3          8           0       -2.259367   -1.017197   -1.276991
      4          8           0       -2.260280   -0.599711    1.241840
      5          8           0        2.285455   -0.998691    1.361464
      6          8           0        2.207625   -0.597106   -1.159015
      7          7           0       -0.008725   -0.130411    0.077407
      8          6           0       -3.055794    0.127856   -1.455717
      9          6           0       -2.705237    0.965993   -2.528184
     10          1           0       -1.870562    0.687574   -3.158644
     11          6           0       -3.433610    2.101408   -2.754708
     12          1           0       -3.185404    2.750685   -3.584844
     13          6           0       -4.500537    2.458856   -1.895526
     14          6           0       -5.209941    3.672864   -2.076037
     15          1           0       -4.941734    4.310084   -2.909994
     16          6           0       -6.202874    4.043391   -1.208934
     17          1           0       -6.734410    4.975792   -1.352599
     18          6           0       -6.522455    3.215540   -0.113561
     19          1           0       -7.290203    3.523811    0.584602
     20          6           0       -5.869060    2.023715    0.079598
     21          1           0       -6.126279    1.407695    0.929296
     22          6           0       -4.852119    1.593889   -0.809714
     23          6           0       -4.140714    0.356792   -0.635905
     24          6           0       -4.518283   -0.636749    0.405529
     25          6           0       -5.831554   -1.215415    0.479410
     26          6           0       -6.820287   -0.999868   -0.513641
     27          1           0       -6.588063   -0.377879   -1.366447
     28          6           0       -8.061587   -1.575234   -0.414714
     29          1           0       -8.796597   -1.400966   -1.189909
     30          6           0       -8.390171   -2.397045    0.683570
     31          1           0       -9.377392   -2.835863    0.753041
     32          6           0       -7.452417   -2.646909    1.651000
     33          1           0       -7.687632   -3.291075    2.490086
     34          6           0       -6.154143   -2.085327    1.570321
     35          6           0       -5.164405   -2.388215    2.537496
     36          1           0       -5.424614   -3.027425    3.372488
     37          6           0       -3.893099   -1.901224    2.410741
     38          1           0       -3.117040   -2.134234    3.129738
     39          6           0       -3.586532   -1.054151    1.332106
     40          6           0        3.104634    0.136008    1.506843
     41          6           0        2.802589    0.980128    2.589694
     42          1           0        1.988707    0.713882    3.250200
     43          6           0        3.550705    2.108494    2.785073
     44          1           0        3.340897    2.762405    3.622466
     45          6           0        4.590899    2.450596    1.885843
     46          6           0        5.319093    3.657408    2.037183
     47          1           0        5.088278    4.300365    2.877692
     48          6           0        6.285297    4.014480    1.133670
     49          1           0        6.831441    4.940934    1.254402
     50          6           0        6.555369    3.178112    0.030679
     51          1           0        7.300341    3.476526   -0.696330
     52          6           0        5.882199    1.994101   -0.134890
     53          1           0        6.101039    1.372952   -0.990696
     54          6           0        4.892949    1.579336    0.792340
     55          6           0        4.161738    0.349618    0.648291
     56          6           0        4.492694   -0.652099   -0.401492
     57          6           0        5.797653   -1.244093   -0.519303
     58          6           0        6.821561   -1.035061    0.439317
     59          1           0        6.623718   -0.409880    1.298095
     60          6           0        8.052548   -1.623316    0.299366
     61          1           0        8.815695   -1.453891    1.049165
     62          6           0        8.335626   -2.449728   -0.806738
     63          1           0        9.316610   -2.898401   -0.908785
     64          6           0        7.363679   -2.693477   -1.741846
     65          1           0        7.564497   -3.341477   -2.586326
     66          6           0        6.074708   -2.118409   -1.617797
     67          6           0        5.050741   -2.414112   -2.550298
     68          1           0        5.274558   -3.058094   -3.392802
     69          6           0        3.787691   -1.915479   -2.381229
     70          1           0        2.985453   -2.144126   -3.071307
     71          6           0        3.526644   -1.063321   -1.294431
     72          6           0       -0.014215    1.342172    0.035424
     73          1           0       -0.981518    1.700941    0.378666
     74          1           0        0.171120    1.700097   -0.977049
     75          1           0        0.754103    1.732533    0.701376
 ---------------------------------------------------------------------

 SCF Done:  E(RB3LYP) =  -2617.86365602     A.U. after   15 cycles

      1  P    Isotropic =   114.9541   Anisotropy =   193.0629

      2  P    Isotropic =   112.4210   Anisotropy =   197.0248

      3  O    Isotropic =   140.6432   Anisotropy =    60.8668

      4  O    Isotropic =   147.3291   Anisotropy =    77.6138

      5  O    Isotropic =   139.9080   Anisotropy =    58.3995

      6  O    Isotropic =   145.6921   Anisotropy =    65.3772

      7  N    Isotropic =    96.0777   Anisotropy =    88.4138

      8  C    Isotropic =    23.1841   Anisotropy =   129.6386

      9  C    Isotropic =    56.8706   Anisotropy =   150.1801

     10  H    Isotropic =    24.0688   Anisotropy =     6.6424

     11  C    Isotropic =    47.9576   Anisotropy =   160.5040

     12  H    Isotropic =    23.7776   Anisotropy =     7.3487

     13  C    Isotropic =    44.8758   Anisotropy =   212.9117

     14  C    Isotropic =    49.6214   Anisotropy =   161.2003

     15  H    Isotropic =    23.7678   Anisotropy =     7.5125

     16  C    Isotropic =    54.5184   Anisotropy =   178.4642

     17  H    Isotropic =    24.2725   Anisotropy =     4.5997

     18  C    Isotropic =    52.6304   Anisotropy =   182.0972

     19  H    Isotropic =    24.4374   Anisotropy =     7.5097

     20  C    Isotropic =    49.4491   Anisotropy =   179.2401

     21  H    Isotropic =    24.4083   Anisotropy =    14.1762

     22  C    Isotropic =    42.7018   Anisotropy =   205.9853

     23  C    Isotropic =    51.9014   Anisotropy =   141.6390

     24  C    Isotropic =    51.6718   Anisotropy =   136.4899

     25  C    Isotropic =    42.0525   Anisotropy =   205.2905

     26  C    Isotropic =    50.7864   Anisotropy =   179.9352

     27  H    Isotropic =    24.4441   Anisotropy =    14.8342

     28  C    Isotropic =    52.2662   Anisotropy =   180.1737

     29  H    Isotropic =    24.4313   Anisotropy =     7.7852

     30  C    Isotropic =    53.8364   Anisotropy =   177.2082

     31  H    Isotropic =    24.2137   Anisotropy =     4.6574

     32  C    Isotropic =    49.2706   Anisotropy =   161.1940

     33  H    Isotropic =    23.6481   Anisotropy =     7.3686

     34  C    Isotropic =    44.2892   Anisotropy =   212.5015

     35  C    Isotropic =    47.2521   Anisotropy =   159.6993

     36  H    Isotropic =    23.6108   Anisotropy =     7.2143

     37  C    Isotropic =    57.1008   Anisotropy =   150.0203

     38  H    Isotropic =    23.9937   Anisotropy =     7.9048

     39  C    Isotropic =    23.8916   Anisotropy =   114.8313

     40  C    Isotropic =    22.5099   Anisotropy =   130.0802

     41  C    Isotropic =    57.0642   Anisotropy =   150.3223

     42  H    Isotropic =    24.0479   Anisotropy =     6.7186

     43  C    Isotropic =    47.9129   Anisotropy =   160.4322

     44  H    Isotropic =    23.7651   Anisotropy =     7.2511

     45  C    Isotropic =    44.9494   Anisotropy =   212.7713

     46  C    Isotropic =    49.4037   Anisotropy =   161.5558

     47  H    Isotropic =    23.7560   Anisotropy =     7.4680

     48  C    Isotropic =    54.2686   Anisotropy =   178.6545

     49  H    Isotropic =    24.2684   Anisotropy =     4.5947

     50  C    Isotropic =    52.5346   Anisotropy =   181.9859

     51  H    Isotropic =    24.4251   Anisotropy =     7.5408

     52  C    Isotropic =    49.6855   Anisotropy =   179.3532

     53  H    Isotropic =    24.4075   Anisotropy =    14.2206

     54  C    Isotropic =    42.6412   Anisotropy =   205.9762

     55  C    Isotropic =    52.1663   Anisotropy =   141.4858

     56  C    Isotropic =    51.5868   Anisotropy =   136.6920

     57  C    Isotropic =    42.0671   Anisotropy =   205.2920

     58  C    Isotropic =    50.6970   Anisotropy =   179.6601

     59  H    Isotropic =    24.4331   Anisotropy =    14.8175

     60  C    Isotropic =    52.3894   Anisotropy =   180.2389

     61  H    Isotropic =    24.4234   Anisotropy =     7.7704

     62  C    Isotropic =    53.8703   Anisotropy =   177.2977

     63  H    Isotropic =    24.2063   Anisotropy =     4.6401

     64  C    Isotropic =    49.2638   Anisotropy =   161.2483

     65  H    Isotropic =    23.6527   Anisotropy =     7.3800

     66  C    Isotropic =    44.4396   Anisotropy =   212.2594

     67  C    Isotropic =    47.0469   Anisotropy =   159.7753

     68  H    Isotropic =    23.5931   Anisotropy =     7.2675

     69  C    Isotropic =    56.9580   Anisotropy =   150.0222

     70  H    Isotropic =    23.9920   Anisotropy =     7.9083

     71  C    Isotropic =    23.5528   Anisotropy =   114.8094

     72  C    Isotropic =   154.5618   Anisotropy =    35.2561

     73  H    Isotropic =    29.6513   Anisotropy =     8.2008

     74  H    Isotropic =    29.5982   Anisotropy =     6.4803

     75  H    Isotropic =    29.8379   Anisotropy =    13.0892

 The electronic state is 1-A.
 Alpha  occ. eigenvalues --  -77.12634 -77.12628 -19.15846 -19.15809 -19.15554
 Alpha  occ. eigenvalues --  -19.15540 -14.33582 -10.24492 -10.24475 -10.24461
 Alpha  occ. eigenvalues --  -10.24437 -10.20596 -10.19902 -10.19864 -10.19803
 Alpha  occ. eigenvalues --  -10.19774 -10.19724 -10.19690 -10.19603 -10.19576
 Alpha  occ. eigenvalues --  -10.19308 -10.19276 -10.19079 -10.19061 -10.18850
 Alpha  occ. eigenvalues --  -10.18784 -10.18602 -10.18565 -10.18516 -10.18484
 Alpha  occ. eigenvalues --  -10.18311 -10.18301 -10.18281 -10.18264 -10.18123
 Alpha  occ. eigenvalues --  -10.18097 -10.18080 -10.18058 -10.18036 -10.18002
 Alpha  occ. eigenvalues --  -10.17920 -10.17914 -10.17903 -10.17901 -10.17833
 Alpha  occ. eigenvalues --  -10.17811 -10.17740 -10.17719  -6.60046  -6.60039
 Alpha  occ. eigenvalues --   -4.76310  -4.76302  -4.76219  -4.76211  -4.75632
 Alpha  occ. eigenvalues --   -4.75626  -1.07762  -1.07506  -1.03722  -1.03705
 Alpha  occ. eigenvalues --   -0.91429  -0.89295  -0.89070  -0.87966  -0.87927
 Alpha  occ. eigenvalues --   -0.83713  -0.83579  -0.82738  -0.82701  -0.80571
 Alpha  occ. eigenvalues --   -0.80546  -0.76940  -0.76915  -0.75433  -0.75376
 Alpha  occ. eigenvalues --   -0.74683  -0.74628  -0.74280  -0.74254  -0.71692
 Alpha  occ. eigenvalues --   -0.71654  -0.71474  -0.67424  -0.65644  -0.64051
 Alpha  occ. eigenvalues --   -0.63413  -0.63379  -0.63223  -0.62124  -0.61978
 Alpha  occ. eigenvalues --   -0.61841  -0.61769  -0.59663  -0.58552  -0.58502
 Alpha  occ. eigenvalues --   -0.57833  -0.55106  -0.54551  -0.53646  -0.53613
 Alpha  occ. eigenvalues --   -0.52929  -0.52903  -0.51852  -0.51681  -0.50392
 Alpha  occ. eigenvalues --   -0.50256  -0.50219  -0.50045  -0.47787  -0.47547
 Alpha  occ. eigenvalues --   -0.47158  -0.47038  -0.46741  -0.46652  -0.45888
 Alpha  occ. eigenvalues --   -0.45848  -0.44938  -0.44856  -0.44512  -0.44486
 Alpha  occ. eigenvalues --   -0.43783  -0.43428  -0.43282  -0.43151  -0.43029
 Alpha  occ. eigenvalues --   -0.42993  -0.42680  -0.42641  -0.42493  -0.42397
 Alpha  occ. eigenvalues --   -0.42315  -0.40425  -0.40188  -0.40159  -0.39931
 Alpha  occ. eigenvalues --   -0.39709  -0.39248  -0.39154  -0.38986  -0.38073
 Alpha  occ. eigenvalues --   -0.36349  -0.36324  -0.35951  -0.35940  -0.35398
 Alpha  occ. eigenvalues --   -0.35379  -0.35343  -0.35277  -0.33972  -0.33896
 Alpha  occ. eigenvalues --   -0.33606  -0.33414  -0.32604  -0.32574  -0.32460
 Alpha  occ. eigenvalues --   -0.32419  -0.30207  -0.30175  -0.29079  -0.29071
 Alpha  occ. eigenvalues --   -0.28600  -0.27145  -0.25411  -0.25359  -0.24989
 Alpha  occ. eigenvalues --   -0.24903  -0.23281  -0.23140  -0.22345  -0.21933
 Alpha  occ. eigenvalues --   -0.20761
 Alpha virt. eigenvalues --   -0.06229  -0.06181  -0.05059  -0.05014  -0.02798
 Alpha virt. eigenvalues --   -0.02686  -0.02233  -0.02186   0.00339   0.00404
 Alpha virt. eigenvalues --    0.01677   0.01748   0.01908   0.02046   0.04205

 Mulliken charges:
               1
     1  P    0.453652
     2  P    0.452772
     3  O   -0.337190
     4  O   -0.366875
     5  O   -0.334671
     6  O   -0.364852
     7  N   -0.208637
     8  C    0.175315
     9  C   -0.221925
    10  H    0.117728
    11  C   -0.165013
    12  H    0.104241
    13  C    0.156720
    14  C   -0.161717
    15  H    0.101571
    16  C   -0.107271
    17  H    0.108154
    18  C   -0.103823
    19  H    0.110629
    20  C   -0.176460
    21  H    0.136298
    22  C   -0.109494
    23  C    0.155534
    24  C    0.136337
    25  C   -0.105209
    26  C   -0.179158
    27  H    0.133954
    28  C   -0.102944
    29  H    0.109789
    30  C   -0.108006
    31  H    0.107840
    32  C   -0.159643
    33  H    0.101512
    34  C    0.156848
    35  C   -0.171403
    36  H    0.103497
    37  C   -0.233156
    38  H    0.113298
    39  C    0.277609
    40  C    0.166828
    41  C   -0.237803
    42  H    0.117806
    43  C   -0.152518
    44  H    0.104715
    45  C    0.156130
    46  C   -0.161492
    47  H    0.101913
    48  C   -0.107987
    49  H    0.108411
    50  C   -0.102731
    51  H    0.110602
    52  C   -0.177636
    53  H    0.136464
    54  C   -0.107537
    55  C    0.161831
    56  C    0.124014
    57  C   -0.099644
    58  C   -0.177655
    59  H    0.134314
    60  C   -0.102780
    61  H    0.109722
    62  C   -0.107636
    63  H    0.107785
    64  C   -0.160289
    65  H    0.101724
    66  C    0.156100
    67  C   -0.168551
    68  H    0.103683
    69  C   -0.237042
    70  H    0.113432
    71  C    0.280227
    72  C   -0.317114
    73  H    0.145896
    74  H    0.132218
    75  H    0.148750
 Sum of Mulliken charges =  -0.00000

 Dipole moment (field-independent basis, Debye):
    X=              0.0720    Y=              3.0509    Z=             -0.0816  Tot=              3.0528
 Quadrupole moment (field-independent basis, Debye-Ang):
   XX=           -252.6809   YY=           -279.9563   ZZ=           -272.5849
   XY=              0.2663   XZ=             -6.3404   YZ=              0.2841

 Summary of Natural Population Analysis:

                                       Natural Population
                Natural  -----------------------------------------------
    Atom  No    Charge         Core      Valence    Rydberg      Total
 -----------------------------------------------------------------------
      P    1    1.51260      9.99830     3.40126    0.08784    13.48740
      P    2    1.51398      9.99830     3.39961    0.08811    13.48602
      O    3   -0.76571      1.99979     6.74004    0.02589     8.76571
      O    4   -0.77620      1.99978     6.74868    0.02775     8.77620
      O    5   -0.76594      1.99979     6.74036    0.02578     8.76594
      O    6   -0.77555      1.99978     6.74820    0.02757     8.77555
      N    7   -1.07249      1.99962     6.03944    0.03342     8.07249
      C    8    0.28110      1.99861     3.69598    0.02432     5.71890
      C    9   -0.23805      1.99905     4.21902    0.01999     6.23805
      H   10    0.22614      0.00000     0.77260    0.00127     0.77386
      C   11   -0.15900      1.99913     4.14209    0.01778     6.15900
      H   12    0.20934      0.00000     0.78934    0.00133     0.79066
      C   13   -0.07002      1.99908     4.05052    0.02042     6.07002
      C   14   -0.17289      1.99912     4.15579    0.01797     6.17289
      H   15    0.20647      0.00000     0.79216    0.00137     0.79353
      C   16   -0.21057      1.99918     4.19216    0.01923     6.21057
      H   17    0.20974      0.00000     0.78910    0.00116     0.79026
      C   18   -0.19593      1.99919     4.17838    0.01836     6.19593
      H   19    0.20987      0.00000     0.78894    0.00119     0.79013
      C   20   -0.18855      1.99911     4.17103    0.01841     6.18855
      H   21    0.21925      0.00000     0.77924    0.00150     0.78075
      C   22   -0.03135      1.99902     4.01288    0.01945     6.03135
      C   23   -0.07387      1.99883     4.05218    0.02285     6.07387
      C   24   -0.07189      1.99884     4.05113    0.02192     6.07189
      C   25   -0.03067      1.99902     4.01245    0.01920     6.03067
      C   26   -0.18871      1.99911     4.17121    0.01839     6.18871
      H   27    0.21802      0.00000     0.78046    0.00152     0.78198
      C   28   -0.19606      1.99919     4.17851    0.01835     6.19606
      H   29    0.20952      0.00000     0.78929    0.00119     0.79048
      C   30   -0.21032      1.99918     4.19194    0.01920     6.21032
      H   31    0.20956      0.00000     0.78928    0.00116     0.79044
      C   32   -0.17227      1.99913     4.15522    0.01793     6.17227
      H   33    0.20648      0.00000     0.79215    0.00137     0.79352
      C   34   -0.06831      1.99908     4.04890    0.02033     6.06831
      C   35   -0.15663      1.99913     4.13984    0.01766     6.15663
      H   36    0.20970      0.00000     0.78899    0.00131     0.79030
      C   37   -0.23382      1.99904     4.21514    0.01964     6.23382
      H   38    0.22697      0.00000     0.77177    0.00125     0.77303
      C   39    0.28826      1.99862     3.68863    0.02449     5.71174
      C   40    0.28212      1.99860     3.69507    0.02421     5.71788
      C   41   -0.24191      1.99905     4.22291    0.01995     6.24191
      H   42    0.22749      0.00000     0.77130    0.00121     0.77251
      C   43   -0.15908      1.99914     4.14186    0.01808     6.15908
      H   44    0.20969      0.00000     0.78898    0.00133     0.79031
      C   45   -0.07129      1.99907     4.05316    0.01905     6.07129
      C   46   -0.17297      1.99913     4.15547    0.01837     6.17297
      H   47    0.20647      0.00000     0.79213    0.00140     0.79353
      C   48   -0.21025      1.99918     4.19197    0.01910     6.21025
      H   49    0.20983      0.00000     0.78903    0.00115     0.79017
      C   50   -0.19547      1.99919     4.17798    0.01830     6.19547
      H   51    0.20984      0.00000     0.78897    0.00119     0.79016
      C   52   -0.18817      1.99911     4.17088    0.01818     6.18817
      H   53    0.21930      0.00000     0.77920    0.00150     0.78070
      C   54   -0.03002      1.99901     4.01164    0.01937     6.03002
      C   55   -0.07342      1.99883     4.05205    0.02254     6.07342
      C   56   -0.07167      1.99883     4.05095    0.02188     6.07167
      C   57   -0.03042      1.99902     4.01222    0.01918     6.03042
      C   58   -0.18843      1.99911     4.17096    0.01837     6.18843
      H   59    0.21805      0.00000     0.78045    0.00150     0.78195
      C   60   -0.19624      1.99919     4.17867    0.01839     6.19624
      H   61    0.20963      0.00000     0.78918    0.00119     0.79037
      C   62   -0.21027      1.99918     4.19186    0.01922     6.21027
      H   63    0.20962      0.00000     0.78921    0.00116     0.79038
      C   64   -0.17198      1.99913     4.15494    0.01792     6.17198
      H   65    0.20663      0.00000     0.79201    0.00136     0.79337
      C   66   -0.06900      1.99908     4.04958    0.02034     6.06900
      C   67   -0.15623      1.99913     4.13944    0.01765     6.15623
      H   68    0.20978      0.00000     0.78891    0.00131     0.79022
      C   69   -0.23378      1.99904     4.21514    0.01960     6.23378
      H   70    0.22685      0.00000     0.77189    0.00125     0.77315
      C   71    0.28763      1.99862     3.68921    0.02454     5.71237
      C   72   -0.41501      1.99937     4.39540    0.02024     6.41501
      H   73    0.21223      0.00000     0.78596    0.00182     0.78777
      H   74    0.20092      0.00000     0.79718    0.00189     0.79908
      H   75    0.20729      0.00000     0.79103    0.00169     0.79271
 =======================================================================
   * Total *    0.00000    111.95602   228.88071    1.16327   342.00000

 1\1\GINC-G4NODEC3\SP\RB3LYP\def2TZVP\C41H27N1O4P2\ROOT\06-Nov-2024\0\\
 # nmr=giao b3lyp/def2TZVP pop=nbo scfcyc=200\\Ligand 65b SPE NoRh\\0,1
 \P,0,-1.317,-0.215,0.028\P,0,1.303,-0.208,0.045\O,0,-2.262,0.015,-1.29
 3\O,0,-2.26,0.4,1.231\O,0,2.286,0.001,1.34\O,0,2.205,0.435,-1.175\N,0,
 -0.01,0.885,0.07\C,0,-3.059,1.162,-1.456\C,0,-2.71,2.014,-2.518\H,0,-1
 .876,1.744,-3.153\C,0,-3.439,3.152,-2.729\H,0,-3.192,3.812,-3.551\C,0,
 -4.505,3.498,-1.864\C,0,-5.215,4.714,-2.028\H,0,-4.948,5.362,-2.854\C,
 0,-6.207,5.073,-1.155\H,0,-6.739,6.007,-1.286\C,0,-6.525,4.231,-0.07\H

 Normal termination of Gaussian 16 at Wed Nov  6 21:53:40 2024.
