 Gaussian 16, Revision B.01,
 Gaussian 16:  ES64L-G16RevB.01 20-Dec-2017

 --------------------------------------------
 # nmr=giao b3lyp/def2TZVP pop=nbo scfcyc=200
 --------------------------------------------

 ------------------
 Ligand 73 SPE NoRh
 ------------------
 Symbolic Z-matrix:
 Charge =  0 Multiplicity = 1

                         Standard orientation:
 ---------------------------------------------------------------------
 Center     Atomic      Atomic             Coordinates (Angstroms)
 Number     Number       Type             X           Y           Z
 ---------------------------------------------------------------------
      1         15           0        1.566068    0.011890   -0.876433
      2         15           0       -1.096838    0.380392   -1.142107
      3          7           0        0.095491   -0.038101    0.077553
      4          6           0        2.672535    1.381062   -0.314710
      5          6           0        3.755428    1.182289    0.548369
      6          1           0        3.979615    0.195060    0.926805
      7          6           0        4.555253    2.254365    0.926380
      8          1           0        5.391452    2.088580    1.594536
      9          6           0        4.283097    3.533744    0.451759
     10          1           0        4.908024    4.366422    0.749543
     11          6           0        3.211064    3.739903   -0.410603
     12          1           0        3.001565    4.731631   -0.790059
     13          6           0        2.415786    2.668255   -0.797733
     14          1           0        1.594882    2.827737   -1.486195
     15          6           0        2.540901   -1.526077   -0.632121
     16          6           0        2.016439   -2.655926   -0.003052
     17          1           0        1.039518   -2.626021    0.460778
     18          6           0        2.764722   -3.828421    0.056848
     19          1           0        2.353955   -4.694668    0.559328
     20          6           0        4.028057   -3.889376   -0.518750
     21          1           0        4.604825   -4.805222   -0.470030
     22          6           0        4.552346   -2.768299   -1.156653
     23          1           0        5.537173   -2.805794   -1.604834
     24          6           0        3.815069   -1.592524   -1.216176
     25          1           0        4.243330   -0.725584   -1.704856
     26          6           0       -1.906782    1.939565   -0.595210
     27          6           0       -2.830504    1.975256    0.457125
     28          1           0       -3.128386    1.065018    0.959646
     29          6           0       -3.379252    3.186314    0.863925
     30          1           0       -4.090023    3.204685    1.680776
     31          6           0       -3.021688    4.369003    0.222556
     32          1           0       -3.456178    5.308783    0.539799
     33          6           0       -2.110365    4.341619   -0.826578
     34          1           0       -1.835294    5.258583   -1.331822
     35          6           0       -1.553322    3.133639   -1.231730
     36          1           0       -0.843948    3.114549   -2.049311
     37          6           0       -2.426926   -0.889982   -1.159707
     38          6           0       -2.092763   -2.244641   -1.055572
     39          1           0       -1.078158   -2.539932   -0.829846
     40          6           0       -3.067713   -3.219791   -1.222880
     41          1           0       -2.800751   -4.265460   -1.123495
     42          6           0       -4.378948   -2.857868   -1.518140
     43          1           0       -5.136442   -3.620531   -1.653258
     44          6           0       -4.713364   -1.513699   -1.645703
     45          1           0       -5.730725   -1.225763   -1.880825
     46          6           0       -3.744293   -0.532734   -1.468770
     47          1           0       -4.021918    0.508119   -1.570409
     48          6           0       -0.170710    0.016799    1.531427
     49          1           0       -0.780691    0.900633    1.723019
     50          6           0       -0.974859   -1.202647    2.005664
     51          6           0        1.079779    0.113256    2.409010
     52          1           0        0.776267    0.112587    3.456089
     53          1           0        1.747085   -0.733833    2.251013
     54          1           0        1.616419    1.039808    2.217331
     55          6           0       -2.809498   -1.875212    3.347702
     56          1           0       -3.584647   -1.369507    3.915593
     57          1           0       -3.244048   -2.508099    2.576489
     58          1           0       -2.181877   -2.477552    4.002585
     59          8           0       -0.679256   -2.353348    1.800316
     60          8           0       -2.026350   -0.817777    2.741780
 ---------------------------------------------------------------------

 SCF Done:  E(RB3LYP) =  -1971.67285157     A.U. after   14 cycles

      1  P    Isotropic =   148.1087   Anisotropy =   184.4325

      2  P    Isotropic =   148.9719   Anisotropy =   160.0101

      3  N    Isotropic =   163.5074   Anisotropy =    21.2455

      4  C    Isotropic =    32.5123   Anisotropy =   201.8718

      5  C    Isotropic =    44.2092   Anisotropy =   190.7544

      6  H    Isotropic =    24.1118   Anisotropy =    11.2774

      7  C    Isotropic =    50.2712   Anisotropy =   182.3913

      8  H    Isotropic =    24.5394   Anisotropy =     6.2383

      9  C    Isotropic =    49.2722   Anisotropy =   186.6471

     10  H    Isotropic =    24.4426   Anisotropy =     4.3669

     11  C    Isotropic =    50.4773   Anisotropy =   182.3150

     12  H    Isotropic =    24.2991   Anisotropy =     6.2520

     13  C    Isotropic =    41.2718   Anisotropy =   185.6006

     14  H    Isotropic =    23.3911   Anisotropy =     8.4274

     15  C    Isotropic =    32.7541   Anisotropy =   180.9517

     16  C    Isotropic =    46.2793   Anisotropy =   198.0416

     17  H    Isotropic =    21.5866   Anisotropy =     8.8202

     18  C    Isotropic =    49.1527   Anisotropy =   185.5786

     19  H    Isotropic =    23.9779   Anisotropy =     6.9395

     20  C    Isotropic =    52.6226   Anisotropy =   180.2966

     21  H    Isotropic =    24.4088   Anisotropy =     4.3105

     22  C    Isotropic =    51.4184   Anisotropy =   181.3303

     23  H    Isotropic =    24.4042   Anisotropy =     5.3269

     24  C    Isotropic =    51.2137   Anisotropy =   183.3892

     25  H    Isotropic =    24.5968   Anisotropy =    11.1592

     26  C    Isotropic =    38.7662   Anisotropy =   202.3317

     27  C    Isotropic =    40.0406   Anisotropy =   191.3866

     28  H    Isotropic =    23.7189   Anisotropy =     8.7116

     29  C    Isotropic =    49.6013   Anisotropy =   184.1755

     30  H    Isotropic =    24.1930   Anisotropy =     6.5685

     31  C    Isotropic =    47.8237   Anisotropy =   190.1298

     32  H    Isotropic =    24.1500   Anisotropy =     4.5445

     33  C    Isotropic =    49.4001   Anisotropy =   184.8335

     34  H    Isotropic =    23.9881   Anisotropy =     5.5555

     35  C    Isotropic =    39.5235   Anisotropy =   183.5565

     36  H    Isotropic =    23.3276   Anisotropy =     8.2849

     37  C    Isotropic =    34.7959   Anisotropy =   184.9542

     38  C    Isotropic =    44.9565   Anisotropy =   199.5531

     39  H    Isotropic =    23.5653   Anisotropy =     8.9155

     40  C    Isotropic =    50.3343   Anisotropy =   183.8724

     41  H    Isotropic =    24.2596   Anisotropy =     6.7648

     42  C    Isotropic =    52.8424   Anisotropy =   180.0827

     43  H    Isotropic =    24.5890   Anisotropy =     4.2193

     44  C    Isotropic =    50.8774   Anisotropy =   181.7369

     45  H    Isotropic =    24.5866   Anisotropy =     5.8613

     46  C    Isotropic =    52.2980   Anisotropy =   179.4143

     47  H    Isotropic =    25.0286   Anisotropy =    12.3734

     48  C    Isotropic =   117.8115   Anisotropy =    39.0212

     49  H    Isotropic =    27.8843   Anisotropy =     6.2777

     50  C    Isotropic =    -1.4966   Anisotropy =   102.8253

     51  C    Isotropic =   163.3444   Anisotropy =    21.6581

     52  H    Isotropic =    31.4870   Anisotropy =     9.1829

     53  H    Isotropic =    30.6192   Anisotropy =     4.4375

     54  H    Isotropic =    31.0813   Anisotropy =    10.1564

     55  C    Isotropic =   128.0025   Anisotropy =    75.8923

     56  H    Isotropic =    28.6813   Anisotropy =     8.5868

     57  H    Isotropic =    28.6201   Anisotropy =     6.2207

     58  H    Isotropic =    28.4066   Anisotropy =     9.6774

     59  O    Isotropic =   -81.3779   Anisotropy =   595.5273

     60  O    Isotropic =   134.0971   Anisotropy =   141.6140

 The electronic state is 1-A.
 Alpha  occ. eigenvalues --  -77.06760 -77.06554 -19.18488 -19.12085 -14.33357
 Alpha  occ. eigenvalues --  -10.30511 -10.23370 -10.22908 -10.18649 -10.18621
 Alpha  occ. eigenvalues --  -10.18597 -10.18463 -10.18425 -10.18379 -10.18315
 Alpha  occ. eigenvalues --  -10.18217 -10.18200 -10.18052 -10.17993 -10.17986
 Alpha  occ. eigenvalues --  -10.17936 -10.17782 -10.17399 -10.17312 -10.17238
 Alpha  occ. eigenvalues --  -10.17194 -10.17143 -10.17077 -10.17062 -10.17004
 Alpha  occ. eigenvalues --  -10.16824 -10.16766 -10.16346  -6.54971  -6.54812
 Alpha  occ. eigenvalues --   -4.71230  -4.71054  -4.71031  -4.70881  -4.70619
 Alpha  occ. eigenvalues --   -4.70458  -1.11739  -1.02932  -0.90536  -0.86622
 Alpha  occ. eigenvalues --   -0.86284  -0.85401  -0.85122  -0.78582  -0.76684
 Alpha  occ. eigenvalues --   -0.75815  -0.75729  -0.75407  -0.74577  -0.74414
 Alpha  occ. eigenvalues --   -0.74235  -0.74174  -0.73414  -0.66203  -0.64497
 Alpha  occ. eigenvalues --   -0.62297  -0.61577  -0.61233  -0.60510  -0.60087
 Alpha  occ. eigenvalues --   -0.60017  -0.59771  -0.57978  -0.56694  -0.55093
 Alpha  occ. eigenvalues --   -0.52972  -0.52124  -0.51731  -0.51151  -0.50423
 Alpha  occ. eigenvalues --   -0.49548  -0.48771  -0.46916  -0.46397  -0.46046
 Alpha  occ. eigenvalues --   -0.45840  -0.45649  -0.45193  -0.45072  -0.44892
 Alpha  occ. eigenvalues --   -0.44494  -0.43936  -0.43357  -0.43126  -0.42869
 Alpha  occ. eigenvalues --   -0.42165  -0.41690  -0.41527  -0.40726  -0.40585
 Alpha  occ. eigenvalues --   -0.39666  -0.39018  -0.37976  -0.37708  -0.37541
 Alpha  occ. eigenvalues --   -0.37236  -0.36925  -0.36630  -0.36313  -0.35611
 Alpha  occ. eigenvalues --   -0.35172  -0.34668  -0.34413  -0.34007  -0.33609
 Alpha  occ. eigenvalues --   -0.32437  -0.32058  -0.29120  -0.28328  -0.27430
 Alpha  occ. eigenvalues --   -0.26824  -0.26696  -0.26557  -0.26297  -0.25419
 Alpha  occ. eigenvalues --   -0.25260  -0.25121  -0.22708  -0.18070
 Alpha virt. eigenvalues --   -0.04522  -0.03422  -0.02676  -0.02451  -0.02043
 Alpha virt. eigenvalues --   -0.01004  -0.00959  -0.00578  -0.00090   0.02877
 Alpha virt. eigenvalues --    0.03436   0.04585   0.04891   0.05277   0.05576

 Mulliken charges:
               1
     1  P    0.224719
     2  P    0.211225
     3  N   -0.290895
     4  C   -0.012594
     5  C   -0.154333
     6  H    0.141190
     7  C   -0.114573
     8  H    0.109971
     9  C   -0.092195
    10  H    0.110848
    11  C   -0.133484
    12  H    0.107114
    13  C   -0.118643
    14  H    0.105295
    15  C    0.050487
    16  C   -0.178281
    17  H    0.206819
    18  C   -0.161200
    19  H    0.106708
    20  C   -0.101356
    21  H    0.104211
    22  C   -0.110134
    23  H    0.106362
    24  C   -0.206596
    25  H    0.117632
    26  C    0.028554
    27  C   -0.186663
    28  H    0.155010
    29  C   -0.106344
    30  H    0.109030
    31  C   -0.094476
    32  H    0.112382
    33  C   -0.114476
    34  H    0.110596
    35  C   -0.179646
    36  H    0.134559
    37  C    0.019393
    38  C   -0.127747
    39  H    0.137543
    40  C   -0.147864
    41  H    0.106221
    42  C   -0.096454
    43  H    0.105378
    44  C   -0.133388
    45  H    0.105144
    46  C   -0.186144
    47  H    0.134732
    48  C    0.049806
    49  H    0.106556
    50  C    0.326789
    51  C   -0.415051
    52  H    0.122756
    53  H    0.143707
    54  H    0.156011
    55  C   -0.185846
    56  H    0.128077
    57  H    0.146122
    58  H    0.128673
    59  O   -0.353730
    60  O   -0.267507
 Sum of Mulliken charges =  -0.00000

 Dipole moment (field-independent basis, Debye):
    X=             -1.1637    Y=              2.1408    Z=              3.4472  Tot=              4.2214
 Quadrupole moment (field-independent basis, Debye-Ang):
   XX=           -190.5408   YY=           -193.0152   ZZ=           -207.8096
   XY=              2.6219   XZ=             -4.8090   YZ=             -4.0138

 Summary of Natural Population Analysis:

                                       Natural Population
                Natural  -----------------------------------------------
    Atom  No    Charge         Core      Valence    Rydberg      Total
 -----------------------------------------------------------------------
      P    1    1.05327      9.99780     3.90922    0.03971    13.94673
      P    2    1.04230      9.99787     3.91966    0.04018    13.95770
      N    3   -0.99394      1.99956     5.95821    0.03616     7.99394
      C    4   -0.35774      1.99897     4.32492    0.03385     6.35774
      C    5   -0.19615      1.99908     4.17695    0.02012     6.19615
      H    6    0.21746      0.00000     0.78028    0.00226     0.78254
      C    7   -0.20773      1.99918     4.18952    0.01903     6.20773
      H    8    0.20873      0.00000     0.78995    0.00133     0.79127
      C    9   -0.19810      1.99919     4.17965    0.01926     6.19810
      H   10    0.20863      0.00000     0.79019    0.00117     0.79137
      C   11   -0.20521      1.99918     4.18738    0.01865     6.20521
      H   12    0.20937      0.00000     0.78936    0.00127     0.79063
      C   13   -0.18852      1.99909     4.16950    0.01993     6.18852
      H   14    0.21164      0.00000     0.78613    0.00222     0.78836
      C   15   -0.35821      1.99899     4.32593    0.03329     6.35821
      C   16   -0.22572      1.99908     4.20626    0.02038     6.22572
      H   17    0.24215      0.00000     0.75598    0.00187     0.75785
      C   18   -0.19549      1.99919     4.17770    0.01861     6.19549
      H   19    0.20772      0.00000     0.79099    0.00130     0.79228
      C   20   -0.21504      1.99919     4.19627    0.01958     6.21504
      H   21    0.20614      0.00000     0.79267    0.00119     0.79386
      C   22   -0.20124      1.99918     4.18333    0.01873     6.20124
      H   23    0.20719      0.00000     0.79153    0.00128     0.79281
      C   24   -0.20948      1.99909     4.19063    0.01976     6.20948
      H   25    0.21050      0.00000     0.78769    0.00180     0.78950
      C   26   -0.36567      1.99900     4.33207    0.03460     6.36567
      C   27   -0.19944      1.99909     4.17989    0.02045     6.19944
      H   28    0.21971      0.00000     0.77808    0.00221     0.78029
      C   29   -0.20743      1.99919     4.18927    0.01898     6.20743
      H   30    0.20879      0.00000     0.78984    0.00137     0.79121
      C   31   -0.19258      1.99919     4.17438    0.01901     6.19258
      H   32    0.20936      0.00000     0.78946    0.00118     0.79064
      C   33   -0.20763      1.99918     4.18925    0.01920     6.20763
      H   34    0.21025      0.00000     0.78850    0.00125     0.78975
      C   35   -0.18337      1.99911     4.16398    0.02028     6.18337
      H   36    0.21548      0.00000     0.78301    0.00151     0.78452
      C   37   -0.36257      1.99899     4.32939    0.03419     6.36257
      C   38   -0.19863      1.99909     4.17893    0.02061     6.19863
      H   39    0.22218      0.00000     0.77560    0.00223     0.77782
      C   40   -0.19798      1.99918     4.18011    0.01869     6.19798
      H   41    0.20918      0.00000     0.78955    0.00127     0.79082
      C   42   -0.21478      1.99919     4.19596    0.01963     6.21478
      H   43    0.20647      0.00000     0.79235    0.00118     0.79353
      C   44   -0.20200      1.99918     4.18397    0.01885     6.20200
      H   45    0.20681      0.00000     0.79191    0.00128     0.79319
      C   46   -0.21093      1.99909     4.19214    0.01970     6.21093
      H   47    0.21264      0.00000     0.78556    0.00180     0.78736
      C   48   -0.14096      1.99918     4.11341    0.02837     6.14096
      H   49    0.21447      0.00000     0.78282    0.00271     0.78553
      C   50    0.77718      1.99940     3.18406    0.03936     5.22282
      C   51   -0.59537      1.99940     4.58394    0.01202     6.59537
      H   52    0.21506      0.00000     0.78400    0.00094     0.78494
      H   53    0.21971      0.00000     0.77890    0.00139     0.78029
      H   54    0.22567      0.00000     0.77322    0.00111     0.77433
      C   55   -0.25945      1.99926     4.24636    0.01384     6.25945
      H   56    0.18972      0.00000     0.80903    0.00125     0.81028
      H   57    0.19632      0.00000     0.80191    0.00177     0.80368
      H   58    0.18846      0.00000     0.80977    0.00177     0.81154
      O   59   -0.59849      1.99973     6.57147    0.02729     8.59849
      O   60   -0.48270      1.99974     6.45947    0.02349     8.48270
 =======================================================================
   * Total *   -0.00000     81.97083   165.20146    0.82772   248.00000

 1\1\GINC-G8NODEC2\SP\RB3LYP\def2TZVP\C28H27N1O2P2\ROOT\06-Nov-2024\0\\
 # nmr=giao b3lyp/def2TZVP pop=nbo scfcyc=200\\Ligand 73 SPE NoRh\\0,1\
 P,0,-1.124,0.915,0.125\P,0,1.144,-0.55,0.211\N,0,0.612,1.123,0.26\C,0,
 -1.977,1.454,1.673\C,0,-2.576,2.71,1.817\H,0,-2.552,3.424,1.006\C,0,-3
 .21,3.051,3.006\H,0,-3.671,4.026,3.106\C,0,-3.251,2.147,4.063\H,0,-3.7
 45,2.417,4.988\C,0,-2.662,0.894,3.927\H,0,-2.7,0.184,4.743\C,0,-2.036,
 0.547,2.736\H,0,-1.597,-0.437,2.625\C,0,-1.798,1.997,-1.198\C,0,-0.982
 ,2.651,-2.122\H,0,0.095,2.625,-2.023\C,0,-1.554,3.37,-3.168\H,0,-0.912

 Normal termination of Gaussian 16 at Wed Nov  6 21:41:38 2024.
