 Gaussian 16, Revision B.01,
 Gaussian 16:  ES64L-G16RevB.01 20-Dec-2017

 --------------------------------------------
 # nmr=giao b3lyp/def2TZVP pop=nbo scfcyc=200
 --------------------------------------------

 ------------------
 Ligand 78 SPE NoRh
 ------------------
 Symbolic Z-matrix:
 Charge =  0 Multiplicity = 1

                         Standard orientation:
 ---------------------------------------------------------------------
 Center     Atomic      Atomic             Coordinates (Angstroms)
 Number     Number       Type             X           Y           Z
 ---------------------------------------------------------------------
      1         15           0       -0.924367   -0.988039    0.284790
      2          6           0        0.674933   -0.792468   -0.707818
      3          6           0        0.729971   -2.362919   -0.944366
      4          6           0       -0.815322   -2.662255   -0.647494
      5         15           0        1.648470    0.022446    0.668363
      6          6           0       -2.381879    0.094608   -0.253157
      7          6           0       -1.872473    1.517110   -0.556872
      8          6           0       -2.994815    2.476027   -0.983856
      9          6           0       -4.088208    2.497959    0.085406
     10          6           0       -4.619649    1.092859    0.365255
     11          6           0       -3.519449    0.106268    0.801720
     12          6           0       -2.444432    3.873050   -1.277739
     13          6           0       -4.084872   -1.298165    1.145692
     14          6           0       -4.823054   -1.299702    2.491011
     15          6           0       -4.988066   -1.896158    0.056647
     16          6           0        1.182560   -2.690064   -2.372095
     17          6           0        1.647832   -3.127935    0.018435
     18          6           0       -1.144285   -3.917281    0.154552
     19          6           0        1.653585    1.825123    0.258770
     20          6           0        1.518368    2.750053    1.296609
     21          6           0        1.601673    4.114826    1.041183
     22          6           0        1.816736    4.568916   -0.254547
     23          6           0        1.953360    3.654453   -1.294727
     24          6           0        1.876088    2.290291   -1.039775
     25          6           0        3.442725   -0.403178    0.603405
     26          6           0        4.139897   -0.573561    1.800593
     27          6           0        5.506831   -0.837331    1.783680
     28          6           0        6.183285   -0.937557    0.574211
     29          6           0        5.493100   -0.767987   -0.623694
     30          6           0        4.130435   -0.498026   -0.609854
     31          1           0        0.658731   -0.243864   -1.647917
     32          1           0       -2.757506   -0.344105   -1.180933
     33          1           0       -1.112086    1.483866   -1.341303
     34          1           0       -1.382130    1.928459    0.331645
     35          1           0       -3.438887    2.084209   -1.908017
     36          1           0       -4.908977    3.147265   -0.231347
     37          1           0       -3.683458    2.936370    1.005850
     38          1           0       -5.106503    0.716706   -0.538949
     39          1           0       -5.392541    1.134703    1.136622
     40          1           0       -3.077254    0.501195    1.724978
     41          1           0       -3.241242    4.544401   -1.604979
     42          1           0       -1.984265    4.309378   -0.386682
     43          1           0       -1.686762    3.846812   -2.064525
     44          1           0       -3.223805   -1.967278    1.268296
     45          1           0       -5.149001   -2.309412    2.748808
     46          1           0       -5.713949   -0.669374    2.461981
     47          1           0       -4.180356   -0.944521    3.299054
     48          1           0       -4.554939   -1.824797   -0.942119
     49          1           0       -5.179679   -2.951637    0.258528
     50          1           0       -5.957582   -1.394871    0.027105
     51          1           0        1.092702   -3.760324   -2.575737
     52          1           0        2.235519   -2.426365   -2.492135
     53          1           0        0.616792   -2.152811   -3.132103
     54          1           0        1.527983   -4.202246   -0.131225
     55          1           0        1.435528   -2.905953    1.065012
     56          1           0        2.692043   -2.886472   -0.169951
     57          1           0       -0.873199   -4.813920   -0.410346
     58          1           0       -2.217050   -3.973349    0.349413
     59          1           0       -0.628882   -3.954996    1.111992
     60          1           0        1.355354    2.399168    2.307637
     61          1           0        1.501179    4.821874    1.855873
     62          1           0        1.881473    5.631155   -0.455072
     63          1           0        2.125284    4.002805   -2.305311
     64          1           0        1.996257    1.597966   -1.863528
     65          1           0        3.619868   -0.493466    2.747178
     66          1           0        6.041510   -0.962641    2.717359
     67          1           0        7.245942   -1.144635    0.561167
     68          1           0        6.017315   -0.842100   -1.568357
     69          1           0        3.610193   -0.363892   -1.550929
     70          6           0       -1.671923   -2.645074   -1.917632
     71          1           0       -1.423824   -3.508315   -2.537976
     72          1           0       -2.729160   -2.720150   -1.669852
     73          1           0       -1.529863   -1.752227   -2.527755
 ---------------------------------------------------------------------

 SCF Done:  E(RB3LYP) =  -1813.51842089     A.U. after   14 cycles

      1  P    Isotropic =   186.4829   Anisotropy =   151.4391

      2  C    Isotropic =   139.1319   Anisotropy =    46.6817

      3  C    Isotropic =   132.5118   Anisotropy =    28.5638

      4  C    Isotropic =   133.6704   Anisotropy =    32.1014

      5  P    Isotropic =   235.5133   Anisotropy =   170.5105

      6  C    Isotropic =   141.9644   Anisotropy =    19.0869

      7  C    Isotropic =   142.5829   Anisotropy =    23.0785

      8  C    Isotropic =   143.2931   Anisotropy =    11.8857

      9  C    Isotropic =   144.7958   Anisotropy =    22.0916

     10  C    Isotropic =   153.9954   Anisotropy =     5.0953

     11  C    Isotropic =   131.3210   Anisotropy =    14.6357

     12  C    Isotropic =   159.7819   Anisotropy =    39.7672

     13  C    Isotropic =   147.9307   Anisotropy =    14.6253

     14  C    Isotropic =   160.0069   Anisotropy =    41.0996

     15  C    Isotropic =   165.6349   Anisotropy =    23.4075

     16  C    Isotropic =   153.6182   Anisotropy =    39.3074

     17  C    Isotropic =   156.9423   Anisotropy =    21.3747

     18  C    Isotropic =   158.1497   Anisotropy =    32.1580

     19  C    Isotropic =    33.7119   Anisotropy =   207.9719

     20  C    Isotropic =    42.6633   Anisotropy =   177.6636

     21  C    Isotropic =    50.2569   Anisotropy =   183.2773

     22  C    Isotropic =    49.3775   Anisotropy =   187.9606

     23  C    Isotropic =    49.6227   Anisotropy =   184.6462

     24  C    Isotropic =    44.3518   Anisotropy =   190.3765

     25  C    Isotropic =    29.8512   Anisotropy =   207.5352

     26  C    Isotropic =    44.7271   Anisotropy =   178.0721

     27  C    Isotropic =    49.8235   Anisotropy =   182.6989

     28  C    Isotropic =    50.3883   Anisotropy =   185.1222

     29  C    Isotropic =    50.6275   Anisotropy =   181.4530

     30  C    Isotropic =    44.1616   Anisotropy =   181.2220

     31  H    Isotropic =    28.6781   Anisotropy =     4.1437

     32  H    Isotropic =    30.1610   Anisotropy =     4.6934

     33  H    Isotropic =    31.1560   Anisotropy =     7.5155

     34  H    Isotropic =    32.0868   Anisotropy =     9.8585

     35  H    Isotropic =    30.8972   Anisotropy =     5.5108

     36  H    Isotropic =    30.4373   Anisotropy =     9.4836

     37  H    Isotropic =    31.3066   Anisotropy =     5.9388

     38  H    Isotropic =    31.0121   Anisotropy =     6.1996

     39  H    Isotropic =    30.3175   Anisotropy =     8.5902

     40  H    Isotropic =    30.7946   Anisotropy =     2.4896

     41  H    Isotropic =    31.2926   Anisotropy =    10.8018

     42  H    Isotropic =    32.1009   Anisotropy =     6.2606

     43  H    Isotropic =    31.5397   Anisotropy =     7.1338

     44  H    Isotropic =    30.3406   Anisotropy =     9.1275

     45  H    Isotropic =    31.0280   Anisotropy =    10.3777

     46  H    Isotropic =    30.9919   Anisotropy =     8.1313

     47  H    Isotropic =    31.0274   Anisotropy =     9.1407

     48  H    Isotropic =    31.0261   Anisotropy =     5.8264

     49  H    Isotropic =    31.2638   Anisotropy =     9.4106

     50  H    Isotropic =    31.4597   Anisotropy =     8.4601

     51  H    Isotropic =    30.9830   Anisotropy =     9.9635

     52  H    Isotropic =    30.9614   Anisotropy =     7.8663

     53  H    Isotropic =    30.4629   Anisotropy =     5.8845

     54  H    Isotropic =    31.2753   Anisotropy =     7.6600

     55  H    Isotropic =    30.1755   Anisotropy =     5.7866

     56  H    Isotropic =    31.4953   Anisotropy =    10.1962

     57  H    Isotropic =    31.1174   Anisotropy =     9.6283

     58  H    Isotropic =    31.2388   Anisotropy =     7.8961

     59  H    Isotropic =    30.3973   Anisotropy =     6.3066

     60  H    Isotropic =    23.9821   Anisotropy =     8.0105

     61  H    Isotropic =    24.4381   Anisotropy =     4.7962

     62  H    Isotropic =    24.4666   Anisotropy =     3.5923

     63  H    Isotropic =    24.4085   Anisotropy =     5.8204

     64  H    Isotropic =    23.7061   Anisotropy =    10.0954

     65  H    Isotropic =    23.9288   Anisotropy =     9.1952

     66  H    Isotropic =    24.4080   Anisotropy =     5.4898

     67  H    Isotropic =    24.5049   Anisotropy =     4.1750

     68  H    Isotropic =    24.5007   Anisotropy =     6.7647

     69  H    Isotropic =    23.8766   Anisotropy =    10.6597

     70  C    Isotropic =   157.2637   Anisotropy =    20.8932

     71  H    Isotropic =    30.6429   Anisotropy =     8.6300

     72  H    Isotropic =    30.8635   Anisotropy =     8.3241

     73  H    Isotropic =    30.2621   Anisotropy =     4.1987

 The electronic state is 1-A.
 Alpha  occ. eigenvalues --  -77.03945 -77.03216 -10.19920 -10.18379 -10.18215
 Alpha  occ. eigenvalues --  -10.18190 -10.17921 -10.17906 -10.17796 -10.17785
 Alpha  occ. eigenvalues --  -10.17732 -10.17677 -10.17654 -10.17601 -10.17559
 Alpha  occ. eigenvalues --  -10.17543 -10.17501 -10.17257 -10.17129 -10.16998
 Alpha  occ. eigenvalues --  -10.16745 -10.16213 -10.16182 -10.15994 -10.15922
 Alpha  occ. eigenvalues --  -10.15854 -10.15668 -10.15631 -10.15359 -10.15352
 Alpha  occ. eigenvalues --  -10.15274  -6.52500  -6.51804  -4.68652  -4.68615
 Alpha  occ. eigenvalues --   -4.68131  -4.67972  -4.67877  -4.67443  -0.86184
 Alpha  occ. eigenvalues --   -0.85665  -0.84610  -0.83842  -0.79921  -0.76802
 Alpha  occ. eigenvalues --   -0.75789  -0.75147  -0.74866  -0.74788  -0.74465
 Alpha  occ. eigenvalues --   -0.74121  -0.71206  -0.69980  -0.68290  -0.67258
 Alpha  occ. eigenvalues --   -0.67180  -0.64199  -0.61650  -0.61155  -0.60504
 Alpha  occ. eigenvalues --   -0.60431  -0.59939  -0.59602  -0.56122  -0.55407
 Alpha  occ. eigenvalues --   -0.55048  -0.53481  -0.52135  -0.50259  -0.48867
 Alpha  occ. eigenvalues --   -0.47245  -0.46888  -0.46423  -0.45798  -0.45651
 Alpha  occ. eigenvalues --   -0.45515  -0.45174  -0.44989  -0.44547  -0.44302
 Alpha  occ. eigenvalues --   -0.43737  -0.42865  -0.42566  -0.42371  -0.41827
 Alpha  occ. eigenvalues --   -0.41540  -0.40714  -0.40508  -0.40234  -0.39841
 Alpha  occ. eigenvalues --   -0.39507  -0.39090  -0.38518  -0.38391  -0.38017
 Alpha  occ. eigenvalues --   -0.37435  -0.37323  -0.37073  -0.36417  -0.36185
 Alpha  occ. eigenvalues --   -0.36040  -0.35187  -0.34878  -0.34697  -0.34570
 Alpha  occ. eigenvalues --   -0.34310  -0.34055  -0.33195  -0.32723  -0.32371
 Alpha  occ. eigenvalues --   -0.32132  -0.31545  -0.30748  -0.30568  -0.29549
 Alpha  occ. eigenvalues --   -0.28102  -0.26505  -0.26262  -0.26188  -0.25744
 Alpha  occ. eigenvalues --   -0.24864  -0.21919  -0.18493
 Alpha virt. eigenvalues --   -0.03766  -0.02182  -0.01644  -0.00990   0.01466
 Alpha virt. eigenvalues --    0.01955   0.02978   0.03676   0.04013   0.04338
 Alpha virt. eigenvalues --    0.04767   0.05252   0.05657   0.06179   0.06569

 Mulliken charges:
               1
     1  P    0.002027
     2  C   -0.200432
     3  C    0.145146
     4  C    0.158819
     5  P    0.021321
     6  C   -0.025839
     7  C   -0.295456
     8  C    0.021126
     9  C   -0.160483
    10  C   -0.224780
    11  C    0.035379
    12  C   -0.327669
    13  C    0.023581
    14  C   -0.369131
    15  C   -0.405841
    16  C   -0.381356
    17  C   -0.455030
    18  C   -0.387847
    19  C    0.120981
    20  C   -0.174650
    21  C   -0.104111
    22  C   -0.094258
    23  C   -0.136828
    24  C   -0.183730
    25  C    0.113696
    26  C   -0.161274
    27  C   -0.106134
    28  C   -0.100676
    29  C   -0.117431
    30  C   -0.184428
    31  H    0.105403
    32  H    0.070985
    33  H    0.095534
    34  H    0.109506
    35  H    0.041872
    36  H    0.087056
    37  H    0.073014
    38  H    0.091608
    39  H    0.093381
    40  H    0.042453
    41  H    0.106237
    42  H    0.104931
    43  H    0.103930
    44  H    0.075314
    45  H    0.107784
    46  H    0.102819
    47  H    0.114226
    48  H    0.109415
    49  H    0.113304
    50  H    0.117987
    51  H    0.112311
    52  H    0.115217
    53  H    0.114680
    54  H    0.117496
    55  H    0.140092
    56  H    0.146214
    57  H    0.106824
    58  H    0.115123
    59  H    0.126957
    60  H    0.110111
    61  H    0.108430
    62  H    0.109359
    63  H    0.104617
    64  H    0.110864
    65  H    0.108001
    66  H    0.107269
    67  H    0.108509
    68  H    0.103773
    69  H    0.114062
    70  C   -0.457192
    71  H    0.113717
    72  H    0.126204
    73  H    0.125906
 Sum of Mulliken charges =  -0.00000

 Dipole moment (field-independent basis, Debye):
    X=              0.0705    Y=              0.3227    Z=             -1.8704  Tot=              1.8993
 Quadrupole moment (field-independent basis, Debye-Ang):
   XX=           -203.8645   YY=           -203.7903   ZZ=           -204.3765
   XY=             -1.1817   XZ=             -0.9557   YZ=              1.7514

 Summary of Natural Population Analysis:

                                       Natural Population
                Natural  -----------------------------------------------
    Atom  No    Charge         Core      Valence    Rydberg      Total
 -----------------------------------------------------------------------
      P    1    0.79413      9.99834     4.17883    0.02870    14.20587
      C    2   -0.79100      1.99936     4.75560    0.03604     6.79100
      C    3   -0.01845      1.99940     3.99428    0.02477     6.01845
      C    4   -0.24019      1.99939     4.21093    0.02986     6.24019
      P    5    0.81392      9.99803     4.15376    0.03429    14.18608
      C    6   -0.48376      1.99932     4.46133    0.02311     6.48376
      C    7   -0.39224      1.99935     4.37638    0.01651     6.39224
      C    8   -0.19895      1.99941     4.18420    0.01534     6.19895
      C    9   -0.37769      1.99938     4.36477    0.01354     6.37769
      C   10   -0.38462      1.99937     4.37071    0.01453     6.38462
      C   11   -0.20273      1.99932     4.18310    0.02030     6.20273
      C   12   -0.58168      1.99943     4.57211    0.01014     6.58168
      C   13   -0.20344      1.99941     4.18805    0.01598     6.20344
      C   14   -0.58501      1.99943     4.57529    0.01029     6.58501
      C   15   -0.59947      1.99942     4.58881    0.01124     6.59947
      C   16   -0.60151      1.99936     4.58789    0.01425     6.60151
      C   17   -0.61429      1.99935     4.60103    0.01392     6.61429
      C   18   -0.61351      1.99935     4.60101    0.01314     6.61351
      C   19   -0.31445      1.99898     4.28172    0.03375     6.31445
      C   20   -0.19348      1.99910     4.17399    0.02040     6.19348
      C   21   -0.20427      1.99918     4.18558    0.01952     6.20427
      C   22   -0.20052      1.99919     4.18210    0.01923     6.20052
      C   23   -0.20303      1.99918     4.18473    0.01912     6.20303
      C   24   -0.20063      1.99907     4.18187    0.01969     6.20063
      C   25   -0.32405      1.99899     4.29162    0.03345     6.32405
      C   26   -0.19523      1.99909     4.17582    0.02031     6.19523
      C   27   -0.20200      1.99918     4.18340    0.01942     6.20200
      C   28   -0.20440      1.99919     4.18601    0.01920     6.20440
      C   29   -0.20351      1.99918     4.18537    0.01896     6.20351
      C   30   -0.20547      1.99907     4.18629    0.02012     6.20547
      H   31    0.22540      0.00000     0.77145    0.00315     0.77460
      H   32    0.20215      0.00000     0.79382    0.00403     0.79785
      H   33    0.20302      0.00000     0.79471    0.00227     0.79698
      H   34    0.19853      0.00000     0.79841    0.00305     0.80147
      H   35    0.18001      0.00000     0.81808    0.00190     0.81999
      H   36    0.19966      0.00000     0.79878    0.00155     0.80034
      H   37    0.18603      0.00000     0.81219    0.00178     0.81397
      H   38    0.18767      0.00000     0.81043    0.00189     0.81233
      H   39    0.20313      0.00000     0.79522    0.00166     0.79687
      H   40    0.19845      0.00000     0.79885    0.00270     0.80155
      H   41    0.19967      0.00000     0.79913    0.00120     0.80033
      H   42    0.19915      0.00000     0.79946    0.00140     0.80085
      H   43    0.20216      0.00000     0.79669    0.00115     0.79784
      H   44    0.19874      0.00000     0.79893    0.00233     0.80126
      H   45    0.20212      0.00000     0.79681    0.00107     0.79788
      H   46    0.19307      0.00000     0.80533    0.00160     0.80693
      H   47    0.20459      0.00000     0.79435    0.00106     0.79541
      H   48    0.19778      0.00000     0.80076    0.00145     0.80222
      H   49    0.20442      0.00000     0.79443    0.00115     0.79558
      H   50    0.19886      0.00000     0.79983    0.00131     0.80114
      H   51    0.20566      0.00000     0.79284    0.00150     0.79434
      H   52    0.20806      0.00000     0.79052    0.00141     0.79194
      H   53    0.20240      0.00000     0.79635    0.00125     0.79760
      H   54    0.20607      0.00000     0.79250    0.00143     0.79393
      H   55    0.21664      0.00000     0.78216    0.00119     0.78336
      H   56    0.21655      0.00000     0.78184    0.00160     0.78345
      H   57    0.19847      0.00000     0.79939    0.00214     0.80153
      H   58    0.20758      0.00000     0.79098    0.00144     0.79242
      H   59    0.21343      0.00000     0.78521    0.00136     0.78657
      H   60    0.21739      0.00000     0.78094    0.00166     0.78261
      H   61    0.20914      0.00000     0.78959    0.00128     0.79086
      H   62    0.20842      0.00000     0.79039    0.00119     0.79158
      H   63    0.20669      0.00000     0.79192    0.00139     0.79331
      H   64    0.19935      0.00000     0.79844    0.00220     0.80065
      H   65    0.21635      0.00000     0.78196    0.00169     0.78365
      H   66    0.20829      0.00000     0.79043    0.00127     0.79171
      H   67    0.20772      0.00000     0.79110    0.00119     0.79228
      H   68    0.20600      0.00000     0.79260    0.00140     0.79400
      H   69    0.20013      0.00000     0.79747    0.00241     0.79987
      C   70   -0.61499      1.99936     4.60221    0.01342     6.61499
      H   71    0.20052      0.00000     0.79720    0.00228     0.79948
      H   72    0.20732      0.00000     0.79113    0.00155     0.79268
      H   73    0.19973      0.00000     0.79882    0.00145     0.80027
 =======================================================================
   * Total *   -0.00000     77.97521   167.33026    0.69453   246.00000

 Normal termination of Gaussian 16 at Tue Nov 19 12:00:49 2024.
