 Gaussian 16, Revision B.01,
 Gaussian 16:  ES64L-G16RevB.01 20-Dec-2017

 --------------------------------------------
 # nmr=giao b3lyp/def2TZVP pop=nbo scfcyc=200
 --------------------------------------------

 ------------------
 Ligand 85 SPE NoRh
 ------------------
 Symbolic Z-matrix:
 Charge =  0 Multiplicity = 1

                         Standard orientation:
 ---------------------------------------------------------------------
 Center     Atomic      Atomic             Coordinates (Angstroms)
 Number     Number       Type             X           Y           Z
 ---------------------------------------------------------------------
      1         15           0        2.960713   -0.246004   -0.759159
      2         15           0        0.275195   -0.046022   -1.168867
      3          6           0       -3.512379    1.616189    0.771720
      4          8           0       -0.899441    0.937168   -1.770580
      5          6           0       -2.708863    0.890594   -0.173360
      6          8           0       -0.490740   -0.803607    0.093325
      7          6           0        1.549525    0.899056   -0.238160
      8          1           0        1.380229    1.029343    0.830615
      9          1           0        1.677265    1.871484   -0.715174
     10          6           0       -3.401310    3.041580    0.839599
     11          6           0       -1.773881    1.604997   -0.892461
     12          6           0       -5.057148    3.104334    2.610901
     13          1           0       -5.659777    3.661647    3.315933
     14          6           0       -6.386567   -1.103832   -1.463346
     15          1           0       -7.254086   -0.517785   -1.739628
     16          6           0       -5.225921   -0.469924   -1.097818
     17          1           0       -5.187596    0.609885   -1.091180
     18          6           0       -1.657839    3.004168   -0.837457
     19          1           0       -0.934556    3.497605   -1.473061
     20          6           0       -1.733089   -1.392367   -0.187472
     21          6           0       -4.201766    3.758529    1.763002
     22          1           0       -4.116985    4.838881    1.794247
     23          6           0       -4.070416   -1.209341   -0.740157
     24          6           0       -4.390978    0.973734    1.680258
     25          1           0       -4.464532   -0.104383    1.674664
     26          6           0       -2.835916   -0.581940   -0.359489
     27          6           0       -5.138508    1.697047    2.574638
     28          1           0       -5.796426    1.182831    3.263830
     29          6           0       -4.138737   -2.637222   -0.805946
     30          6           0       -5.359065   -3.259456   -1.169837
     31          1           0       -5.401348   -4.341484   -1.201059
     32          6           0       -2.476275    3.709756    0.001396
     33          1           0       -2.410683    4.790573    0.046263
     34          6           0       -1.788457   -2.796034   -0.248175
     35          1           0       -0.887333   -3.365246   -0.059764
     36          6           0       -6.462114   -2.512116   -1.487641
     37          1           0       -7.388223   -2.997041   -1.768503
     38          6           0       -2.980093   -3.405588   -0.531189
     39          1           0       -3.046032   -4.486094   -0.565250
     40          6           0        4.444450    0.856447   -1.109826
     41          6           0        4.700065    2.000203   -0.112000
     42          6           0        5.730039    0.045809   -1.360939
     43          1           0        4.148123    1.311101   -2.064512
     44          6           0        5.829080    2.910453   -0.619069
     45          1           0        4.979641    1.591810    0.860529
     46          1           0        3.794524    2.590941    0.042876
     47          6           0        6.860971    0.958280   -1.856720
     48          1           0        6.044700   -0.436519   -0.430501
     49          1           0        5.552373   -0.753515   -2.084306
     50          6           0        7.113022    2.122191   -0.893086
     51          1           0        6.015450    3.697932    0.114542
     52          1           0        5.504500    3.411701   -1.538431
     53          1           0        7.772063    0.369003   -1.989437
     54          1           0        6.599283    1.352874   -2.844103
     55          1           0        7.881793    2.784223   -1.297410
     56          1           0        7.506655    1.730941    0.052625
     57          6           0        3.184048   -1.359525    0.739772
     58          6           0        3.921972   -2.671619    0.413990
     59          6           0        3.776010   -0.687204    1.989575
     60          1           0        2.141437   -1.621712    0.961326
     61          6           0        3.903920   -3.621842    1.620381
     62          1           0        4.959324   -2.459408    0.139016
     63          1           0        3.457047   -3.158412   -0.446111
     64          6           0        3.740065   -1.645518    3.189610
     65          1           0        4.814614   -0.404495    1.796914
     66          1           0        3.236277    0.231005    2.233376
     67          6           0        4.465209   -2.959271    2.880678
     68          1           0        4.469848   -4.525505    1.380610
     69          1           0        2.872459   -3.941900    1.807127
     70          1           0        4.189076   -1.157625    4.057868
     71          1           0        2.698387   -1.854814    3.454645
     72          1           0        4.387431   -3.640533    3.730133
     73          1           0        5.533579   -2.758803    2.741491
 ---------------------------------------------------------------------

 SCF Done:  E(RB3LYP) =  -2112.97334306     A.U. after   15 cycles

      1  P    Isotropic =   255.6195   Anisotropy =    41.4874

      2  P    Isotropic =    35.7425   Anisotropy =   275.7511

      3  C    Isotropic =    42.3597   Anisotropy =   206.4990

      4  O    Isotropic =   141.0134   Anisotropy =    56.5055

      5  C    Isotropic =    51.1476   Anisotropy =   139.4875

      6  O    Isotropic =   154.6701   Anisotropy =    66.7037

      7  C    Isotropic =   149.4474   Anisotropy =    25.9299

      8  H    Isotropic =    29.9068   Anisotropy =     5.7350

      9  H    Isotropic =    30.5488   Anisotropy =     7.4459

     10  C    Isotropic =    45.2838   Anisotropy =   212.6312

     11  C    Isotropic =    22.6777   Anisotropy =   132.0210

     12  C    Isotropic =    54.3797   Anisotropy =   177.5604

     13  H    Isotropic =    24.2573   Anisotropy =     4.6381

     14  C    Isotropic =    52.4752   Anisotropy =   180.4107

     15  H    Isotropic =    24.4411   Anisotropy =     7.7174

     16  C    Isotropic =    50.4133   Anisotropy =   179.0107

     17  H    Isotropic =    24.4430   Anisotropy =    14.7147

     18  C    Isotropic =    57.4421   Anisotropy =   148.5599

     19  H    Isotropic =    24.2086   Anisotropy =     7.1507

     20  C    Isotropic =    21.9039   Anisotropy =   119.8386

     21  C    Isotropic =    49.4536   Anisotropy =   161.0390

     22  H    Isotropic =    23.6993   Anisotropy =     7.2715

     23  C    Isotropic =    42.3312   Anisotropy =   205.2812

     24  C    Isotropic =    50.2727   Anisotropy =   179.5389

     25  H    Isotropic =    24.4275   Anisotropy =    14.3120

     26  C    Isotropic =    50.5737   Anisotropy =   136.8496

     27  C    Isotropic =    52.5391   Anisotropy =   180.7129

     28  H    Isotropic =    24.4410   Anisotropy =     7.6451

     29  C    Isotropic =    44.4009   Anisotropy =   212.4087

     30  C    Isotropic =    49.4306   Anisotropy =   160.8834

     31  H    Isotropic =    23.6901   Anisotropy =     7.5099

     32  C    Isotropic =    47.9412   Anisotropy =   159.5831

     33  H    Isotropic =    23.7134   Anisotropy =     7.0145

     34  C    Isotropic =    57.3033   Anisotropy =   149.4753

     35  H    Isotropic =    24.1849   Anisotropy =     8.0405

     36  C    Isotropic =    54.2245   Anisotropy =   177.2442

     37  H    Isotropic =    24.2524   Anisotropy =     4.7251

     38  C    Isotropic =    47.4895   Anisotropy =   159.0794

     39  H    Isotropic =    23.6731   Anisotropy =     7.6417

     40  C    Isotropic =   135.2560   Anisotropy =    26.7675

     41  C    Isotropic =   146.8092   Anisotropy =    16.1348

     42  C    Isotropic =   149.0685   Anisotropy =    10.1668

     43  H    Isotropic =    30.2166   Anisotropy =     3.9717

     44  C    Isotropic =   150.7358   Anisotropy =     8.5863

     45  H    Isotropic =    30.3233   Anisotropy =     6.4320

     46  H    Isotropic =    29.9879   Anisotropy =     7.6229

     47  C    Isotropic =   150.9772   Anisotropy =     6.9131

     48  H    Isotropic =    30.5574   Anisotropy =     7.2301

     49  H    Isotropic =    29.7838   Anisotropy =     5.8774

     50  C    Isotropic =   152.7478   Anisotropy =     3.5445

     51  H    Isotropic =    30.1518   Anisotropy =     9.4201

     52  H    Isotropic =    30.7455   Anisotropy =     8.0594

     53  H    Isotropic =    30.0472   Anisotropy =     9.8573

     54  H    Isotropic =    30.6315   Anisotropy =     8.3266

     55  H    Isotropic =    30.2073   Anisotropy =    10.6245

     56  H    Isotropic =    30.6401   Anisotropy =     7.6155

     57  C    Isotropic =   138.7812   Anisotropy =    21.8571

     58  C    Isotropic =   146.1211   Anisotropy =    17.3817

     59  C    Isotropic =   147.0190   Anisotropy =    10.9093

     60  H    Isotropic =    30.3930   Anisotropy =     7.9932

     61  C    Isotropic =   150.3370   Anisotropy =     7.0020

     62  H    Isotropic =    30.4903   Anisotropy =     6.1764

     63  H    Isotropic =    29.7327   Anisotropy =     5.7364

     64  C    Isotropic =   150.5443   Anisotropy =     8.5987

     65  H    Isotropic =    30.4445   Anisotropy =     7.5466

     66  H    Isotropic =    29.9856   Anisotropy =     5.4157

     67  C    Isotropic =   152.4573   Anisotropy =     3.2122

     68  H    Isotropic =    30.0563   Anisotropy =    10.0890

     69  H    Isotropic =    30.5304   Anisotropy =     7.9011

     70  H    Isotropic =    30.2091   Anisotropy =     9.3155

     71  H    Isotropic =    30.8416   Anisotropy =     6.8254

     72  H    Isotropic =    30.2707   Anisotropy =    10.5082

     73  H    Isotropic =    30.6963   Anisotropy =     8.3577

 The electronic state is 1-A.
 Alpha  occ. eigenvalues --  -77.10456 -77.03820 -19.15201 -19.15141 -10.24105
 Alpha  occ. eigenvalues --  -10.23934 -10.19465 -10.19422 -10.19370 -10.19296
 Alpha  occ. eigenvalues --  -10.18947 -10.18828 -10.18497 -10.18343 -10.18203
 Alpha  occ. eigenvalues --  -10.18081 -10.18074 -10.18000 -10.17847 -10.17809
 Alpha  occ. eigenvalues --  -10.17798 -10.17786 -10.17723 -10.17690 -10.17594
 Alpha  occ. eigenvalues --  -10.17591 -10.17493 -10.17102 -10.16713 -10.16705
 Alpha  occ. eigenvalues --  -10.16695 -10.16583 -10.16581 -10.16554 -10.16417
 Alpha  occ. eigenvalues --  -10.16361 -10.16333  -6.58127  -6.52410  -4.74478
 Alpha  occ. eigenvalues --   -4.74245  -4.73627  -4.68600  -4.68496  -4.68026
 Alpha  occ. eigenvalues --   -1.06762  -1.03143  -0.88944  -0.87657  -0.83846
 Alpha  occ. eigenvalues --   -0.83369  -0.83169  -0.82421  -0.80242  -0.76828
 Alpha  occ. eigenvalues --   -0.76626  -0.75099  -0.74628  -0.74392  -0.74287
 Alpha  occ. eigenvalues --   -0.74038  -0.73973  -0.72613  -0.71308  -0.65768
 Alpha  occ. eigenvalues --   -0.63545  -0.63039  -0.62559  -0.61699  -0.61543
 Alpha  occ. eigenvalues --   -0.61408  -0.60887  -0.60750  -0.58230  -0.58105
 Alpha  occ. eigenvalues --   -0.56528  -0.55472  -0.54256  -0.53339  -0.53289
 Alpha  occ. eigenvalues --   -0.52583  -0.51394  -0.49997  -0.48448  -0.48318
 Alpha  occ. eigenvalues --   -0.47094  -0.46906  -0.46510  -0.45598  -0.45227
 Alpha  occ. eigenvalues --   -0.44858  -0.44616  -0.44474  -0.44374  -0.44227
 Alpha  occ. eigenvalues --   -0.44043  -0.43204  -0.43095  -0.42776  -0.42498
 Alpha  occ. eigenvalues --   -0.42361  -0.42228  -0.41831  -0.41149  -0.39910
 Alpha  occ. eigenvalues --   -0.39604  -0.38953  -0.38807  -0.38569  -0.38417
 Alpha  occ. eigenvalues --   -0.38161  -0.37736  -0.36628  -0.35933  -0.35771
 Alpha  occ. eigenvalues --   -0.35592  -0.35391  -0.35130  -0.34955  -0.34539
 Alpha  occ. eigenvalues --   -0.34313  -0.34103  -0.33453  -0.33041  -0.32690
 Alpha  occ. eigenvalues --   -0.32194  -0.31950  -0.31701  -0.31076  -0.30504
 Alpha  occ. eigenvalues --   -0.29888  -0.29506  -0.28668  -0.28092  -0.25129
 Alpha  occ. eigenvalues --   -0.24872  -0.23305  -0.22486  -0.21659  -0.18962
 Alpha virt. eigenvalues --   -0.05891  -0.04778  -0.02385  -0.02104   0.00124
 Alpha virt. eigenvalues --    0.00943   0.01993   0.02087   0.02756   0.03296
 Alpha virt. eigenvalues --    0.03867   0.04937   0.04982   0.05153   0.05286

 Mulliken charges:
               1
     1  P    0.146329
     2  P    0.438191
     3  C   -0.091594
     4  O   -0.349414
     5  C    0.115888
     6  O   -0.374891
     7  C   -0.359205
     8  H    0.121769
     9  H    0.123634
    10  C    0.146596
    11  C    0.219252
    12  C   -0.109087
    13  H    0.107054
    14  C   -0.102552
    15  H    0.109039
    16  C   -0.174458
    17  H    0.133766
    18  C   -0.229342
    19  H    0.109357
    20  C    0.291648
    21  C   -0.161923
    22  H    0.100074
    23  C   -0.096811
    24  C   -0.177142
    25  H    0.135158
    26  C    0.130993
    27  C   -0.103143
    28  H    0.109336
    29  C    0.151836
    30  C   -0.161733
    31  H    0.100420
    32  C   -0.163833
    33  H    0.101478
    34  C   -0.256654
    35  H    0.116553
    36  C   -0.107716
    37  H    0.106816
    38  C   -0.166259
    39  H    0.102092
    40  C   -0.081511
    41  C   -0.195521
    42  C   -0.219771
    43  H    0.070369
    44  C   -0.159684
    45  H    0.092023
    46  H    0.092355
    47  C   -0.161134
    48  H    0.081241
    49  H    0.109237
    50  C   -0.157872
    51  H    0.091424
    52  H    0.080352
    53  H    0.093281
    54  H    0.084725
    55  H    0.093558
    56  H    0.075865
    57  C   -0.105613
    58  C   -0.195674
    59  C   -0.211672
    60  H    0.084917
    61  C   -0.163910
    62  H    0.089205
    63  H    0.103388
    64  C   -0.158004
    65  H    0.074404
    66  H    0.102823
    67  C   -0.158146
    68  H    0.092866
    69  H    0.081625
    70  H    0.089465
    71  H    0.085915
    72  H    0.092959
    73  H    0.074991
 Sum of Mulliken charges =  -0.00000

 Dipole moment (field-independent basis, Debye):
    X=              0.8378    Y=              1.0109    Z=              2.0051  Tot=              2.3967
 Quadrupole moment (field-independent basis, Debye-Ang):
   XX=           -215.5348   YY=           -217.9046   ZZ=           -243.0305
   XY=              3.1318   XZ=             -1.4249   YZ=             -1.6323

 Summary of Natural Population Analysis:

                                       Natural Population
                Natural  -----------------------------------------------
    Atom  No    Charge         Core      Valence    Rydberg      Total
 -----------------------------------------------------------------------
      P    1    0.79048      9.99855     4.17731    0.03365    14.20952
      P    2    1.37192      9.99845     3.55141    0.07821    13.62808
      C    3   -0.02968      1.99901     4.01133    0.01934     6.02968
      O    4   -0.76075      1.99980     6.73558    0.02537     8.76075
      C    5   -0.07264      1.99883     4.05119    0.02262     6.07264
      O    6   -0.77384      1.99979     6.74728    0.02677     8.77384
      C    7   -1.08810      1.99947     5.05664    0.03199     7.08810
      H    8    0.24865      0.00000     0.74859    0.00276     0.75135
      H    9    0.25422      0.00000     0.74418    0.00160     0.74578
      C   10   -0.07139      1.99907     4.05333    0.01898     6.07139
      C   11    0.28343      1.99861     3.69456    0.02340     5.71657
      C   12   -0.21167      1.99918     4.19334    0.01915     6.21167
      H   13    0.20908      0.00000     0.78977    0.00115     0.79092
      C   14   -0.19657      1.99919     4.17906    0.01831     6.19657
      H   15    0.20915      0.00000     0.78966    0.00119     0.79085
      C   16   -0.18776      1.99911     4.17051    0.01814     6.18776
      H   17    0.21818      0.00000     0.78034    0.00148     0.78182
      C   18   -0.23820      1.99905     4.21960    0.01955     6.23820
      H   19    0.22175      0.00000     0.77701    0.00124     0.77825
      C   20    0.28990      1.99862     3.68696    0.02452     5.71010
      C   21   -0.17311      1.99913     4.15561    0.01838     6.17311
      H   22    0.20569      0.00000     0.79290    0.00141     0.79431
      C   23   -0.03145      1.99901     4.01319    0.01925     6.03145
      C   24   -0.18850      1.99911     4.17122    0.01817     6.18850
      H   25    0.21886      0.00000     0.77966    0.00148     0.78114
      C   26   -0.06804      1.99884     4.04727    0.02193     6.06804
      C   27   -0.19652      1.99919     4.17899    0.01833     6.19652
      H   28    0.20921      0.00000     0.78960    0.00119     0.79079
      C   29   -0.06861      1.99908     4.05066    0.01888     6.06861
      C   30   -0.17297      1.99913     4.15549    0.01835     6.17297
      H   31    0.20597      0.00000     0.79263    0.00140     0.79403
      C   32   -0.15907      1.99914     4.14179    0.01814     6.15907
      H   33    0.20805      0.00000     0.79061    0.00134     0.79195
      C   34   -0.23349      1.99904     4.21502    0.01942     6.23349
      H   35    0.22418      0.00000     0.77457    0.00125     0.77582
      C   36   -0.21098      1.99918     4.19265    0.01915     6.21098
      H   37    0.20899      0.00000     0.78985    0.00115     0.79101
      C   38   -0.15804      1.99914     4.14091    0.01799     6.15804
      H   39    0.20875      0.00000     0.78992    0.00133     0.79125
      C   40   -0.47415      1.99937     4.45059    0.02420     6.47415
      C   41   -0.39349      1.99938     4.37997    0.01414     6.39349
      C   42   -0.39317      1.99938     4.37869    0.01511     6.39317
      H   43    0.21026      0.00000     0.78738    0.00236     0.78974
      C   44   -0.38371      1.99943     4.37072    0.01356     6.38371
      H   45    0.19136      0.00000     0.80649    0.00215     0.80864
      H   46    0.19726      0.00000     0.80076    0.00198     0.80274
      C   47   -0.38089      1.99942     4.36791    0.01356     6.38089
      H   48    0.18631      0.00000     0.81139    0.00230     0.81369
      H   49    0.21311      0.00000     0.78491    0.00199     0.78689
      C   50   -0.38640      1.99943     4.37360    0.01337     6.38640
      H   51    0.20112      0.00000     0.79745    0.00143     0.79888
      H   52    0.18649      0.00000     0.81168    0.00183     0.81351
      H   53    0.20262      0.00000     0.79602    0.00135     0.79738
      H   54    0.18904      0.00000     0.80916    0.00180     0.81096
      H   55    0.20248      0.00000     0.79619    0.00133     0.79752
      H   56    0.18678      0.00000     0.81139    0.00183     0.81322
      C   57   -0.48477      1.99936     4.45942    0.02599     6.48477
      C   58   -0.39165      1.99938     4.37704    0.01523     6.39165
      C   59   -0.39302      1.99938     4.37912    0.01452     6.39302
      H   60    0.21941      0.00000     0.77766    0.00293     0.78059
      C   61   -0.38215      1.99943     4.36908    0.01365     6.38215
      H   62    0.18740      0.00000     0.81034    0.00226     0.81260
      H   63    0.21355      0.00000     0.78457    0.00188     0.78645
      C   64   -0.38406      1.99943     4.37112    0.01351     6.38406
      H   65    0.18468      0.00000     0.81288    0.00243     0.81532
      H   66    0.19961      0.00000     0.79821    0.00218     0.80039
      C   67   -0.38629      1.99942     4.37357    0.01329     6.38629
      H   68    0.20234      0.00000     0.79631    0.00135     0.79766
      H   69    0.18765      0.00000     0.81055    0.00180     0.81235
      H   70    0.19994      0.00000     0.79861    0.00145     0.80006
      H   71    0.18903      0.00000     0.80918    0.00179     0.81097
      H   72    0.20205      0.00000     0.79662    0.00133     0.79795
      H   73    0.18617      0.00000     0.81199    0.00184     0.81383
 =======================================================================
   * Total *    0.00000     89.96952   189.19082    0.83965   280.00000

 Normal termination of Gaussian 16 at Tue Nov 19 12:41:24 2024.
