 Gaussian 16, Revision B.01,
 Gaussian 16:  ES64L-G16RevB.01 20-Dec-2017

 --------------------------------------------
 # nmr=giao b3lyp/def2TZVP pop=nbo scfcyc=200
 --------------------------------------------

 ------------------
 Ligand 86 SPE NoRh
 ------------------
 Symbolic Z-matrix:
 Charge =  0 Multiplicity = 1

                         Standard orientation:
 ---------------------------------------------------------------------
 Center     Atomic      Atomic             Coordinates (Angstroms)
 Number     Number       Type             X           Y           Z
 ---------------------------------------------------------------------
      1         15           0        3.781519   -0.431331   -0.283044
      2         15           0        1.043295   -0.511116   -0.653770
      3          6           0       -2.804575    1.681776    0.477781
      4          8           0       -0.011315    0.361375   -1.571898
      5          6           0       -1.962223    0.737043   -0.201898
      6          6           0        3.196695   -1.940997    1.978789
      7          1           0        3.536810   -2.466517    2.875527
      8          1           0        2.806387   -2.686978    1.283596
      9          1           0        2.375285   -1.291073    2.277046
     10          8           0        0.111017   -0.958548    0.641536
     11          6           0        4.361270    1.243467   -2.420183
     12          1           0        3.394744    1.736311   -2.305176
     13          1           0        4.223312    0.388228   -3.079848
     14          1           0        5.027536    1.953846   -2.918548
     15          6           0        4.987117    0.843666   -1.069616
     16          6           0        4.390456   -1.171792    1.381967
     17          6           0        2.256355    0.593629    0.176436
     18          1           0        2.080819    0.745366    1.239819
     19          1           0        2.276516    1.563615   -0.318977
     20          6           0       -2.613382    3.081849    0.251535
     21          6           0       -0.921073    1.238720   -0.953938
     22          6           0       -4.419788    3.595832    1.786441
     23          1           0       -5.050692    4.317099    2.290194
     24          6           0       -5.627415   -1.330789   -1.411699
     25          1           0       -6.424793   -0.781791   -1.896599
     26          6           0       -4.465567   -0.683642   -1.073309
     27          1           0       -4.355843    0.368009   -1.296218
     28          6           0        4.860890   -0.106284    2.381128
     29          1           0        5.018256   -0.581478    3.353728
     30          1           0        4.128414    0.690299    2.527200
     31          1           0        5.807131    0.345400    2.088015
     32          6           0        5.169307    2.109018   -0.217242
     33          1           0        5.779340    2.821943   -0.778863
     34          1           0        5.682126    1.914729    0.721827
     35          1           0        4.224270    2.606432    0.006201
     36          6           0       -0.727682    2.610928   -1.188713
     37          1           0        0.077812    2.924746   -1.838448
     38          6           0       -1.136829   -1.535965    0.368681
     39          6           0        5.525057   -2.178417    1.123168
     40          1           0        6.411713   -1.720171    0.688334
     41          1           0        5.202365   -2.993465    0.475004
     42          1           0        5.822176   -2.621987    2.076303
     43          6           0       -3.451730    4.014974    0.911664
     44          1           0       -3.304592    5.071675    0.720118
     45          6           0       -3.398540   -1.375893   -0.445578
     46          6           0       -3.801123    1.288769    1.406855
     47          1           0       -3.939727    0.239083    1.623758
     48          6           0       -2.165074   -0.735153   -0.085034
     49          6           0       -4.583876    2.219721    2.043037
     50          1           0       -5.332642    1.893548    2.754434
     51          6           0       -3.554849   -2.779165   -0.207629
     52          6           0       -4.775830   -3.410866   -0.552159
     53          1           0       -4.886416   -4.469432   -0.352838
     54          6           0       -1.576789    3.514803   -0.609786
     55          1           0       -1.451352    4.574517   -0.792732
     56          6           0       -1.282329   -2.912612    0.613649
     57          1           0       -0.444520   -3.463182    1.021013
     58          6           0       -5.792875   -2.704245   -1.137983
     59          1           0       -6.720212   -3.198105   -1.402024
     60          6           0       -2.481458   -3.515845    0.349169
     61          1           0       -2.616551   -4.572359    0.548953
     62          6           0        6.353835    0.189136   -1.324513
     63          1           0        6.956489    0.856580   -1.945447
     64          1           0        6.270858   -0.761515   -1.854226
     65          1           0        6.907310    0.020716   -0.402144
 ---------------------------------------------------------------------

 SCF Done:  E(RB3LYP) =  -1958.07052910     A.U. after   15 cycles

      1  P    Isotropic =   220.2843   Anisotropy =    40.8617

      2  P    Isotropic =    22.9369   Anisotropy =   299.3860

      3  C    Isotropic =    42.0495   Anisotropy =   206.4799

      4  O    Isotropic =   150.8483   Anisotropy =    50.4628

      5  C    Isotropic =    50.6757   Anisotropy =   139.7962

      6  C    Isotropic =   151.1177   Anisotropy =    42.2631

      7  H    Isotropic =    31.2708   Anisotropy =     8.6832

      8  H    Isotropic =    30.6122   Anisotropy =     8.4007

      9  H    Isotropic =    30.7065   Anisotropy =     8.0519

     10  O    Isotropic =   152.5437   Anisotropy =    69.1416

     11  C    Isotropic =   151.4104   Anisotropy =    45.5301

     12  H    Isotropic =    30.7464   Anisotropy =     7.4883

     13  H    Isotropic =    30.5940   Anisotropy =     7.5630

     14  H    Isotropic =    31.2732   Anisotropy =     9.2868

     15  C    Isotropic =   140.0419   Anisotropy =    19.8411

     16  C    Isotropic =   139.9986   Anisotropy =    19.0798

     17  C    Isotropic =   152.1111   Anisotropy =    29.5558

     18  H    Isotropic =    30.1362   Anisotropy =     4.8911

     19  H    Isotropic =    30.1848   Anisotropy =     7.3148

     20  C    Isotropic =    44.9321   Anisotropy =   212.8732

     21  C    Isotropic =    22.7977   Anisotropy =   132.4623

     22  C    Isotropic =    54.3463   Anisotropy =   177.7813

     23  H    Isotropic =    24.2444   Anisotropy =     4.6910

     24  C    Isotropic =    52.4454   Anisotropy =   180.0153

     25  H    Isotropic =    24.4442   Anisotropy =     7.7445

     26  C    Isotropic =    50.3741   Anisotropy =   178.7133

     27  H    Isotropic =    24.4536   Anisotropy =    14.7186

     28  C    Isotropic =   153.7810   Anisotropy =    35.3494

     29  H    Isotropic =    31.0197   Anisotropy =     9.5371

     30  H    Isotropic =    30.6465   Anisotropy =     4.7470

     31  H    Isotropic =    30.5400   Anisotropy =     7.0250

     32  C    Isotropic =   154.6123   Anisotropy =    39.0306

     33  H    Isotropic =    31.0083   Anisotropy =     9.8010

     34  H    Isotropic =    30.4055   Anisotropy =     6.2696

     35  H    Isotropic =    30.6306   Anisotropy =     5.5957

     36  C    Isotropic =    57.4011   Anisotropy =   148.7123

     37  H    Isotropic =    24.2115   Anisotropy =     7.2571

     38  C    Isotropic =    22.1411   Anisotropy =   120.3333

     39  C    Isotropic =   152.1679   Anisotropy =    44.7549

     40  H    Isotropic =    30.4583   Anisotropy =     7.4163

     41  H    Isotropic =    30.5214   Anisotropy =     7.9271

     42  H    Isotropic =    31.1067   Anisotropy =     9.5692

     43  C    Isotropic =    49.4391   Anisotropy =   161.0283

     44  H    Isotropic =    23.6843   Anisotropy =     7.4032

     45  C    Isotropic =    42.0550   Anisotropy =   205.2737

     46  C    Isotropic =    50.0372   Anisotropy =   179.8255

     47  H    Isotropic =    24.4353   Anisotropy =    14.3756

     48  C    Isotropic =    50.5715   Anisotropy =   136.0489

     49  C    Isotropic =    52.3931   Anisotropy =   180.5897

     50  H    Isotropic =    24.4371   Anisotropy =     7.6521

     51  C    Isotropic =    44.6567   Anisotropy =   212.5819

     52  C    Isotropic =    49.5332   Anisotropy =   160.9675

     53  H    Isotropic =    23.7038   Anisotropy =     7.3900

     54  C    Isotropic =    48.0432   Anisotropy =   159.2986

     55  H    Isotropic =    23.6995   Anisotropy =     7.2902

     56  C    Isotropic =    57.5727   Anisotropy =   150.1604

     57  H    Isotropic =    24.2100   Anisotropy =     8.3141

     58  C    Isotropic =    54.3864   Anisotropy =   177.2842

     59  H    Isotropic =    24.2500   Anisotropy =     4.6629

     60  C    Isotropic =    47.6777   Anisotropy =   159.1274

     61  H    Isotropic =    23.6749   Anisotropy =     7.4009

     62  C    Isotropic =   153.3595   Anisotropy =    38.8346

     63  H    Isotropic =    30.9705   Anisotropy =     9.5671

     64  H    Isotropic =    30.4619   Anisotropy =     7.6540

     65  H    Isotropic =    30.6514   Anisotropy =     7.3399

 The electronic state is 1-A.
 Alpha  occ. eigenvalues --  -77.10555 -77.04098 -19.15288 -19.15079 -10.24123
 Alpha  occ. eigenvalues --  -10.24034 -10.19629 -10.19541 -10.19541 -10.19488
 Alpha  occ. eigenvalues --  -10.19379 -10.19310 -10.19020 -10.18823 -10.18577
 Alpha  occ. eigenvalues --  -10.18339 -10.18309 -10.18061 -10.18054 -10.17870
 Alpha  occ. eigenvalues --  -10.17850 -10.17798 -10.17782 -10.17701 -10.17658
 Alpha  occ. eigenvalues --  -10.17605 -10.17509 -10.16591 -10.16500 -10.16331
 Alpha  occ. eigenvalues --  -10.16258 -10.16258 -10.16250  -6.58235  -6.52643
 Alpha  occ. eigenvalues --   -4.74590  -4.74354  -4.73728  -4.68831  -4.68719
 Alpha  occ. eigenvalues --   -4.68264  -1.06812  -1.03196  -0.88983  -0.87685
 Alpha  occ. eigenvalues --   -0.83421  -0.82468  -0.82364  -0.80846  -0.80276
 Alpha  occ. eigenvalues --   -0.76670  -0.75691  -0.74478  -0.74114  -0.73248
 Alpha  occ. eigenvalues --   -0.71352  -0.69597  -0.69351  -0.68823  -0.68756
 Alpha  occ. eigenvalues --   -0.65831  -0.63416  -0.63075  -0.61758  -0.61571
 Alpha  occ. eigenvalues --   -0.60772  -0.58258  -0.58020  -0.55353  -0.54338
 Alpha  occ. eigenvalues --   -0.53372  -0.52625  -0.51539  -0.51271  -0.50035
 Alpha  occ. eigenvalues --   -0.48482  -0.47456  -0.46838  -0.46509  -0.46017
 Alpha  occ. eigenvalues --   -0.45589  -0.45193  -0.44795  -0.44560  -0.44344
 Alpha  occ. eigenvalues --   -0.44242  -0.43424  -0.43142  -0.42955  -0.42834
 Alpha  occ. eigenvalues --   -0.42407  -0.42261  -0.41164  -0.40724  -0.40123
 Alpha  occ. eigenvalues --   -0.39952  -0.39681  -0.39329  -0.38895  -0.38719
 Alpha  occ. eigenvalues --   -0.38480  -0.38297  -0.37724  -0.36689  -0.35994
 Alpha  occ. eigenvalues --   -0.35694  -0.35212  -0.35130  -0.34680  -0.34502
 Alpha  occ. eigenvalues --   -0.33778  -0.33565  -0.33466  -0.33363  -0.32230
 Alpha  occ. eigenvalues --   -0.32099  -0.30539  -0.29829  -0.28866  -0.28720
 Alpha  occ. eigenvalues --   -0.25176  -0.24925  -0.23321  -0.22540  -0.21704
 Alpha  occ. eigenvalues --   -0.19261
 Alpha virt. eigenvalues --   -0.05967  -0.04815  -0.02426  -0.02206  -0.00268
 Alpha virt. eigenvalues --    0.00862   0.01952   0.02221   0.03195   0.04131
 Alpha virt. eigenvalues --    0.04473   0.04885   0.05065   0.05466   0.05775

 Mulliken charges:
               1
     1  P    0.104972
     2  P    0.447384
     3  C   -0.093372
     4  O   -0.350386
     5  C    0.116945
     6  C   -0.384493
     7  H    0.108358
     8  H    0.126453
     9  H    0.128865
    10  O   -0.373484
    11  C   -0.355161
    12  H    0.106991
    13  H    0.130577
    14  H    0.106062
    15  C    0.059533
    16  C    0.077857
    17  C   -0.371091
    18  H    0.125634
    19  H    0.123745
    20  C    0.148984
    21  C    0.216870
    22  C   -0.108342
    23  H    0.107175
    24  C   -0.103168
    25  H    0.108991
    26  C   -0.174740
    27  H    0.133512
    28  C   -0.354508
    29  H    0.104061
    30  H    0.116391
    31  H    0.102625
    32  C   -0.331776
    33  H    0.100141
    34  H    0.110002
    35  H    0.106631
    36  C   -0.235727
    37  H    0.118012
    38  C    0.281764
    39  C   -0.356863
    40  H    0.111652
    41  H    0.120913
    42  H    0.105627
    43  C   -0.162542
    44  H    0.100361
    45  C   -0.098278
    46  C   -0.176506
    47  H    0.135823
    48  C    0.137455
    49  C   -0.103181
    50  H    0.109653
    51  C    0.154614
    52  C   -0.162260
    53  H    0.100498
    54  C   -0.166264
    55  H    0.102090
    56  C   -0.253807
    57  H    0.118220
    58  C   -0.107259
    59  H    0.106669
    60  C   -0.166216
    61  H    0.102015
    62  C   -0.380204
    63  H    0.109804
    64  H    0.128993
    65  H    0.106705
 Sum of Mulliken charges =  -0.00000

 Dipole moment (field-independent basis, Debye):
    X=              0.4673    Y=              1.4550    Z=              1.5262  Tot=              2.1598
 Quadrupole moment (field-independent basis, Debye-Ang):
   XX=           -193.4873   YY=           -197.3632   ZZ=           -216.8934
   XY=              3.9332   XZ=              0.3867   YZ=             -6.0432

 Summary of Natural Population Analysis:

                                       Natural Population
                Natural  -----------------------------------------------
    Atom  No    Charge         Core      Valence    Rydberg      Total
 -----------------------------------------------------------------------
      P    1    0.77133      9.99844     4.19973    0.03050    14.22867
      P    2    1.38194      9.99841     3.54229    0.07736    13.61806
      C    3   -0.03026      1.99901     4.01191    0.01934     6.03026
      O    4   -0.76127      1.99980     6.73632    0.02515     8.76127
      C    5   -0.07114      1.99883     4.04967    0.02264     6.07114
      C    6   -0.60828      1.99937     4.59650    0.01240     6.60828
      H    7    0.20482      0.00000     0.79315    0.00202     0.79518
      H    8    0.21473      0.00000     0.78386    0.00141     0.78527
      H    9    0.21105      0.00000     0.78748    0.00147     0.78895
      O   10   -0.77464      1.99979     6.74857    0.02629     8.77464
      C   11   -0.60240      1.99937     4.59080    0.01223     6.60240
      H   12    0.19956      0.00000     0.79900    0.00144     0.80044
      H   13    0.21789      0.00000     0.78081    0.00130     0.78211
      H   14    0.20339      0.00000     0.79459    0.00202     0.79661
      C   15   -0.26831      1.99946     4.24446    0.02440     6.26831
      C   16   -0.27015      1.99945     4.24596    0.02473     6.27015
      C   17   -1.10887      1.99946     5.07635    0.03306     7.10887
      H   18    0.25432      0.00000     0.74290    0.00278     0.74568
      H   19    0.25534      0.00000     0.74243    0.00223     0.74466
      C   20   -0.07097      1.99907     4.05290    0.01899     6.07097
      C   21    0.28273      1.99861     3.69541    0.02325     5.71727
      C   22   -0.21143      1.99918     4.19308    0.01916     6.21143
      H   23    0.20924      0.00000     0.78961    0.00115     0.79076
      C   24   -0.19683      1.99919     4.17932    0.01832     6.19683
      H   25    0.20919      0.00000     0.78962    0.00119     0.79081
      C   26   -0.18793      1.99911     4.17068    0.01813     6.18793
      H   27    0.21788      0.00000     0.78064    0.00148     0.78212
      C   28   -0.60294      1.99937     4.59127    0.01231     6.60294
      H   29    0.19798      0.00000     0.79976    0.00225     0.80202
      H   30    0.20247      0.00000     0.79591    0.00162     0.79753
      H   31    0.19911      0.00000     0.79940    0.00150     0.80089
      C   32   -0.60309      1.99936     4.59151    0.01222     6.60309
      H   33    0.19648      0.00000     0.80129    0.00224     0.80352
      H   34    0.20431      0.00000     0.79431    0.00139     0.79569
      H   35    0.19974      0.00000     0.79874    0.00152     0.80026
      C   36   -0.23955      1.99905     4.22087    0.01963     6.23955
      H   37    0.22099      0.00000     0.77772    0.00129     0.77901
      C   38    0.29157      1.99862     3.68549    0.02431     5.70843
      C   39   -0.60102      1.99937     4.58933    0.01232     6.60102
      H   40    0.20373      0.00000     0.79495    0.00132     0.79627
      H   41    0.21334      0.00000     0.78525    0.00141     0.78666
      H   42    0.20128      0.00000     0.79677    0.00195     0.79872
      C   43   -0.17306      1.99913     4.15556    0.01837     6.17306
      H   44    0.20582      0.00000     0.79278    0.00140     0.79418
      C   45   -0.03117      1.99901     4.01293    0.01923     6.03117
      C   46   -0.18777      1.99911     4.17050    0.01816     6.18777
      H   47    0.21915      0.00000     0.77937    0.00147     0.78085
      C   48   -0.06920      1.99884     4.04850    0.02186     6.06920
      C   49   -0.19641      1.99919     4.17888    0.01833     6.19641
      H   50    0.20946      0.00000     0.78935    0.00119     0.79054
      C   51   -0.06923      1.99907     4.05125    0.01890     6.06923
      C   52   -0.17292      1.99913     4.15545    0.01835     6.17292
      H   53    0.20596      0.00000     0.79264    0.00140     0.79404
      C   54   -0.15922      1.99914     4.14192    0.01817     6.15922
      H   55    0.20824      0.00000     0.79042    0.00134     0.79176
      C   56   -0.23366      1.99904     4.21519    0.01942     6.23366
      H   57    0.22445      0.00000     0.77430    0.00125     0.77555
      C   58   -0.21124      1.99918     4.19288    0.01917     6.21124
      H   59    0.20903      0.00000     0.78982    0.00115     0.79097
      C   60   -0.15816      1.99914     4.14099    0.01803     6.15816
      H   61    0.20877      0.00000     0.78990    0.00133     0.79123
      C   62   -0.60175      1.99936     4.59031    0.01207     6.60175
      H   63    0.20364      0.00000     0.79436    0.00200     0.79636
      H   64    0.21369      0.00000     0.78480    0.00151     0.78631
      H   65    0.20023      0.00000     0.79831    0.00146     0.79977
 =======================================================================
   * Total *    0.00000     81.97168   169.27106    0.75726   252.00000

 Normal termination of Gaussian 16 at Tue Nov 19 12:52:47 2024.
