 Gaussian 16, Revision B.01,
 Gaussian 16:  ES64L-G16RevB.01 20-Dec-2017

 --------------------------------------------
 # nmr=giao b3lyp/def2TZVP pop=nbo scfcyc=200
 --------------------------------------------

 -----------------
 Ligand 8 SPE NoRh
 -----------------
 Symbolic Z-matrix:
 Charge =  0 Multiplicity = 1

                         Standard orientation:
 ---------------------------------------------------------------------
 Center     Atomic      Atomic             Coordinates (Angstroms)
 Number     Number       Type             X           Y           Z
 ---------------------------------------------------------------------
      1         15           0       -1.092818    0.002615   -0.442111
      2          6           0        0.351613   -0.169285    0.758126
      3          1           0        0.570141    0.796124    1.212651
      4          1           0        0.208439   -0.889583    1.562388
      5         15           0        1.691292   -0.613194   -0.468175
      6          6           0       -1.831846    1.745982   -0.058811
      7          6           0       -3.202228    1.908996   -0.736848
      8          1           0       -3.505302    2.957626   -0.667550
      9          1           0       -3.977212    1.318763   -0.250747
     10          1           0       -3.183277    1.647708   -1.795910
     11          6           0       -0.855166    2.772407   -0.660090
     12          1           0       -1.246772    3.778311   -0.484351
     13          1           0       -0.729976    2.641511   -1.734911
     14          1           0        0.131716    2.726098   -0.199889
     15          6           0       -1.973629    2.030931    1.445641
     16          1           0       -2.341187    3.052589    1.570985
     17          1           0       -1.023780    1.970121    1.977279
     18          1           0       -2.681890    1.369656    1.939170
     19          6           0       -2.312217   -1.418807    0.008690
     20          6           0       -1.512398   -2.732389   -0.025156
     21          1           0       -2.207069   -3.567391    0.101168
     22          1           0       -0.783845   -2.799395    0.783158
     23          1           0       -0.999108   -2.870358   -0.978725
     24          6           0       -2.939033   -1.251910    1.400817
     25          1           0       -3.485035   -2.165509    1.651500
     26          1           0       -3.654439   -0.432329    1.436246
     27          1           0       -2.194862   -1.095474    2.183384
     28          6           0       -3.421048   -1.517188   -1.052254
     29          1           0       -4.087015   -2.341862   -0.785180
     30          1           0       -3.015963   -1.737322   -2.039149
     31          1           0       -4.030074   -0.618655   -1.121819
     32          6           0        3.259574    0.361965    0.009301
     33          6           0        4.421493   -0.124817   -0.874163
     34          1           0        5.310713    0.470380   -0.652754
     35          1           0        4.211211   -0.009191   -1.938658
     36          1           0        4.678233   -1.167585   -0.685134
     37          6           0        3.605535    0.136548    1.489147
     38          1           0        4.487256    0.731291    1.744637
     39          1           0        3.847076   -0.904158    1.706929
     40          1           0        2.801831    0.450997    2.157254
     41          6           0        3.013747    1.856455   -0.244051
     42          1           0        3.935674    2.411047   -0.053601
     43          1           0        2.252980    2.267048    0.423166
     44          1           0        2.707968    2.054883   -1.272034
     45          6           0        2.126884   -2.377519   -0.119265
     46          1           0        2.440671   -2.513930    0.915913
     47          1           0        2.933326   -2.692251   -0.780201
     48          1           0        1.264768   -3.008694   -0.317437
 ---------------------------------------------------------------------

 SCF Done:  E(RB3LYP) =  -1235.71916041     A.U. after   14 cycles

      1  P    Isotropic =   197.3046   Anisotropy =    92.3515

      2  C    Isotropic =   165.6243   Anisotropy =    17.8958

      3  H    Isotropic =    30.7292   Anisotropy =     5.2054

      4  H    Isotropic =    30.7641   Anisotropy =     4.5832

      5  P    Isotropic =   243.0585   Anisotropy =    97.0925

      6  C    Isotropic =   139.3080   Anisotropy =    20.5878

      7  C    Isotropic =   153.2136   Anisotropy =    37.0503

      8  H    Isotropic =    31.1529   Anisotropy =     9.3126

      9  H    Isotropic =    30.7803   Anisotropy =     7.1783

     10  H    Isotropic =    30.6221   Anisotropy =     7.5183

     11  C    Isotropic =   150.4622   Anisotropy =    45.9726

     12  H    Isotropic =    31.4010   Anisotropy =     8.8649

     13  H    Isotropic =    30.6454   Anisotropy =     7.5419

     14  H    Isotropic =    30.7402   Anisotropy =     9.3817

     15  C    Isotropic =   155.8579   Anisotropy =    38.4000

     16  H    Isotropic =    31.1894   Anisotropy =     9.5652

     17  H    Isotropic =    30.6588   Anisotropy =     5.1638

     18  H    Isotropic =    30.4708   Anisotropy =     6.6414

     19  C    Isotropic =   142.3569   Anisotropy =    17.1662

     20  C    Isotropic =   149.6367   Anisotropy =    40.9671

     21  H    Isotropic =    31.2480   Anisotropy =     8.6322

     22  H    Isotropic =    31.0312   Anisotropy =     6.6063

     23  H    Isotropic =    30.7628   Anisotropy =     7.1810

     24  C    Isotropic =   154.1755   Anisotropy =    34.2434

     25  H    Isotropic =    31.0944   Anisotropy =     9.7356

     26  H    Isotropic =    30.5770   Anisotropy =     6.5973

     27  H    Isotropic =    30.6918   Anisotropy =     5.1909

     28  C    Isotropic =   152.7381   Anisotropy =    44.1439

     29  H    Isotropic =    31.2737   Anisotropy =     9.5524

     30  H    Isotropic =    30.7366   Anisotropy =     8.1590

     31  H    Isotropic =    30.5259   Anisotropy =     7.0832

     32  C    Isotropic =   145.7207   Anisotropy =    14.8067

     33  C    Isotropic =   155.8415   Anisotropy =    43.8540

     34  H    Isotropic =    31.3246   Anisotropy =     9.7496

     35  H    Isotropic =    30.9017   Anisotropy =     9.0596

     36  H    Isotropic =    31.0840   Anisotropy =     8.3886

     37  C    Isotropic =   158.7570   Anisotropy =    38.3587

     38  H    Isotropic =    31.0988   Anisotropy =     9.8108

     39  H    Isotropic =    30.6271   Anisotropy =     7.5987

     40  H    Isotropic =    30.8898   Anisotropy =     6.1031

     41  C    Isotropic =   152.7156   Anisotropy =    41.7613

     42  H    Isotropic =    31.1105   Anisotropy =     8.9697

     43  H    Isotropic =    30.7765   Anisotropy =     7.4799

     44  H    Isotropic =    30.7444   Anisotropy =     7.3649

     45  C    Isotropic =   175.9359   Anisotropy =    16.0531

     46  H    Isotropic =    30.9044   Anisotropy =     7.7803

     47  H    Isotropic =    31.2042   Anisotropy =    10.0327

     48  H    Isotropic =    30.5794   Anisotropy =     9.0181

 The electronic state is 1-A.
 Alpha  occ. eigenvalues --  -77.03352 -77.03182 -10.19026 -10.19010 -10.18551
 Alpha  occ. eigenvalues --  -10.17572 -10.16363 -10.16257 -10.16193 -10.16107
 Alpha  occ. eigenvalues --  -10.16073 -10.16056 -10.15933 -10.15927 -10.15862
 Alpha  occ. eigenvalues --  -10.15853  -6.51864  -6.51753  -4.68032  -4.67955
 Alpha  occ. eigenvalues --   -4.67911  -4.67859  -4.67488  -4.67370  -0.82015
 Alpha  occ. eigenvalues --   -0.81237  -0.80452  -0.73953  -0.70351  -0.69259
 Alpha  occ. eigenvalues --   -0.69063  -0.68739  -0.68568  -0.68489  -0.68382
 Alpha  occ. eigenvalues --   -0.60528  -0.57752  -0.54925  -0.51084  -0.50728
 Alpha  occ. eigenvalues --   -0.47315  -0.45790  -0.44985  -0.44700  -0.44296
 Alpha  occ. eigenvalues --   -0.44186  -0.43865  -0.43143  -0.42764  -0.41871
 Alpha  occ. eigenvalues --   -0.40805  -0.40681  -0.39962  -0.38904  -0.38823
 Alpha  occ. eigenvalues --   -0.38346  -0.38329  -0.38002  -0.37329  -0.36954
 Alpha  occ. eigenvalues --   -0.36583  -0.36041  -0.34303  -0.34118  -0.33665
 Alpha  occ. eigenvalues --   -0.33572  -0.33314  -0.32909  -0.30772  -0.28813
 Alpha  occ. eigenvalues --   -0.28276  -0.21445  -0.17996
 Alpha virt. eigenvalues --    0.01653   0.02200   0.03253   0.04012   0.04214
 Alpha virt. eigenvalues --    0.05103   0.06071   0.07064   0.07194   0.07411
 Alpha virt. eigenvalues --    0.07602   0.07875   0.08153   0.08581   0.09018

 Mulliken charges:
               1
     1  P    0.125424
     2  C   -0.377423
     3  H    0.105845
     4  H    0.113513
     5  P    0.164298
     6  C    0.066359
     7  C   -0.389762
     8  H    0.108303
     9  H    0.107673
    10  H    0.129331
    11  C   -0.344775
    12  H    0.103110
    13  H    0.123528
    14  H    0.100447
    15  C   -0.339520
    16  H    0.098918
    17  H    0.104166
    18  H    0.114014
    19  C    0.094124
    20  C   -0.409938
    21  H    0.111912
    22  H    0.117513
    23  H    0.132206
    24  C   -0.367505
    25  H    0.101633
    26  H    0.105197
    27  H    0.116644
    28  C   -0.360340
    29  H    0.102909
    30  H    0.119392
    31  H    0.116966
    32  C    0.099748
    33  C   -0.378720
    34  H    0.105842
    35  H    0.122163
    36  H    0.112982
    37  C   -0.365371
    38  H    0.098755
    39  H    0.112024
    40  H    0.109013
    41  C   -0.367937
    42  H    0.106852
    43  H    0.098240
    44  H    0.128635
    45  C   -0.464148
    46  H    0.111456
    47  H    0.129909
    48  H    0.146395
 Sum of Mulliken charges =  -0.00000

 Dipole moment (field-independent basis, Debye):
    X=             -0.1413    Y=             -0.0842    Z=              1.7148  Tot=              1.7227
 Quadrupole moment (field-independent basis, Debye-Ang):
   XX=           -119.3075   YY=           -120.0091   ZZ=           -127.5077
   XY=             -0.0466   XZ=              0.5801   YZ=             -0.5339

 Summary of Natural Population Analysis:

                                       Natural Population
                Natural  -----------------------------------------------
    Atom  No    Charge         Core      Valence    Rydberg      Total
 -----------------------------------------------------------------------
      P    1    0.78813      9.99845     4.18319    0.03023    14.21187
      C    2   -1.04072      1.99945     5.00859    0.03268     7.04072
      H    3    0.24137      0.00000     0.75602    0.00261     0.75863
      H    4    0.23346      0.00000     0.76344    0.00310     0.76654
      P    5    0.79931      9.99859     4.16617    0.03593    14.20069
      C    6   -0.26814      1.99946     4.24385    0.02484     6.26814
      C    7   -0.60229      1.99937     4.59084    0.01209     6.60229
      H    8    0.20199      0.00000     0.79587    0.00214     0.79801
      H    9    0.19966      0.00000     0.79884    0.00150     0.80034
      H   10    0.21189      0.00000     0.78654    0.00157     0.78811
      C   11   -0.60229      1.99937     4.59043    0.01248     6.60229
      H   12    0.20003      0.00000     0.79786    0.00211     0.79997
      H   13    0.21596      0.00000     0.78267    0.00136     0.78404
      H   14    0.20051      0.00000     0.79795    0.00154     0.79949
      C   15   -0.60373      1.99936     4.59211    0.01225     6.60373
      H   16    0.19595      0.00000     0.80173    0.00233     0.80405
      H   17    0.19697      0.00000     0.80150    0.00153     0.80303
      H   18    0.20492      0.00000     0.79372    0.00136     0.79508
      C   19   -0.27493      1.99945     4.25024    0.02524     6.27493
      C   20   -0.60544      1.99937     4.59348    0.01258     6.60544
      H   21    0.20520      0.00000     0.79270    0.00210     0.79480
      H   22    0.20037      0.00000     0.79806    0.00156     0.79963
      H   23    0.21243      0.00000     0.78609    0.00148     0.78757
      C   24   -0.60353      1.99937     4.59187    0.01229     6.60353
      H   25    0.19560      0.00000     0.80201    0.00238     0.80440
      H   26    0.19964      0.00000     0.79883    0.00154     0.80036
      H   27    0.20103      0.00000     0.79734    0.00163     0.79897
      C   28   -0.60125      1.99937     4.58945    0.01243     6.60125
      H   29    0.19866      0.00000     0.79931    0.00203     0.80134
      H   30    0.21257      0.00000     0.78602    0.00141     0.78743
      H   31    0.20610      0.00000     0.79263    0.00127     0.79390
      C   32   -0.27902      1.99948     4.25411    0.02543     6.27902
      C   33   -0.60113      1.99937     4.58981    0.01195     6.60113
      H   34    0.20216      0.00000     0.79585    0.00199     0.79784
      H   35    0.21247      0.00000     0.78595    0.00158     0.78753
      H   36    0.20220      0.00000     0.79648    0.00132     0.79780
      C   37   -0.60277      1.99937     4.59132    0.01207     6.60277
      H   38    0.19621      0.00000     0.80148    0.00231     0.80379
      H   39    0.20038      0.00000     0.79798    0.00164     0.79962
      H   40    0.19956      0.00000     0.79894    0.00151     0.80044
      C   41   -0.59991      1.99937     4.58831    0.01222     6.59991
      H   42    0.20194      0.00000     0.79603    0.00203     0.79806
      H   43    0.19583      0.00000     0.80262    0.00155     0.80417
      H   44    0.21483      0.00000     0.78367    0.00149     0.78517
      C   45   -0.92424      1.99944     4.90542    0.01938     6.92424
      H   46    0.20220      0.00000     0.79437    0.00343     0.79780
      H   47    0.22876      0.00000     0.77011    0.00112     0.77124
      H   48    0.23107      0.00000     0.76774    0.00119     0.76893
 =======================================================================
   * Total *   -0.00000     47.98866    97.64953    0.36181   146.00000

 Normal termination of Gaussian 16 at Wed Nov  6 15:18:58 2024.
