 Gaussian 16, Revision B.01,
 Gaussian 16:  ES64L-G16RevB.01 20-Dec-2017

 --------------------------------------------
 # nmr=giao b3lyp/def2TZVP pop=nbo scfcyc=200
 --------------------------------------------

 ------------------
 Ligand 92 SPE NoRh
 ------------------
 Symbolic Z-matrix:
 Charge =  0 Multiplicity = 1

                         Standard orientation:
 ---------------------------------------------------------------------
 Center     Atomic      Atomic             Coordinates (Angstroms)
 Number     Number       Type             X           Y           Z
 ---------------------------------------------------------------------
      1         15           0       -0.525803   -0.695232   -0.191968
      2         15           0        0.882436    1.767607   -0.414902
      3          6           0       -3.448453   -0.758874    0.151647
      4          6           0       -3.938366   -1.611273   -0.845103
      5          1           0       -3.356984   -2.467588   -1.165492
      6          6           0       -5.179508   -1.389347   -1.430284
      7          1           0       -5.541188   -2.066556   -2.194068
      8          6           0       -5.961525   -0.309957   -1.029272
      9          1           0       -6.931878   -0.143296   -1.477383
     10          6           0       -5.491380    0.541716   -0.036221
     11          1           0       -6.097471    1.375123    0.296358
     12          6           0       -4.248182    0.316658    0.547240
     13          1           0       -3.905095    0.977258    1.334163
     14          6           0       -2.124288   -1.010041    0.835226
     15          1           0       -2.034504   -0.304750    1.662412
     16          6           0       -1.971589   -2.451132    1.390645
     17          1           0       -2.454508   -2.520378    2.366704
     18          1           0       -2.492902   -3.149808    0.735609
     19          6           0       -0.494589   -2.833030    1.456179
     20          1           0       -0.365753   -3.899488    1.652546
     21          1           0       -0.002852   -2.298409    2.271730
     22          6           0        0.132260   -2.456545    0.104834
     23          1           0       -0.372491   -3.040742   -0.671450
     24          6           0        1.616800   -2.670054   -0.051112
     25          6           0        2.499988   -2.603531    1.031924
     26          1           0        2.131415   -2.395537    2.028060
     27          6           0        3.861385   -2.839425    0.859109
     28          1           0        4.524564   -2.796866    1.714163
     29          6           0        4.366893   -3.145592   -0.399149
     30          1           0        5.424224   -3.339625   -0.529662
     31          6           0        3.499717   -3.220292   -1.484781
     32          1           0        3.879316   -3.476650   -2.466279
     33          6           0        2.141031   -2.985973   -1.309925
     34          1           0        1.473351   -3.066286   -2.159737
     35          6           0        0.546770    0.426857    0.859378
     36          1           0        1.472962   -0.088715    1.109435
     37          1           0        0.088511    0.773635    1.783929
     38          6           0        2.786477    2.048436   -0.339653
     39          6           0        3.437237    0.802302   -0.969954
     40          1           0        3.232570   -0.107639   -0.406181
     41          1           0        4.520908    0.941285   -0.973818
     42          1           0        3.117254    0.639510   -1.996959
     43          6           0        3.317818    2.192416    1.095658
     44          1           0        2.969756    3.095258    1.590365
     45          1           0        4.410247    2.244206    1.056430
     46          1           0        3.064235    1.337992    1.723674
     47          6           0        3.171111    3.290208   -1.160109
     48          1           0        2.768822    3.264782   -2.174055
     49          1           0        4.260047    3.334675   -1.242489
     50          1           0        2.846720    4.215590   -0.686298
     51          6           0       -0.118051    3.301151    0.182650
     52          6           0        0.443398    3.935231    1.463064
     53          1           0        0.584420    3.209935    2.265858
     54          1           0       -0.267843    4.683826    1.823274
     55          1           0        1.388607    4.448645    1.291416
     56          6           0       -1.554341    2.822617    0.451482
     57          1           0       -1.978915    2.291723   -0.403369
     58          1           0       -2.184205    3.694653    0.647527
     59          1           0       -1.618275    2.179260    1.328658
     60          6           0       -0.172050    4.352768   -0.938909
     61          1           0        0.810672    4.705183   -1.244546
     62          1           0       -0.731190    5.220711   -0.578820
     63          1           0       -0.693416    3.971689   -1.816030
 ---------------------------------------------------------------------

 SCF Done:  E(RB3LYP) =  -1657.44419874     A.U. after   14 cycles

      1  P    Isotropic =   200.6075   Anisotropy =   131.7988

      2  P    Isotropic =   196.9974   Anisotropy =    90.9200

      3  C    Isotropic =    29.0158   Anisotropy =   203.7298

      4  C    Isotropic =    50.3755   Anisotropy =   180.6998

      5  H    Isotropic =    24.3621   Anisotropy =    11.4666

      6  C    Isotropic =    49.2305   Anisotropy =   183.8480

      7  H    Isotropic =    24.2762   Anisotropy =     5.8887

      8  C    Isotropic =    52.7433   Anisotropy =   181.1742

      9  H    Isotropic =    24.5173   Anisotropy =     4.1938

     10  C    Isotropic =    50.4285   Anisotropy =   181.0674

     11  H    Isotropic =    24.4802   Anisotropy =     6.1303

     12  C    Isotropic =    47.8992   Anisotropy =   158.8482

     13  H    Isotropic =    24.5602   Anisotropy =     8.6330

     14  C    Isotropic =   121.4552   Anisotropy =    24.9399

     15  H    Isotropic =    28.4418   Anisotropy =     5.3583

     16  C    Isotropic =   140.6751   Anisotropy =    36.1046

     17  H    Isotropic =    29.3439   Anisotropy =     8.2747

     18  H    Isotropic =    30.0800   Anisotropy =     7.9381

     19  C    Isotropic =   143.6193   Anisotropy =    25.8144

     20  H    Isotropic =    29.7087   Anisotropy =     9.7210

     21  H    Isotropic =    29.6320   Anisotropy =     6.2642

     22  C    Isotropic =   123.2272   Anisotropy =    26.8893

     23  H    Isotropic =    28.5304   Anisotropy =     7.2342

     24  C    Isotropic =    35.6475   Anisotropy =   199.2867

     25  C    Isotropic =    51.8369   Anisotropy =   183.4237

     26  H    Isotropic =    24.3280   Anisotropy =     9.8177

     27  C    Isotropic =    49.4365   Anisotropy =   186.0678

     28  H    Isotropic =    24.2775   Anisotropy =     5.4309

     29  C    Isotropic =    52.4043   Anisotropy =   183.0230

     30  H    Isotropic =    24.5084   Anisotropy =     3.5456

     31  C    Isotropic =    48.9591   Anisotropy =   185.4994

     32  H    Isotropic =    24.3653   Anisotropy =     4.5739

     33  C    Isotropic =    46.9297   Anisotropy =   167.2262

     34  H    Isotropic =    24.2223   Anisotropy =     8.6918

     35  C    Isotropic =   164.1549   Anisotropy =    25.6413

     36  H    Isotropic =    30.4349   Anisotropy =     8.0729

     37  H    Isotropic =    30.7217   Anisotropy =     4.4540

     38  C    Isotropic =   140.5256   Anisotropy =    18.8708

     39  C    Isotropic =   152.7516   Anisotropy =    47.9950

     40  H    Isotropic =    32.8590   Anisotropy =    16.6937

     41  H    Isotropic =    32.2076   Anisotropy =     7.4531

     42  H    Isotropic =    31.6116   Anisotropy =     6.0537

     43  C    Isotropic =   155.5347   Anisotropy =    37.7352

     44  H    Isotropic =    30.6348   Anisotropy =     6.8864

     45  H    Isotropic =    31.4322   Anisotropy =     9.2726

     46  H    Isotropic =    30.9681   Anisotropy =     4.0004

     47  C    Isotropic =   154.1011   Anisotropy =    38.7471

     48  H    Isotropic =    30.9187   Anisotropy =     7.6807

     49  H    Isotropic =    31.4418   Anisotropy =     9.5833

     50  H    Isotropic =    31.0272   Anisotropy =     7.8023

     51  C    Isotropic =   140.7960   Anisotropy =    19.8689

     52  C    Isotropic =   153.9792   Anisotropy =    33.5265

     53  H    Isotropic =    30.6462   Anisotropy =     4.6339

     54  H    Isotropic =    31.1304   Anisotropy =     9.5814

     55  H    Isotropic =    30.6519   Anisotropy =     7.0072

     56  C    Isotropic =   149.5535   Anisotropy =    44.2114

     57  H    Isotropic =    30.9031   Anisotropy =     9.8221

     58  H    Isotropic =    31.2787   Anisotropy =     8.0985

     59  H    Isotropic =    30.9154   Anisotropy =     6.8805

     60  C    Isotropic =   152.5920   Anisotropy =    44.4913

     61  H    Isotropic =    30.6983   Anisotropy =     7.4235

     62  H    Isotropic =    31.3652   Anisotropy =     9.7427

     63  H    Isotropic =    30.8920   Anisotropy =     7.5788

 The electronic state is 1-A.
 Alpha  occ. eigenvalues --  -77.04111 -77.03149 -10.18947 -10.18945 -10.18607
 Alpha  occ. eigenvalues --  -10.18406 -10.18398 -10.18318 -10.17812 -10.17724
 Alpha  occ. eigenvalues --  -10.17671 -10.17563 -10.17524 -10.17488 -10.17399
 Alpha  occ. eigenvalues --  -10.17377 -10.17329 -10.17307 -10.17183 -10.17152
 Alpha  occ. eigenvalues --  -10.17102 -10.16123 -10.16013 -10.15907 -10.15710
 Alpha  occ. eigenvalues --  -10.15509 -10.15243  -6.52621  -6.51683  -4.68753
 Alpha  occ. eigenvalues --   -4.68738  -4.68250  -4.67852  -4.67771  -4.67308
 Alpha  occ. eigenvalues --   -0.86615  -0.86004  -0.82640  -0.81720  -0.80162
 Alpha  occ. eigenvalues --   -0.77871  -0.75190  -0.74967  -0.74583  -0.73158
 Alpha  occ. eigenvalues --   -0.69743  -0.69091  -0.68800  -0.68277  -0.67999
 Alpha  occ. eigenvalues --   -0.66466  -0.61746  -0.60784  -0.60671  -0.59942
 Alpha  occ. eigenvalues --   -0.58997  -0.56528  -0.54680  -0.53902  -0.51951
 Alpha  occ. eigenvalues --   -0.50622  -0.50356  -0.47406  -0.47241  -0.46541
 Alpha  occ. eigenvalues --   -0.46434  -0.45348  -0.45076  -0.44780  -0.44317
 Alpha  occ. eigenvalues --   -0.44182  -0.43784  -0.42919  -0.42805  -0.42620
 Alpha  occ. eigenvalues --   -0.42173  -0.41879  -0.40525  -0.39851  -0.39598
 Alpha  occ. eigenvalues --   -0.38943  -0.38809  -0.38205  -0.37962  -0.37750
 Alpha  occ. eigenvalues --   -0.37305  -0.37011  -0.36624  -0.36316  -0.35383
 Alpha  occ. eigenvalues --   -0.35150  -0.34676  -0.34250  -0.33938  -0.33492
 Alpha  occ. eigenvalues --   -0.33448  -0.33175  -0.33021  -0.32679  -0.31982
 Alpha  occ. eigenvalues --   -0.29580  -0.28065  -0.26050  -0.25578  -0.25189
 Alpha  occ. eigenvalues --   -0.23834  -0.22045  -0.18419
 Alpha virt. eigenvalues --   -0.02165  -0.01965  -0.01344  -0.01083   0.01188
 Alpha virt. eigenvalues --    0.02340   0.03116   0.03483   0.03749   0.04828
 Alpha virt. eigenvalues --    0.05135   0.05641   0.05889   0.06630   0.07320

 Mulliken charges:
               1
     1  P    0.144684
     2  P    0.116110
     3  C    0.250103
     4  C   -0.225974
     5  H    0.100776
     6  C   -0.103479
     7  H    0.104919
     8  C   -0.123882
     9  H    0.105918
    10  C   -0.096866
    11  H    0.104556
    12  C   -0.226612
    13  H    0.105389
    14  C   -0.116769
    15  H    0.072557
    16  C   -0.211377
    17  H    0.101441
    18  H    0.104864
    19  C   -0.124547
    20  H    0.097460
    21  H    0.082625
    22  C   -0.129424
    23  H    0.082561
    24  C    0.188044
    25  C   -0.259335
    26  H    0.111255
    27  C   -0.091883
    28  H    0.107220
    29  C   -0.123233
    30  H    0.107366
    31  C   -0.099684
    32  H    0.107663
    33  C   -0.198062
    34  H    0.104488
    35  C   -0.395569
    36  H    0.117945
    37  H    0.113327
    38  C    0.088892
    39  C   -0.372153
    40  H    0.145493
    41  H    0.099725
    42  H    0.117404
    43  C   -0.347002
    44  H    0.111890
    45  H    0.096683
    46  H    0.110996
    47  C   -0.388431
    48  H    0.127440
    49  H    0.107190
    50  H    0.106645
    51  C    0.110815
    52  C   -0.373383
    53  H    0.116665
    54  H    0.102338
    55  H    0.107710
    56  C   -0.408585
    57  H    0.152365
    58  H    0.109585
    59  H    0.093299
    60  C   -0.360486
    61  H    0.117325
    62  H    0.102053
    63  H    0.120952
 Sum of Mulliken charges =  -0.00000

 Dipole moment (field-independent basis, Debye):
    X=              0.5184    Y=             -0.1687    Z=              1.7490  Tot=              1.8320
 Quadrupole moment (field-independent basis, Debye-Ang):
   XX=           -177.3175   YY=           -180.1927   ZZ=           -182.0274
   XY=             -1.8782   XZ=              0.5039   YZ=              4.6243

 Summary of Natural Population Analysis:

                                       Natural Population
                Natural  -----------------------------------------------
    Atom  No    Charge         Core      Valence    Rydberg      Total
 -----------------------------------------------------------------------
      P    1    0.79724      9.99861     4.17362    0.03053    14.20276
      P    2    0.79005      9.99843     4.18184    0.02968    14.20995
      C    3   -0.01664      1.99906     3.99440    0.02318     6.01664
      C    4   -0.20789      1.99906     4.19023    0.01859     6.20789
      H    5    0.20072      0.00000     0.79736    0.00193     0.79928
      C    6   -0.19594      1.99920     4.17800    0.01874     6.19594
      H    7    0.20662      0.00000     0.79212    0.00126     0.79338
      C    8   -0.21488      1.99919     4.19650    0.01920     6.21488
      H    9    0.20714      0.00000     0.79164    0.00121     0.79286
      C   10   -0.19853      1.99919     4.18072    0.01861     6.19853
      H   11    0.20657      0.00000     0.79217    0.00125     0.79343
      C   12   -0.20447      1.99908     4.18656    0.01883     6.20447
      H   13    0.20106      0.00000     0.79708    0.00186     0.79894
      C   14   -0.47769      1.99931     4.45420    0.02419     6.47769
      H   15    0.21251      0.00000     0.78441    0.00308     0.78749
      C   16   -0.38386      1.99940     4.36932    0.01514     6.38386
      H   17    0.21091      0.00000     0.78748    0.00160     0.78909
      H   18    0.19793      0.00000     0.80042    0.00165     0.80207
      C   19   -0.38812      1.99939     4.37496    0.01376     6.38812
      H   20    0.20570      0.00000     0.79231    0.00199     0.79430
      H   21    0.18850      0.00000     0.80980    0.00170     0.81150
      C   22   -0.47953      1.99932     4.45590    0.02431     6.47953
      H   23    0.21917      0.00000     0.77830    0.00254     0.78083
      C   24   -0.02256      1.99905     3.99890    0.02461     6.02256
      C   25   -0.22556      1.99907     4.20859    0.01789     6.22556
      H   26    0.20504      0.00000     0.79323    0.00173     0.79496
      C   27   -0.19854      1.99919     4.18049    0.01886     6.19854
      H   28    0.20779      0.00000     0.79092    0.00129     0.79221
      C   29   -0.21652      1.99918     4.19813    0.01920     6.21652
      H   30    0.20862      0.00000     0.79019    0.00119     0.79138
      C   31   -0.19545      1.99919     4.17723    0.01902     6.19545
      H   32    0.20895      0.00000     0.78982    0.00123     0.79105
      C   33   -0.19973      1.99910     4.18245    0.01818     6.19973
      H   34    0.20890      0.00000     0.78973    0.00138     0.79110
      C   35   -1.04601      1.99946     5.01496    0.03159     7.04601
      H   36    0.25045      0.00000     0.74682    0.00273     0.74955
      H   37    0.23174      0.00000     0.76543    0.00283     0.76826
      C   38   -0.27186      1.99946     4.24776    0.02465     6.27186
      C   39   -0.60449      1.99937     4.59137    0.01375     6.60449
      H   40    0.21087      0.00000     0.78780    0.00133     0.78913
      H   41    0.19989      0.00000     0.79801    0.00209     0.80011
      H   42    0.21411      0.00000     0.78452    0.00137     0.78589
      C   43   -0.60351      1.99937     4.59190    0.01224     6.60351
      H   44    0.20318      0.00000     0.79548    0.00134     0.79682
      H   45    0.19492      0.00000     0.80275    0.00234     0.80508
      H   46    0.19917      0.00000     0.79947    0.00137     0.80083
      C   47   -0.60198      1.99937     4.59060    0.01201     6.60198
      H   48    0.21193      0.00000     0.78651    0.00156     0.78807
      H   49    0.20196      0.00000     0.79589    0.00215     0.79804
      H   50    0.19860      0.00000     0.79987    0.00153     0.80140
      C   51   -0.27220      1.99945     4.24771    0.02504     6.27220
      C   52   -0.60347      1.99937     4.59172    0.01239     6.60347
      H   53    0.20023      0.00000     0.79812    0.00165     0.79977
      H   54    0.19606      0.00000     0.80156    0.00238     0.80394
      H   55    0.20033      0.00000     0.79812    0.00155     0.79967
      C   56   -0.60751      1.99937     4.59526    0.01289     6.60751
      H   57    0.22247      0.00000     0.77601    0.00152     0.77753
      H   58    0.20517      0.00000     0.79273    0.00211     0.79483
      H   59    0.19517      0.00000     0.80322    0.00161     0.80483
      C   60   -0.60042      1.99937     4.58859    0.01246     6.60042
      H   61    0.20573      0.00000     0.79299    0.00128     0.79427
      H   62    0.19820      0.00000     0.79979    0.00201     0.80180
      H   63    0.21376      0.00000     0.78485    0.00139     0.78624
 =======================================================================
   * Total *    0.00000     69.97860   145.42882    0.59258   216.00000

 Normal termination of Gaussian 16 at Tue Nov 19 12:39:49 2024.
