 Gaussian 16, Revision B.01,
 Gaussian 16:  ES64L-G16RevB.01 20-Dec-2017

 --------------------------------------------
 # nmr=giao b3lyp/def2TZVP pop=nbo scfcyc=200
 --------------------------------------------

 ---------------
 MB-115 SPE NoRh
 ---------------
 Symbolic Z-matrix:
 Charge =  0 Multiplicity = 1

                         Standard orientation:
 ---------------------------------------------------------------------
 Center     Atomic      Atomic             Coordinates (Angstroms)
 Number     Number       Type             X           Y           Z
 ---------------------------------------------------------------------
      1         15           0        1.416159   -0.209316    0.812628
      2         15           0       -1.354258   -0.408404    0.826437
      3          6           0        2.213168   -0.876858   -0.748304
      4          1           0        1.393290   -1.281633   -1.342579
      5          1           0        2.614865   -0.020862   -1.294404
      6          6           0       -2.087291   -1.153364   -0.732167
      7          1           0       -1.233983   -1.370118   -1.377162
      8          1           0       -2.665050   -0.366254   -1.220268
      9          6           0       -0.049708    0.776929    0.198975
     10          1           0       -0.070033    0.980479   -0.872298
     11          1           0       -0.114492    1.732941    0.718421
     12          6           0       -2.726190    0.617708    1.606156
     13          1           0       -2.346520    0.893851    2.590918
     14          1           0       -3.551993   -0.077925    1.769930
     15          6           0        2.658619    1.003776    1.540595
     16          1           0        3.596153    0.448565    1.614099
     17          1           0        2.317629    1.186173    2.561335
     18          6           0        3.262363   -1.935233   -0.520096
     19          6           0        2.908088   -3.284424   -0.457153
     20          6           0        4.612883   -1.608910   -0.379557
     21          6           0        3.867426   -4.269804   -0.259116
     22          1           0        1.868349   -3.571600   -0.571982
     23          6           0        5.571387   -2.595325   -0.176207
     24          1           0        4.931483   -0.575771   -0.445144
     25          6           0        5.219251   -3.945654   -0.115031
     26          1           0        3.563428   -5.309402   -0.227691
     27          1           0        6.612249   -2.310141   -0.076270
     28          6           0        2.831582    2.304668    0.804045
     29          6           0        3.719617    2.438530   -0.266655
     30          6           0        2.110231    3.436739    1.195515
     31          6           0        3.867665    3.652565   -0.927118
     32          1           0        4.328176    1.598334   -0.575270
     33          6           0        2.261516    4.648993    0.534460
     34          1           0        1.444622    3.379617    2.050514
     35          6           0        3.136679    4.780387   -0.545140
     36          1           0        4.574794    3.727053   -1.744176
     37          1           0        1.699805    5.511880    0.873856
     38          6           0       -3.165442    1.839956    0.844991
     39          6           0       -2.595917    3.085415    1.122318
     40          6           0       -4.152332    1.781620   -0.143841
     41          6           0       -2.988023    4.224280    0.430590
     42          1           0       -1.852320    3.173899    1.906463
     43          6           0       -4.541599    2.922028   -0.834823
     44          1           0       -4.642252    0.842739   -0.367746
     45          6           0       -3.966873    4.165687   -0.564182
     46          1           0       -2.531947    5.177575    0.674392
     47          1           0       -5.313587    2.845154   -1.591235
     48          6           0       -2.903846   -2.403866   -0.524149
     49          6           0       -2.324169   -3.662774   -0.697201
     50          6           0       -4.253160   -2.352794   -0.168619
     51          6           0       -3.065242   -4.824647   -0.518786
     52          1           0       -1.281731   -3.737342   -0.987641
     53          6           0       -4.990958   -3.516391    0.014302
     54          1           0       -4.747752   -1.395756   -0.046135
     55          6           0       -4.414258   -4.775666   -0.158724
     56          1           0       -2.589472   -5.786500   -0.672263
     57          1           0       -6.038542   -3.442253    0.286349
     58          6           0        6.264423   -5.016159    0.058425
     59          1           0        6.652424   -5.339456   -0.911449
     60          1           0        7.110888   -4.656008    0.645163
     61          1           0        5.855250   -5.896695    0.556412
     62          6           0        3.283759    6.087226   -1.277251
     63          1           0        4.296284    6.216055   -1.664106
     64          1           0        2.601275    6.135772   -2.131058
     65          1           0        3.058098    6.935036   -0.629482
     66          6           0       -4.419185    5.406677   -1.287608
     67          1           0       -4.729930    5.181925   -2.308565
     68          1           0       -5.273956    5.862910   -0.779852
     69          1           0       -3.628121    6.155812   -1.329343
     70          6           0       -5.228375   -6.033559   -0.006343
     71          1           0       -5.712948   -6.297701   -0.950457
     72          1           0       -4.605855   -6.878816    0.288305
     73          1           0       -6.013619   -5.912291    0.740631
 ---------------------------------------------------------------------

 SCF Done:  E(RB3LYP) =  -1963.64071147     A.U. after   14 cycles

      1  P    Isotropic =   246.6154   Anisotropy =    88.3486

      2  P    Isotropic =   249.5800   Anisotropy =    88.5153

      3  C    Isotropic =   148.1667   Anisotropy =    54.8546

      4  H    Isotropic =    29.6035   Anisotropy =     6.2936

      5  H    Isotropic =    28.6013   Anisotropy =     4.2496

      6  C    Isotropic =   148.0101   Anisotropy =    55.2052

      7  H    Isotropic =    29.7835   Anisotropy =     5.7419

      8  H    Isotropic =    28.5445   Anisotropy =     4.4543

      9  C    Isotropic =   163.2365   Anisotropy =    19.5299

     10  H    Isotropic =    31.6760   Anisotropy =     3.3160

     11  H    Isotropic =    30.7690   Anisotropy =     8.8464

     12  C    Isotropic =   145.4773   Anisotropy =    38.4898

     13  H    Isotropic =    28.8602   Anisotropy =     5.6902

     14  H    Isotropic =    28.9365   Anisotropy =     7.0466

     15  C    Isotropic =   146.4155   Anisotropy =    39.5865

     16  H    Isotropic =    29.0382   Anisotropy =     6.8699

     17  H    Isotropic =    28.9261   Anisotropy =     5.9482

     18  C    Isotropic =    39.5307   Anisotropy =   191.6140

     19  C    Isotropic =    47.2428   Anisotropy =   164.3078

     20  C    Isotropic =    49.4408   Anisotropy =   162.8429

     21  C    Isotropic =    48.2177   Anisotropy =   163.8338

     22  H    Isotropic =    24.2264   Anisotropy =     9.2224

     23  C    Isotropic =    49.6369   Anisotropy =   161.9713

     24  H    Isotropic =    24.3434   Anisotropy =     9.6303

     25  C    Isotropic =    40.1505   Anisotropy =   197.6410

     26  H    Isotropic =    24.4121   Anisotropy =     7.9864

     27  H    Isotropic =    24.5017   Anisotropy =     7.9579

     28  C    Isotropic =    39.9098   Anisotropy =   195.3303

     29  C    Isotropic =    51.4636   Anisotropy =   161.9215

     30  C    Isotropic =    49.6116   Anisotropy =   157.8418

     31  C    Isotropic =    48.9625   Anisotropy =   164.8442

     32  H    Isotropic =    24.3292   Anisotropy =     8.3019

     33  C    Isotropic =    48.7923   Anisotropy =   163.4619

     34  H    Isotropic =    24.6801   Anisotropy =     7.7179

     35  C    Isotropic =    41.6417   Anisotropy =   195.4241

     36  H    Isotropic =    24.4800   Anisotropy =     7.6195

     37  H    Isotropic =    24.4747   Anisotropy =     7.1755

     38  C    Isotropic =    40.9118   Anisotropy =   194.2000

     39  C    Isotropic =    49.7735   Anisotropy =   158.4362

     40  C    Isotropic =    51.3970   Anisotropy =   161.7479

     41  C    Isotropic =    48.4872   Anisotropy =   163.5390

     42  H    Isotropic =    24.6923   Anisotropy =     7.6528

     43  C    Isotropic =    49.1127   Anisotropy =   164.4486

     44  H    Isotropic =    24.3626   Anisotropy =     8.1134

     45  C    Isotropic =    41.5187   Anisotropy =   195.9110

     46  H    Isotropic =    24.4849   Anisotropy =     7.5349

     47  H    Isotropic =    24.4888   Anisotropy =     7.6741

     48  C    Isotropic =    38.4986   Anisotropy =   193.0851

     49  C    Isotropic =    47.4134   Anisotropy =   159.7583

     50  C    Isotropic =    50.1350   Anisotropy =   164.7352

     51  C    Isotropic =    48.2320   Anisotropy =   163.0477

     52  H    Isotropic =    24.2883   Anisotropy =     9.1373

     53  C    Isotropic =    49.6217   Anisotropy =   162.8370

     54  H    Isotropic =    24.3231   Anisotropy =     9.9226

     55  C    Isotropic =    40.3933   Anisotropy =   197.4631

     56  H    Isotropic =    24.4229   Anisotropy =     7.8762

     57  H    Isotropic =    24.4787   Anisotropy =     8.0004

     58  C    Isotropic =   160.7287   Anisotropy =    41.5110

     59  H    Isotropic =    29.3149   Anisotropy =     8.8635

     60  H    Isotropic =    29.5998   Anisotropy =     7.5406

     61  H    Isotropic =    29.5999   Anisotropy =     7.4942

     62  C    Isotropic =   160.5871   Anisotropy =    41.4586

     63  H    Isotropic =    29.5951   Anisotropy =     8.2357

     64  H    Isotropic =    29.3246   Anisotropy =     7.8432

     65  H    Isotropic =    29.6656   Anisotropy =     7.4679

     66  C    Isotropic =   160.9776   Anisotropy =    41.3170

     67  H    Isotropic =    29.6526   Anisotropy =     7.3905

     68  H    Isotropic =    29.3200   Anisotropy =     9.2802

     69  H    Isotropic =    29.7058   Anisotropy =     7.1068

     70  C    Isotropic =   160.8733   Anisotropy =    41.3873

     71  H    Isotropic =    29.3144   Anisotropy =     8.8899

     72  H    Isotropic =    29.6230   Anisotropy =     7.5090

     73  H    Isotropic =    29.5929   Anisotropy =     7.5382

 The electronic state is 1-A.
 Alpha  occ. eigenvalues --  -77.04186 -77.04167 -10.18320 -10.18318 -10.18317
 Alpha  occ. eigenvalues --  -10.18316 -10.18092 -10.18089 -10.18060 -10.18050
 Alpha  occ. eigenvalues --  -10.17764 -10.17726 -10.17716 -10.17666 -10.17633
 Alpha  occ. eigenvalues --  -10.17258 -10.17258 -10.17245 -10.17241 -10.17236
 Alpha  occ. eigenvalues --  -10.17233 -10.17188 -10.17181 -10.17172 -10.17170
 Alpha  occ. eigenvalues --  -10.17104 -10.17066 -10.17056 -10.17045 -10.17004
 Alpha  occ. eigenvalues --  -10.16979 -10.16888 -10.16871 -10.16758 -10.16753
 Alpha  occ. eigenvalues --   -6.52718  -6.52700  -4.68870  -4.68852  -4.68828
 Alpha  occ. eigenvalues --   -4.68809  -4.68335  -4.68316  -0.86316  -0.86289
 Alpha  occ. eigenvalues --   -0.86114  -0.86099  -0.79954  -0.79509  -0.78747
 Alpha  occ. eigenvalues --   -0.78726  -0.75478  -0.74724  -0.74706  -0.74526
 Alpha  occ. eigenvalues --   -0.74511  -0.73534  -0.71924  -0.71861  -0.70849
 Alpha  occ. eigenvalues --   -0.67031  -0.65993  -0.65551  -0.65517  -0.61223
 Alpha  occ. eigenvalues --   -0.61199  -0.60846  -0.60817  -0.58411  -0.58118
 Alpha  occ. eigenvalues --   -0.57658  -0.57623  -0.53967  -0.53197  -0.49827
 Alpha  occ. eigenvalues --   -0.49801  -0.48974  -0.48763  -0.48040  -0.47901
 Alpha  occ. eigenvalues --   -0.47518  -0.47357  -0.45846  -0.45763  -0.45464
 Alpha  occ. eigenvalues --   -0.45233  -0.43763  -0.42933  -0.42499  -0.42365
 Alpha  occ. eigenvalues --   -0.42325  -0.42293  -0.42237  -0.42159  -0.41878
 Alpha  occ. eigenvalues --   -0.41819  -0.41736  -0.41234  -0.41138  -0.40425
 Alpha  occ. eigenvalues --   -0.40390  -0.40244  -0.39999  -0.39548  -0.38738
 Alpha  occ. eigenvalues --   -0.38129  -0.38045  -0.37753  -0.37097  -0.37016
 Alpha  occ. eigenvalues --   -0.36144  -0.35101  -0.34815  -0.34758  -0.34719
 Alpha  occ. eigenvalues --   -0.34410  -0.34181  -0.34100  -0.33648  -0.33588
 Alpha  occ. eigenvalues --   -0.32789  -0.32495  -0.30642  -0.25788  -0.25653
 Alpha  occ. eigenvalues --   -0.25551  -0.25531  -0.24766  -0.24552  -0.23427
 Alpha  occ. eigenvalues --   -0.23247  -0.22093  -0.18111
 Alpha virt. eigenvalues --   -0.01965  -0.01786  -0.01564  -0.01401  -0.01366
 Alpha virt. eigenvalues --   -0.01254  -0.00993  -0.00735   0.01456   0.02130
 Alpha virt. eigenvalues --    0.03487   0.04163   0.04414   0.04614   0.04694

 Mulliken charges:
               1
     1  P    0.193018
     2  P    0.189594
     3  C   -0.382859
     4  H    0.123956
     5  H    0.134370
     6  C   -0.386617
     7  H    0.123912
     8  H    0.136945
     9  C   -0.346988
    10  H    0.125525
    11  H    0.107780
    12  C   -0.365598
    13  H    0.130469
    14  H    0.143231
    15  C   -0.359964
    16  H    0.144259
    17  H    0.129525
    18  C    0.181504
    19  C   -0.167873
    20  C   -0.170189
    21  C   -0.181143
    22  H    0.116267
    23  C   -0.185003
    24  H    0.118787
    25  C    0.164678
    26  H    0.096698
    27  H    0.097421
    28  C    0.164080
    29  C   -0.170924
    30  C   -0.186859
    31  C   -0.186632
    32  H    0.123427
    33  C   -0.167939
    34  H    0.106306
    35  C    0.155001
    36  H    0.097578
    37  H    0.096500
    38  C    0.184661
    39  C   -0.189160
    40  C   -0.186299
    41  C   -0.165969
    42  H    0.103778
    43  C   -0.177092
    44  H    0.121592
    45  C    0.148483
    46  H    0.096674
    47  H    0.098252
    48  C    0.189656
    49  C   -0.157216
    50  C   -0.154534
    51  C   -0.183170
    52  H    0.099737
    53  C   -0.188613
    54  H    0.111118
    55  C    0.162717
    56  H    0.096317
    57  H    0.097484
    58  C   -0.365513
    59  H    0.120897
    60  H    0.116010
    61  H    0.116505
    62  C   -0.364505
    63  H    0.115573
    64  H    0.120911
    65  H    0.114215
    66  C   -0.364768
    67  H    0.115891
    68  H    0.121160
    69  H    0.114598
    70  C   -0.364855
    71  H    0.120794
    72  H    0.116207
    73  H    0.116224
 Sum of Mulliken charges =  -0.00000

 Dipole moment (field-independent basis, Debye):
    X=             -0.1528    Y=              1.1306    Z=             -1.3664  Tot=              1.7801
 Quadrupole moment (field-independent basis, Debye-Ang):
   XX=           -213.4123   YY=           -207.5006   ZZ=           -230.8321
   XY=             -0.6764   XZ=             -0.9036   YZ=              0.7319

 Summary of Natural Population Analysis:

                                       Natural Population
                Natural  -----------------------------------------------
    Atom  No    Charge         Core      Valence    Rydberg      Total
 -----------------------------------------------------------------------
      P    1    0.81344      9.99869     4.15294    0.03494    14.18656
      P    2    0.81236      9.99869     4.15396    0.03499    14.18764
      C    3   -0.70029      1.99933     4.67838    0.02258     6.70029
      H    4    0.22413      0.00000     0.77369    0.00217     0.77587
      H    5    0.22052      0.00000     0.77552    0.00396     0.77948
      C    6   -0.70145      1.99933     4.67952    0.02259     6.70145
      H    7    0.22330      0.00000     0.77451    0.00219     0.77670
      H    8    0.22329      0.00000     0.77264    0.00407     0.77671
      C    9   -1.02817      1.99947     4.99805    0.03065     7.02817
      H   10    0.23944      0.00000     0.75780    0.00276     0.76056
      H   11    0.25681      0.00000     0.74083    0.00236     0.74319
      C   12   -0.69522      1.99933     4.67429    0.02160     6.69522
      H   13    0.23045      0.00000     0.76829    0.00125     0.76955
      H   14    0.23823      0.00000     0.76020    0.00157     0.76177
      C   15   -0.69692      1.99933     4.67595    0.02164     6.69692
      H   16    0.24008      0.00000     0.75829    0.00163     0.75992
      H   17    0.23004      0.00000     0.76872    0.00123     0.76996
      C   18   -0.03243      1.99908     4.01101    0.02233     6.03243
      C   19   -0.19125      1.99908     4.17334    0.01883     6.19125
      C   20   -0.20300      1.99907     4.18511    0.01881     6.20300
      C   21   -0.19484      1.99910     4.17825    0.01749     6.19484
      H   22    0.20236      0.00000     0.79581    0.00183     0.79764
      C   23   -0.19790      1.99910     4.18109    0.01771     6.19790
      H   24    0.19693      0.00000     0.80133    0.00174     0.80307
      C   25   -0.02550      1.99912     4.00712    0.01926     6.02550
      H   26    0.20305      0.00000     0.79552    0.00144     0.79695
      H   27    0.20253      0.00000     0.79603    0.00144     0.79747
      C   28   -0.03585      1.99909     4.01276    0.02399     6.03585
      C   29   -0.21071      1.99908     4.19318    0.01845     6.21071
      C   30   -0.21028      1.99909     4.19246    0.01874     6.21028
      C   31   -0.19338      1.99910     4.17682    0.01746     6.19338
      H   32    0.19781      0.00000     0.80038    0.00180     0.80219
      C   33   -0.19410      1.99909     4.17739    0.01762     6.19410
      H   34    0.19814      0.00000     0.79983    0.00202     0.80186
      C   35   -0.03318      1.99912     4.01455    0.01952     6.03318
      H   36    0.20254      0.00000     0.79602    0.00144     0.79746
      H   37    0.20194      0.00000     0.79659    0.00147     0.79806
      C   38   -0.03755      1.99909     4.01452    0.02394     6.03755
      C   39   -0.20861      1.99908     4.19084    0.01868     6.20861
      C   40   -0.21150      1.99908     4.19391    0.01851     6.21150
      C   41   -0.19386      1.99910     4.17718    0.01758     6.19386
      H   42    0.19800      0.00000     0.79995    0.00205     0.80200
      C   43   -0.19406      1.99910     4.17748    0.01748     6.19406
      H   44    0.19851      0.00000     0.79965    0.00183     0.80149
      C   45   -0.03247      1.99912     4.01385    0.01951     6.03247
      H   46    0.20221      0.00000     0.79632    0.00147     0.79779
      H   47    0.20276      0.00000     0.79580    0.00144     0.79724
      C   48   -0.02996      1.99908     4.00863    0.02224     6.02996
      C   49   -0.19196      1.99908     4.17413    0.01875     6.19196
      C   50   -0.20294      1.99907     4.18518    0.01868     6.20294
      C   51   -0.19442      1.99910     4.17781    0.01751     6.19442
      H   52    0.19999      0.00000     0.79829    0.00172     0.80001
      C   53   -0.19622      1.99909     4.17942    0.01771     6.19622
      H   54    0.19663      0.00000     0.80155    0.00182     0.80337
      C   55   -0.02630      1.99912     4.00791    0.01928     6.02630
      H   56    0.20275      0.00000     0.79581    0.00144     0.79725
      H   57    0.20245      0.00000     0.79611    0.00144     0.79755
      C   58   -0.60876      1.99941     4.59755    0.01180     6.60876
      H   59    0.21352      0.00000     0.78517    0.00131     0.78648
      H   60    0.21057      0.00000     0.78831    0.00113     0.78943
      H   61    0.21083      0.00000     0.78806    0.00112     0.78917
      C   62   -0.60748      1.99941     4.59639    0.01167     6.60748
      H   63    0.21029      0.00000     0.78857    0.00114     0.78971
      H   64    0.21317      0.00000     0.78550    0.00133     0.78683
      H   65    0.20957      0.00000     0.78929    0.00114     0.79043
      C   66   -0.60786      1.99941     4.59673    0.01172     6.60786
      H   67    0.21041      0.00000     0.78846    0.00113     0.78959
      H   68    0.21325      0.00000     0.78543    0.00132     0.78675
      H   69    0.20977      0.00000     0.78911    0.00112     0.79023
      C   70   -0.60849      1.99941     4.59729    0.01178     6.60849
      H   71    0.21346      0.00000     0.78523    0.00131     0.78654
      H   72    0.21062      0.00000     0.78826    0.00112     0.78938
      H   73    0.21074      0.00000     0.78814    0.00112     0.78926
 =======================================================================
   * Total *   -0.00000     85.97004   179.27003    0.75993   266.00000

 Normal termination of Gaussian 16 at Fri Jan 24 03:02:02 2025.
