 Gaussian 16, Revision B.01,
 Gaussian 16:  ES64L-G16RevB.01 20-Dec-2017

 --------------------------------------------
 # nmr=giao b3lyp/def2TZVP pop=nbo scfcyc=200
 --------------------------------------------

 ---------------
 MB-101 SPE NoRh
 ---------------
 Symbolic Z-matrix:
 Charge =  0 Multiplicity = 1

                         Standard orientation:
 ---------------------------------------------------------------------
 Center     Atomic      Atomic             Coordinates (Angstroms)
 Number     Number       Type             X           Y           Z
 ---------------------------------------------------------------------
      1          6           0       -0.874700   -0.266901    0.637084
      2          1           0       -0.550330   -1.303620    0.728312
      3          1           0       -0.992137    0.168437    1.629380
      4          6           0       -3.364051    1.217275    0.232163
      5          1           0       -3.609974    0.919069    1.256436
      6          1           0       -2.692279    2.076863    0.294622
      7         15           0       -2.357393   -0.175660   -0.494718
      8         15           0        0.307437    0.614322   -0.514772
      9          6           0        0.415335    2.342547    0.114709
     10          6           0        0.878261    2.605387    1.409702
     11          6           0       -0.000879    3.403936   -0.692132
     12          6           0        0.923011    3.909059    1.884873
     13          1           0        1.215173    1.794759    2.045804
     14          6           0        0.047619    4.710863   -0.213902
     15          1           0       -0.368484    3.205310   -1.690721
     16          6           0        0.508248    4.963773    1.072899
     17          1           0        1.282118    4.104320    2.886991
     18          1           0       -0.273392    5.528387   -0.847074
     19          1           0        0.546010    5.980004    1.445454
     20          6           0       -3.373990   -1.682711   -0.209312
     21          6           0       -4.303720   -2.075255   -1.178909
     22          6           0       -3.265606   -2.425266    0.969309
     23          6           0       -5.112729   -3.186387   -0.968338
     24          1           0       -4.406643   -1.513715   -2.098666
     25          6           0       -4.071972   -3.540226    1.173527
     26          1           0       -2.556092   -2.142747    1.736694
     27          6           0       -4.995724   -3.921606    0.206299
     28          1           0       -5.831807   -3.478291   -1.723499
     29          1           0       -3.977888   -4.108905    2.090133
     30          1           0       -5.622949   -4.790097    0.368434
     31          6           0       -4.632747    1.584719   -0.540442
     32          1           0       -5.276724    0.706031   -0.639172
     33          1           0       -4.366517    1.896503   -1.555007
     34          6           0       -5.422738    2.708816    0.139192
     35          1           0       -5.688999    2.396039    1.153870
     36          1           0       -4.778864    3.587656    0.248020
     37          6           0       -6.688848    3.092032   -0.626889
     38          1           0       -7.368202    2.241304   -0.719565
     39          1           0       -7.229582    3.890988   -0.117017
     40          1           0       -6.452828    3.441733   -1.635001
     41          6           0        1.985038   -0.138918   -0.293638
     42          6           0        3.055445    0.655586   -0.499483
     43          1           0        2.851151    1.710452   -0.663939
     44          6           0        2.010862   -1.581823    0.066350
     45          6           0        1.536556   -2.568260   -0.805445
     46          6           0        2.480820   -1.970576    1.327413
     47          6           0        1.551907   -3.909866   -0.434208
     48          1           0        1.162088   -2.285766   -1.781410
     49          6           0        2.494458   -3.310391    1.696229
     50          1           0        2.848672   -1.217707    2.012679
     51          6           0        2.032334   -4.285046    0.816260
     52          1           0        1.191682   -4.662564   -1.124747
     53          1           0        2.868896   -3.593879    2.672308
     54          1           0        2.046226   -5.328068    1.103583
     55          6           0        4.490030    0.352435   -0.528705
     56          6           0        5.376842    1.435570   -0.408591
     57          6           0        5.033151   -0.929623   -0.710054
     58          6           0        6.750985    1.247199   -0.436582
     59          1           0        4.977087    2.436514   -0.287032
     60          6           0        6.407732   -1.114407   -0.750572
     61          1           0        4.382221   -1.782651   -0.832808
     62          6           0        7.271774   -0.031861   -0.606517
     63          1           0        7.414061    2.096613   -0.333357
     64          1           0        6.808544   -2.109400   -0.899047
     65          1           0        8.342871   -0.183919   -0.636048
 ---------------------------------------------------------------------

 SCF Done:  E(RB3LYP) =  -1883.74495662     A.U. after   15 cycles

      1  C    Isotropic =   157.0815   Anisotropy =    10.5928

      2  H    Isotropic =    30.3093   Anisotropy =    11.5606

      3  H    Isotropic =    30.2002   Anisotropy =     4.3583

      4  C    Isotropic =   146.5878   Anisotropy =    27.7694

      5  H    Isotropic =    30.7688   Anisotropy =     3.5801

      6  H    Isotropic =    31.0636   Anisotropy =    10.4250

      7  P    Isotropic =   248.0107   Anisotropy =   106.4624

      8  P    Isotropic =   230.9708   Anisotropy =    94.8249

      9  C    Isotropic =    32.1253   Anisotropy =   203.1977

     10  C    Isotropic =    39.9354   Anisotropy =   184.6469

     11  C    Isotropic =    39.2639   Anisotropy =   183.4730

     12  C    Isotropic =    48.1098   Anisotropy =   185.9104

     13  H    Isotropic =    23.5940   Anisotropy =    10.0739

     14  C    Isotropic =    50.3043   Anisotropy =   183.2192

     15  H    Isotropic =    23.5855   Anisotropy =     7.7032

     16  C    Isotropic =    47.8763   Anisotropy =   190.1413

     17  H    Isotropic =    24.1159   Anisotropy =     5.8936

     18  H    Isotropic =    24.1510   Anisotropy =     5.1688

     19  H    Isotropic =    24.1375   Anisotropy =     4.2849

     20  C    Isotropic =    32.1278   Anisotropy =   209.1838

     21  C    Isotropic =    44.9268   Anisotropy =   182.8735

     22  C    Isotropic =    46.9738   Anisotropy =   183.7201

     23  C    Isotropic =    50.9184   Anisotropy =   182.2335

     24  H    Isotropic =    24.2386   Anisotropy =     9.3476

     25  C    Isotropic =    49.6438   Anisotropy =   184.3064

     26  H    Isotropic =    24.5849   Anisotropy =    11.1019

     27  C    Isotropic =    51.0549   Anisotropy =   184.6717

     28  H    Isotropic =    24.3898   Anisotropy =     5.4320

     29  H    Isotropic =    24.5513   Anisotropy =     6.4438

     30  H    Isotropic =    24.4942   Anisotropy =     4.2808

     31  C    Isotropic =   150.1735   Anisotropy =    33.3146

     32  H    Isotropic =    31.0620   Anisotropy =     7.2518

     33  H    Isotropic =    30.5899   Anisotropy =     4.1968

     34  C    Isotropic =   152.2043   Anisotropy =    27.5939

     35  H    Isotropic =    31.0363   Anisotropy =     5.4513

     36  H    Isotropic =    30.8865   Anisotropy =     5.7735

     37  C    Isotropic =   167.0545   Anisotropy =    29.5188

     38  H    Isotropic =    31.2699   Anisotropy =     8.2685

     39  H    Isotropic =    30.9593   Anisotropy =    11.2613

     40  H    Isotropic =    31.1407   Anisotropy =     7.8324

     41  C    Isotropic =    23.0653   Anisotropy =   154.7810

     42  C    Isotropic =    46.8144   Anisotropy =   125.6965

     43  H    Isotropic =    25.6278   Anisotropy =    12.0188

     44  C    Isotropic =    33.4911   Anisotropy =   188.6617

     45  C    Isotropic =    49.5820   Anisotropy =   180.8540

     46  C    Isotropic =    49.3830   Anisotropy =   172.2969

     47  C    Isotropic =    48.4014   Anisotropy =   189.5390

     48  H    Isotropic =    24.2622   Anisotropy =     7.0916

     49  C    Isotropic =    48.3043   Anisotropy =   187.7293

     50  H    Isotropic =    24.4872   Anisotropy =     7.6140

     51  C    Isotropic =    51.7625   Anisotropy =   185.3726

     52  H    Isotropic =    24.3006   Anisotropy =     4.8607

     53  H    Isotropic =    24.2382   Anisotropy =     5.0222

     54  H    Isotropic =    24.4111   Anisotropy =     3.4841

     55  C    Isotropic =    38.8557   Anisotropy =   191.0582

     56  C    Isotropic =    47.3734   Anisotropy =   163.5141

     57  C    Isotropic =    50.8345   Anisotropy =   183.8890

     58  C    Isotropic =    50.0718   Anisotropy =   181.1739

     59  H    Isotropic =    24.9230   Anisotropy =     9.5799

     60  C    Isotropic =    50.9825   Anisotropy =   181.7602

     61  H    Isotropic =    25.0808   Anisotropy =    13.7613

     62  C    Isotropic =    52.7218   Anisotropy =   180.2736

     63  H    Isotropic =    24.5729   Anisotropy =     5.7752

     64  H    Isotropic =    24.8533   Anisotropy =     7.5696

     65  H    Isotropic =    24.7844   Anisotropy =     4.2586

 The electronic state is 1-A.
 Alpha  occ. eigenvalues --  -77.05193 -77.04060 -10.19198 -10.18962 -10.18703
 Alpha  occ. eigenvalues --  -10.18692 -10.18632 -10.18618 -10.18459 -10.18441
 Alpha  occ. eigenvalues --  -10.18289 -10.18060 -10.17963 -10.17949 -10.17918
 Alpha  occ. eigenvalues --  -10.17825 -10.17798 -10.17776 -10.17689 -10.17668
 Alpha  occ. eigenvalues --  -10.17643 -10.17601 -10.17567 -10.17426 -10.17157
 Alpha  occ. eigenvalues --  -10.17092 -10.17071 -10.17028 -10.16996 -10.16843
 Alpha  occ. eigenvalues --  -10.16623 -10.16481 -10.15721  -6.53724  -6.52630
 Alpha  occ. eigenvalues --   -4.69871  -4.69846  -4.69371  -4.68806  -4.68719
 Alpha  occ. eigenvalues --   -4.68265  -0.86963  -0.86662  -0.85849  -0.85657
 Alpha  occ. eigenvalues --   -0.80616  -0.80017  -0.77089  -0.76020  -0.75928
 Alpha  occ. eigenvalues --   -0.75828  -0.75194  -0.74961  -0.74437  -0.73456
 Alpha  occ. eigenvalues --   -0.72306  -0.71435  -0.64852  -0.63480  -0.62370
 Alpha  occ. eigenvalues --   -0.61569  -0.61154  -0.60916  -0.60621  -0.60320
 Alpha  occ. eigenvalues --   -0.59787  -0.58154  -0.57003  -0.54860  -0.54463
 Alpha  occ. eigenvalues --   -0.52431  -0.51461  -0.50654  -0.49446  -0.47595
 Alpha  occ. eigenvalues --   -0.46913  -0.46643  -0.46357  -0.45914  -0.45872
 Alpha  occ. eigenvalues --   -0.45477  -0.45307  -0.44687  -0.44075  -0.43489
 Alpha  occ. eigenvalues --   -0.43230  -0.42932  -0.42666  -0.42515  -0.42355
 Alpha  occ. eigenvalues --   -0.42137  -0.41224  -0.40924  -0.39568  -0.39238
 Alpha  occ. eigenvalues --   -0.38321  -0.37774  -0.37508  -0.37406  -0.36988
 Alpha  occ. eigenvalues --   -0.36318  -0.35948  -0.35700  -0.35516  -0.35214
 Alpha  occ. eigenvalues --   -0.34899  -0.34303  -0.33931  -0.33909  -0.32824
 Alpha  occ. eigenvalues --   -0.32632  -0.31737  -0.30973  -0.30253  -0.27041
 Alpha  occ. eigenvalues --   -0.26817  -0.26529  -0.26262  -0.25946  -0.25918
 Alpha  occ. eigenvalues --   -0.25380  -0.23966  -0.21403  -0.18529
 Alpha virt. eigenvalues --   -0.04653  -0.03968  -0.02674  -0.02267  -0.02213
 Alpha virt. eigenvalues --   -0.01655  -0.01458  -0.00585   0.02184   0.03132
 Alpha virt. eigenvalues --    0.03524   0.04206   0.04445   0.04778   0.05208

 Mulliken charges:
               1
     1  C   -0.385456
     2  H    0.169688
     3  H    0.121452
     4  C   -0.269846
     5  H    0.097522
     6  H    0.132247
     7  P    0.165329
     8  P    0.151913
     9  C    0.012378
    10  C   -0.157985
    11  C   -0.156519
    12  C   -0.116771
    13  H    0.125897
    14  C   -0.105487
    15  H    0.120538
    16  C   -0.089387
    17  H    0.110115
    18  H    0.112998
    19  H    0.113932
    20  C    0.109102
    21  C   -0.200199
    22  C   -0.201736
    23  C   -0.098161
    24  H    0.110061
    25  C   -0.114689
    26  H    0.119105
    27  C   -0.108197
    28  H    0.108351
    29  H    0.105614
    30  H    0.108281
    31  C   -0.197841
    32  H    0.099438
    33  H    0.088863
    34  C   -0.143578
    35  H    0.082811
    36  H    0.085232
    37  C   -0.326887
    38  H    0.102926
    39  H    0.110139
    40  H    0.101140
    41  C    0.060027
    42  C   -0.220488
    43  H    0.127612
    44  C   -0.045130
    45  C   -0.155722
    46  C   -0.141434
    47  C   -0.110902
    48  H    0.122970
    49  C   -0.115349
    50  H    0.115079
    51  C   -0.096564
    52  H    0.111705
    53  H    0.108150
    54  H    0.109798
    55  C    0.191814
    56  C   -0.195849
    57  C   -0.181539
    58  C   -0.121869
    59  H    0.104954
    60  C   -0.127651
    61  H    0.158633
    62  C   -0.105685
    63  H    0.104412
    64  H    0.105206
    65  H    0.105489
 Sum of Mulliken charges =  -0.00000

 Dipole moment (field-independent basis, Debye):
    X=             -0.6050    Y=              0.4481    Z=              2.2890  Tot=              2.4097
 Quadrupole moment (field-independent basis, Debye-Ang):
   XX=           -209.7021   YY=           -191.1237   ZZ=           -210.5997
   XY=              2.1599   XZ=              4.3925   YZ=             -0.1189

 Summary of Natural Population Analysis:

                                       Natural Population
                Natural  -----------------------------------------------
    Atom  No    Charge         Core      Valence    Rydberg      Total
 -----------------------------------------------------------------------
      C    1   -1.01494      1.99946     4.98339    0.03209     7.01494
      H    2    0.26342      0.00000     0.73475    0.00182     0.73658
      H    3    0.23508      0.00000     0.76232    0.00260     0.76492
      C    4   -0.66723      1.99940     4.64632    0.02151     6.66723
      H    5    0.19994      0.00000     0.79645    0.00361     0.80006
      H    6    0.21998      0.00000     0.77768    0.00234     0.78002
      P    7    0.80706      9.99841     4.15859    0.03594    14.19294
      P    8    0.84304      9.99808     4.12483    0.03405    14.15696
      C    9   -0.33579      1.99900     4.30351    0.03328     6.33579
      C   10   -0.19090      1.99908     4.17178    0.02005     6.19090
      C   11   -0.19206      1.99910     4.17244    0.02053     6.19206
      C   12   -0.20512      1.99919     4.18691    0.01902     6.20512
      H   13    0.21002      0.00000     0.78774    0.00225     0.78998
      C   14   -0.20720      1.99918     4.18856    0.01947     6.20720
      H   15    0.22077      0.00000     0.77764    0.00158     0.77923
      C   16   -0.19470      1.99919     4.17652    0.01899     6.19470
      H   17    0.20948      0.00000     0.78915    0.00136     0.79052
      H   18    0.21118      0.00000     0.78756    0.00126     0.78882
      H   19    0.20980      0.00000     0.78904    0.00117     0.79020
      C   20   -0.32583      1.99901     4.29634    0.03047     6.32583
      C   21   -0.19919      1.99910     4.17912    0.02097     6.19919
      C   22   -0.20538      1.99908     4.18598    0.02033     6.20538
      C   23   -0.20348      1.99918     4.18455    0.01975     6.20348
      H   24    0.21377      0.00000     0.78445    0.00178     0.78623
      C   25   -0.20132      1.99919     4.18280    0.01934     6.20132
      H   26    0.20348      0.00000     0.79431    0.00221     0.79652
      C   27   -0.20756      1.99919     4.18883    0.01954     6.20756
      H   28    0.20806      0.00000     0.79062    0.00132     0.79194
      H   29    0.20636      0.00000     0.79223    0.00141     0.79364
      H   30    0.20745      0.00000     0.79131    0.00123     0.79255
      C   31   -0.38822      1.99942     4.37307    0.01573     6.38822
      H   32    0.19537      0.00000     0.80232    0.00230     0.80463
      H   33    0.19279      0.00000     0.80473    0.00248     0.80721
      C   34   -0.37433      1.99945     4.36165    0.01322     6.37433
      H   35    0.18959      0.00000     0.80883    0.00158     0.81041
      H   36    0.18909      0.00000     0.80937    0.00154     0.81091
      C   37   -0.58504      1.99947     4.57948    0.00609     6.58504
      H   38    0.19585      0.00000     0.80271    0.00144     0.80415
      H   39    0.20226      0.00000     0.79656    0.00118     0.79774
      H   40    0.19522      0.00000     0.80332    0.00146     0.80478
      C   41   -0.28854      1.99891     4.25958    0.03005     6.28854
      C   42   -0.19286      1.99897     4.17454    0.01935     6.19286
      H   43    0.20196      0.00000     0.79528    0.00276     0.79804
      C   44   -0.07105      1.99902     4.04756    0.02447     6.07105
      C   45   -0.21092      1.99906     4.19351    0.01835     6.21092
      C   46   -0.19613      1.99906     4.17879    0.01828     6.19613
      C   47   -0.19578      1.99919     4.17819    0.01840     6.19578
      H   48    0.21809      0.00000     0.78041    0.00150     0.78191
      C   49   -0.19921      1.99919     4.18152    0.01850     6.19921
      H   50    0.21202      0.00000     0.78653    0.00145     0.78798
      C   51   -0.21338      1.99919     4.19511    0.01908     6.21338
      H   52    0.21125      0.00000     0.78754    0.00121     0.78875
      H   53    0.20934      0.00000     0.78944    0.00122     0.79066
      H   54    0.20910      0.00000     0.78974    0.00116     0.79090
      C   55   -0.07459      1.99906     4.05473    0.02080     6.07459
      C   56   -0.18508      1.99914     4.16742    0.01851     6.18508
      C   57   -0.19027      1.99910     4.17370    0.01748     6.19027
      C   58   -0.20557      1.99919     4.18732    0.01906     6.20557
      H   59    0.20441      0.00000     0.79427    0.00132     0.79559
      C   60   -0.20022      1.99920     4.18222    0.01880     6.20022
      H   61    0.21632      0.00000     0.78167    0.00201     0.78368
      C   62   -0.20969      1.99919     4.19108    0.01942     6.20969
      H   63    0.20705      0.00000     0.79176    0.00119     0.79295
      H   64    0.20688      0.00000     0.79183    0.00129     0.79312
      H   65    0.20609      0.00000     0.79275    0.00116     0.79391
 =======================================================================
   * Total *   -0.00000     81.97066   165.27423    0.75511   248.00000

 Normal termination of Gaussian 16 at Fri Jan 24 01:54:08 2025.
