 Gaussian 16, Revision B.01,
 Gaussian 16:  ES64L-G16RevB.01 20-Dec-2017

 --------------------------------------------
 # nmr=giao b3lyp/def2TZVP pop=nbo scfcyc=200
 --------------------------------------------

 ---------------
 MB-134 SPE NoRh
 ---------------
 Symbolic Z-matrix:
 Charge =  0 Multiplicity = 1

                         Standard orientation:
 ---------------------------------------------------------------------
 Center     Atomic      Atomic             Coordinates (Angstroms)
 Number     Number       Type             X           Y           Z
 ---------------------------------------------------------------------
      1         15           0        1.494415   -1.538576    0.937212
      2          6           0        1.831941   -1.609382   -0.867979
      3          6           0        2.151396   -2.845068   -1.442428
      4          6           0        2.445173   -2.934117   -2.797439
      5          6           0        2.419522   -1.793442   -3.592883
      6          6           0        2.099126   -0.561789   -3.030798
      7          6           0        1.806599   -0.466460   -1.675746
      8          1           0        1.558416    0.501763   -1.260204
      9          1           0        2.076340    0.328107   -3.646637
     10          1           0        2.644666   -1.864388   -4.649867
     11          1           0        2.691990   -3.894938   -3.232278
     12          1           0        2.165121   -3.737757   -0.829921
     13          6           0        0.167356   -0.245244    1.169953
     14         15           0       -1.266944   -1.434291    1.156379
     15          1           0        0.285187    0.170236    2.171757
     16          1           0        0.121367    0.567782    0.448788
     17          6           0       -1.876092   -1.278885   -0.662542
     18          1           0       -1.014131   -1.590382   -1.254983
     19          6           0       -2.944503   -3.517671   -1.194797
     20          6           0       -4.066663   -4.293479   -1.459048
     21          6           0       -5.324132   -3.693389   -1.510142
     22          6           0       -5.455395   -2.325176   -1.316542
     23          6           0       -4.326583   -1.557550   -1.050614
     24          6           0       -3.063222   -2.146593   -0.968388
     25          1           0       -1.962093   -3.975089   -1.174140
     26          1           0       -3.962478   -5.354632   -1.639275
     27          1           0       -6.201941   -4.290463   -1.719537
     28          1           0       -6.417705   -1.833909   -1.378807
     29          8           0       -2.104059    0.094509   -0.930210
     30          8           0       -4.479357   -0.201574   -0.913100
     31          5           0       -3.377465    0.631221   -0.958366
     32          6           0       -3.572890    2.163841   -1.067801
     33          6           0       -2.475818    3.035567   -1.149097
     34          6           0       -4.862510    2.718933   -1.099989
     35          6           0       -2.657623    4.408135   -1.256221
     36          1           0       -1.471171    2.630151   -1.137064
     37          6           0       -5.047368    4.091610   -1.204005
     38          1           0       -5.723248    2.064532   -1.046101
     39          6           0       -3.945361    4.937810   -1.282124
     40          1           0       -1.799526    5.065538   -1.323747
     41          1           0       -6.049541    4.503303   -1.228626
     42          1           0       -4.089512    6.008151   -1.367311
     43          6           0       -2.629152   -0.731000    2.161668
     44          6           0       -3.722215   -1.546462    2.481357
     45          6           0       -2.613245    0.596627    2.600999
     46          6           0       -4.779285   -1.038526    3.227124
     47          1           0       -3.761886   -2.572523    2.138309
     48          6           0       -3.671759    1.096054    3.352724
     49          1           0       -1.788111    1.251237    2.354177
     50          6           0       -4.752725    0.280448    3.667252
     51          1           0       -5.622519   -1.674658    3.463554
     52          1           0       -3.651771    2.125783    3.684994
     53          1           0       -5.576249    0.673686    4.250812
     54          6           0        3.075092   -0.753093    1.725852
     55          1           0        2.949298   -0.920969    2.797836
     56          6           0        4.346984   -1.385020    1.231529
     57          8           0        3.022394    0.646705    1.511365
     58          6           0        4.766815   -2.649777    1.647479
     59          6           0        5.145632   -0.684570    0.323975
     60          5           0        3.822957    1.285754    0.584058
     61          6           0        5.933324   -3.214848    1.149569
     62          1           0        4.183635   -3.196408    2.376835
     63          6           0        6.316575   -1.240625   -0.177942
     64          8           0        4.818815    0.589385   -0.067198
     65          6           0        3.599776    2.786960    0.276363
     66          6           0        6.704393   -2.509142    0.228570
     67          1           0        6.247783   -4.194109    1.486658
     68          1           0        6.910462   -0.660995   -0.872852
     69          6           0        2.625387    3.533635    0.958511
     70          6           0        4.378713    3.443465   -0.690498
     71          1           0        7.618045   -2.940518   -0.160876
     72          6           0        2.435566    4.883059    0.687344
     73          1           0        2.022213    3.051929    1.719010
     74          6           0        4.188918    4.791010   -0.967364
     75          1           0        5.141896    2.889763   -1.222467
     76          6           0        3.217406    5.512543   -0.277962
     77          1           0        1.686614    5.446919    1.229717
     78          1           0        4.799274    5.283143   -1.714420
     79          1           0        3.072808    6.565320   -0.490036
 ---------------------------------------------------------------------

 SCF Done:  E(RB3LYP) =  -2539.67441304     A.U. after   14 cycles

      1  P    Isotropic =   221.1988   Anisotropy =   112.4670

      2  C    Isotropic =    41.8835   Anisotropy =   205.0959

      3  C    Isotropic =    40.3242   Anisotropy =   183.7650

      4  C    Isotropic =    50.3196   Anisotropy =   184.6048

      5  C    Isotropic =    47.9410   Anisotropy =   190.4556

      6  C    Isotropic =    49.2476   Anisotropy =   187.4262

      7  C    Isotropic =    43.1755   Anisotropy =   197.3105

      8  H    Isotropic =    23.6360   Anisotropy =     6.2172

      9  H    Isotropic =    24.4015   Anisotropy =     6.7260

     10  H    Isotropic =    24.3796   Anisotropy =     4.1451

     11  H    Isotropic =    24.4993   Anisotropy =     4.3938

     12  H    Isotropic =    24.1880   Anisotropy =     7.3402

     13  C    Isotropic =   163.6328   Anisotropy =    17.5497

     14  P    Isotropic =   215.7992   Anisotropy =   130.9981

     15  H    Isotropic =    29.5093   Anisotropy =     6.1563

     16  H    Isotropic =    28.2049   Anisotropy =     5.5314

     17  C    Isotropic =    98.4140   Anisotropy =    33.3255

     18  H    Isotropic =    27.1376   Anisotropy =     8.9316

     19  C    Isotropic =    51.7856   Anisotropy =   171.3582

     20  C    Isotropic =    56.0732   Anisotropy =   175.3399

     21  C    Isotropic =    49.8659   Anisotropy =   181.1104

     22  C    Isotropic =    60.9668   Anisotropy =   150.1956

     23  C    Isotropic =    24.5247   Anisotropy =   139.7470

     24  C    Isotropic =    53.6428   Anisotropy =   159.1774

     25  H    Isotropic =    24.7835   Anisotropy =     9.7920

     26  H    Isotropic =    24.7403   Anisotropy =     5.8924

     27  H    Isotropic =    24.5871   Anisotropy =     3.8769

     28  H    Isotropic =    25.0094   Anisotropy =     6.7511

     29  O    Isotropic =   209.4104   Anisotropy =   175.8891

     30  O    Isotropic =   161.3352   Anisotropy =   245.4909

     31  B    Isotropic =    76.5851   Anisotropy =    19.2366

     32  C    Isotropic =    46.5838   Anisotropy =   212.4480

     33  C    Isotropic =    42.8649   Anisotropy =   198.0684

     34  C    Isotropic =    42.1017   Anisotropy =   200.6146

     35  C    Isotropic =    51.1355   Anisotropy =   182.6906

     36  H    Isotropic =    23.7236   Anisotropy =     9.1995

     37  C    Isotropic =    51.0925   Anisotropy =   182.8181

     38  H    Isotropic =    23.9953   Anisotropy =    10.4403

     39  C    Isotropic =    46.8995   Anisotropy =   188.8287

     40  H    Isotropic =    24.3535   Anisotropy =     7.1945

     41  H    Isotropic =    24.4074   Anisotropy =     5.4075

     42  H    Isotropic =    24.2608   Anisotropy =     5.4721

     43  C    Isotropic =    39.9437   Anisotropy =   197.6056

     44  C    Isotropic =    44.7667   Anisotropy =   187.7578

     45  C    Isotropic =    46.0850   Anisotropy =   187.8069

     46  C    Isotropic =    50.3942   Anisotropy =   184.3208

     47  H    Isotropic =    25.0397   Anisotropy =     9.4261

     48  C    Isotropic =    49.6430   Anisotropy =   186.4103

     49  H    Isotropic =    24.2492   Anisotropy =     9.4702

     50  C    Isotropic =    50.3498   Anisotropy =   186.7327

     51  H    Isotropic =    24.6130   Anisotropy =     5.7564

     52  H    Isotropic =    24.6489   Anisotropy =     6.4540

     53  H    Isotropic =    24.5160   Anisotropy =     4.0156

     54  C    Isotropic =    95.3289   Anisotropy =    31.8618

     55  H    Isotropic =    25.7784   Anisotropy =     5.6005

     56  C    Isotropic =    54.6917   Anisotropy =   162.4269

     57  O    Isotropic =   202.8738   Anisotropy =   184.8419

     58  C    Isotropic =    52.7666   Anisotropy =   172.1668

     59  C    Isotropic =    25.5742   Anisotropy =   140.4877

     60  B    Isotropic =    75.6302   Anisotropy =    20.1491

     61  C    Isotropic =    56.0227   Anisotropy =   176.2052

     62  H    Isotropic =    24.4910   Anisotropy =     8.7672

     63  C    Isotropic =    60.4797   Anisotropy =   151.9848

     64  O    Isotropic =   160.3862   Anisotropy =   249.5000

     65  C    Isotropic =    46.5920   Anisotropy =   212.1000

     66  C    Isotropic =    49.9555   Anisotropy =   182.2361

     67  H    Isotropic =    24.6832   Anisotropy =     4.5817

     68  H    Isotropic =    25.0432   Anisotropy =     6.7551

     69  C    Isotropic =    42.0760   Anisotropy =   199.6479

     70  C    Isotropic =    41.6268   Anisotropy =   200.6840

     71  H    Isotropic =    24.6668   Anisotropy =     3.8498

     72  C    Isotropic =    50.4945   Anisotropy =   184.1656

     73  H    Isotropic =    23.1763   Anisotropy =     9.6392

     74  C    Isotropic =    50.4800   Anisotropy =   183.9357

     75  H    Isotropic =    23.4380   Anisotropy =    10.1119

     76  C    Isotropic =    45.9737   Anisotropy =   190.3917

     77  H    Isotropic =    23.9799   Anisotropy =     6.2280

     78  H    Isotropic =    24.1001   Anisotropy =     5.5775

     79  H    Isotropic =    23.9824   Anisotropy =     5.0020

 The electronic state is 1-A.
 Alpha  occ. eigenvalues --  -77.05241 -77.05010 -19.15695 -19.15358 -19.14621
 Alpha  occ. eigenvalues --  -19.14302 -10.24689 -10.24448 -10.24253 -10.24051
 Alpha  occ. eigenvalues --  -10.19306 -10.19008 -10.18912 -10.18642 -10.18469
 Alpha  occ. eigenvalues --  -10.18461 -10.18435 -10.18413 -10.18363 -10.18252
 Alpha  occ. eigenvalues --  -10.18207 -10.18192 -10.18190 -10.18159 -10.18056
 Alpha  occ. eigenvalues --  -10.17910 -10.17876 -10.17842 -10.17839 -10.17826
 Alpha  occ. eigenvalues --  -10.17768 -10.17756 -10.17723 -10.17723 -10.17710
 Alpha  occ. eigenvalues --  -10.17687 -10.17648 -10.17617 -10.17590 -10.17447
 Alpha  occ. eigenvalues --  -10.17387 -10.17322 -10.17294 -10.16385 -10.15918
 Alpha  occ. eigenvalues --   -6.78869  -6.78539  -6.53800  -6.53591  -4.69958
 Alpha  occ. eigenvalues --   -4.69906  -4.69746  -4.69698  -4.69428  -4.69227
 Alpha  occ. eigenvalues --   -1.07615  -1.07274  -1.03232  -1.02890  -0.86715
 Alpha  occ. eigenvalues --   -0.86498  -0.86435  -0.85969  -0.85725  -0.85309
 Alpha  occ. eigenvalues --   -0.78673  -0.78116  -0.76832  -0.75788  -0.75719
 Alpha  occ. eigenvalues --   -0.75660  -0.75418  -0.75064  -0.75024  -0.74596
 Alpha  occ. eigenvalues --   -0.74460  -0.74115  -0.73427  -0.69763  -0.68616
 Alpha  occ. eigenvalues --   -0.63581  -0.63185  -0.62755  -0.62167  -0.62066
 Alpha  occ. eigenvalues --   -0.61718  -0.61291  -0.60736  -0.60657  -0.60241
 Alpha  occ. eigenvalues --   -0.59956  -0.59584  -0.56772  -0.55579  -0.55256
 Alpha  occ. eigenvalues --   -0.55007  -0.53167  -0.52807  -0.51903  -0.51767
 Alpha  occ. eigenvalues --   -0.51610  -0.51227  -0.49994  -0.49666  -0.47302
 Alpha  occ. eigenvalues --   -0.46930  -0.46652  -0.46390  -0.46334  -0.46221
 Alpha  occ. eigenvalues --   -0.45850  -0.45704  -0.45514  -0.45312  -0.44945
 Alpha  occ. eigenvalues --   -0.44937  -0.44550  -0.44399  -0.43919  -0.43583
 Alpha  occ. eigenvalues --   -0.43210  -0.42825  -0.42642  -0.42504  -0.42146
 Alpha  occ. eigenvalues --   -0.42019  -0.41278  -0.41020  -0.40799  -0.39618
 Alpha  occ. eigenvalues --   -0.39416  -0.39034  -0.38484  -0.38092  -0.38082
 Alpha  occ. eigenvalues --   -0.38058  -0.37618  -0.37446  -0.36956  -0.36488
 Alpha  occ. eigenvalues --   -0.36206  -0.36136  -0.35886  -0.35564  -0.35108
 Alpha  occ. eigenvalues --   -0.34679  -0.34603  -0.34245  -0.33257  -0.32955
 Alpha  occ. eigenvalues --   -0.32629  -0.31778  -0.31449  -0.31132  -0.30819
 Alpha  occ. eigenvalues --   -0.27156  -0.26909  -0.26634  -0.26595  -0.26366
 Alpha  occ. eigenvalues --   -0.26091  -0.25850  -0.25650  -0.25621  -0.25312
 Alpha  occ. eigenvalues --   -0.24181  -0.23724  -0.22752  -0.19637
 Alpha virt. eigenvalues --   -0.04650  -0.04192  -0.03957  -0.03080  -0.02638
 Alpha virt. eigenvalues --   -0.02291  -0.02096  -0.01593  -0.01439  -0.01075
 Alpha virt. eigenvalues --   -0.00717  -0.00437   0.01583   0.02569   0.03636

 Mulliken charges:
               1
     1  P    0.087343
     2  C   -0.031980
     3  C   -0.121468
     4  C   -0.111003
     5  C   -0.086493
     6  C   -0.141470
     7  C   -0.117870
     8  H    0.143133
     9  H    0.112586
    10  H    0.112441
    11  H    0.110580
    12  H    0.108058
    13  C   -0.371374
    14  P    0.129727
    15  H    0.142527
    16  H    0.146099
    17  C    0.107342
    18  H    0.134797
    19  C   -0.216525
    20  C   -0.106423
    21  C   -0.099624
    22  C   -0.197119
    23  C    0.274618
    24  C    0.000069
    25  H    0.116686
    26  H    0.107537
    27  H    0.109590
    28  H    0.118163
    29  O   -0.390935
    30  O   -0.352267
    31  B    0.369382
    32  C    0.041425
    33  C   -0.167420
    34  C   -0.159335
    35  C   -0.110414
    36  H    0.133751
    37  C   -0.099912
    38  H    0.116751
    39  C   -0.088785
    40  H    0.108837
    41  H    0.105568
    42  H    0.108361
    43  C    0.091718
    44  C   -0.173831
    45  C   -0.207867
    46  C   -0.107775
    47  H    0.126034
    48  C   -0.105058
    49  H    0.125610
    50  C   -0.102739
    51  H    0.108166
    52  H    0.107060
    53  H    0.108323
    54  C    0.112340
    55  H    0.098793
    56  C    0.021889
    57  O   -0.350741
    58  C   -0.235208
    59  C    0.284853
    60  B    0.332360
    61  C   -0.096117
    62  H    0.110872
    63  C   -0.196534
    64  O   -0.351201
    65  C    0.036048
    66  C   -0.101487
    67  H    0.108717
    68  H    0.117674
    69  C   -0.165744
    70  C   -0.163750
    71  H    0.109898
    72  C   -0.098338
    73  H    0.123664
    74  C   -0.097577
    75  H    0.119621
    76  C   -0.091704
    77  H    0.108461
    78  H    0.107763
    79  H    0.110854
 Sum of Mulliken charges =  -0.00000

 Dipole moment (field-independent basis, Debye):
    X=              0.3075    Y=             -0.0150    Z=             -0.8490  Tot=              0.9031
 Quadrupole moment (field-independent basis, Debye-Ang):
   XX=           -270.3955   YY=           -264.1787   ZZ=           -282.9912
   XY=             -4.6926   XZ=            -10.2779   YZ=              4.1600

 Summary of Natural Population Analysis:

                                       Natural Population
                Natural  -----------------------------------------------
    Atom  No    Charge         Core      Valence    Rydberg      Total
 -----------------------------------------------------------------------
      P    1    0.77096      9.99840     4.19780    0.03284    14.22904
      C    2   -0.35144      1.99901     4.32000    0.03243     6.35144
      C    3   -0.18676      1.99910     4.16712    0.02054     6.18676
      C    4   -0.20400      1.99918     4.18546    0.01936     6.20400
      C    5   -0.19352      1.99919     4.17534    0.01900     6.19352
      C    6   -0.19905      1.99918     4.18114    0.01873     6.19905
      C    7   -0.19874      1.99907     4.17997    0.01970     6.19874
      H    8    0.20962      0.00000     0.78779    0.00259     0.79038
      H    9    0.21143      0.00000     0.78722    0.00135     0.78857
      H   10    0.20983      0.00000     0.78899    0.00118     0.79017
      H   11    0.21060      0.00000     0.78814    0.00126     0.78940
      H   12    0.21886      0.00000     0.77948    0.00167     0.78114
      C   13   -1.01243      1.99945     4.98090    0.03208     7.01243
      P   14    0.78471      9.99836     4.18476    0.03217    14.21529
      H   15    0.25867      0.00000     0.73985    0.00148     0.74133
      H   16    0.24746      0.00000     0.74991    0.00264     0.75254
      C   17   -0.13869      1.99918     4.10706    0.03245     6.13869
      H   18    0.21448      0.00000     0.78264    0.00287     0.78552
      C   19   -0.17823      1.99912     4.16003    0.01908     6.17823
      C   20   -0.22111      1.99920     4.20259    0.01932     6.22111
      C   21   -0.19210      1.99921     4.17408    0.01881     6.19210
      C   22   -0.23667      1.99909     4.21831    0.01928     6.23667
      C   23    0.29019      1.99863     3.68791    0.02327     5.70981
      C   24   -0.12349      1.99893     4.10345    0.02112     6.12349
      H   25    0.21506      0.00000     0.78350    0.00144     0.78494
      H   26    0.21066      0.00000     0.78821    0.00113     0.78934
      H   27    0.20982      0.00000     0.78906    0.00112     0.79018
      H   28    0.22042      0.00000     0.77825    0.00133     0.77958
      O   29   -0.69038      1.99969     6.66967    0.02103     8.69038
      O   30   -0.65524      1.99967     6.63465    0.02092     8.65524
      B   31    1.11336      1.99894     1.85866    0.02905     3.88664
      C   32   -0.39886      1.99894     4.37814    0.02178     6.39886
      C   33   -0.15260      1.99917     4.13517    0.01826     6.15260
      C   34   -0.15000      1.99917     4.13276    0.01806     6.15000
      C   35   -0.21686      1.99919     4.19824    0.01943     6.21686
      H   36    0.21210      0.00000     0.78647    0.00144     0.78790
      C   37   -0.21585      1.99918     4.19729    0.01937     6.21585
      H   38    0.21476      0.00000     0.78381    0.00143     0.78524
      C   39   -0.18993      1.99919     4.17145    0.01929     6.18993
      H   40    0.20758      0.00000     0.79110    0.00132     0.79242
      H   41    0.20689      0.00000     0.79182    0.00129     0.79311
      H   42    0.20591      0.00000     0.79290    0.00120     0.79409
      C   43   -0.34203      1.99901     4.31394    0.02908     6.34203
      C   44   -0.19233      1.99909     4.17316    0.02008     6.19233
      C   45   -0.20260      1.99908     4.18382    0.01970     6.20260
      C   46   -0.19853      1.99918     4.18067    0.01869     6.19853
      H   47    0.21628      0.00000     0.78170    0.00201     0.78372
      C   48   -0.19845      1.99918     4.18038    0.01889     6.19845
      H   49    0.20638      0.00000     0.79122    0.00240     0.79362
      C   50   -0.20233      1.99919     4.18379    0.01935     6.20233
      H   51    0.20932      0.00000     0.78937    0.00131     0.79068
      H   52    0.20875      0.00000     0.78992    0.00134     0.79125
      H   53    0.20814      0.00000     0.79064    0.00121     0.79186
      C   54   -0.13415      1.99919     4.10320    0.03176     6.13415
      H   55    0.20174      0.00000     0.79585    0.00241     0.79826
      C   56   -0.12095      1.99893     4.10103    0.02099     6.12095
      O   57   -0.68901      1.99969     6.66825    0.02107     8.68901
      C   58   -0.18351      1.99913     4.16511    0.01927     6.18351
      C   59    0.28803      1.99863     3.69004    0.02330     5.71197
      B   60    1.10697      1.99894     1.86554    0.02856     3.89303
      C   61   -0.21906      1.99919     4.20046    0.01940     6.21906
      H   62    0.21413      0.00000     0.78441    0.00146     0.78587
      C   63   -0.23366      1.99909     4.21536    0.01922     6.23366
      O   64   -0.65495      1.99967     6.63445    0.02083     8.65495
      C   65   -0.40202      1.99894     4.38136    0.02172     6.40202
      C   66   -0.19111      1.99920     4.17305    0.01886     6.19111
      H   67    0.21062      0.00000     0.78826    0.00113     0.78938
      H   68    0.22034      0.00000     0.77834    0.00132     0.77966
      C   69   -0.15345      1.99917     4.13596    0.01832     6.15345
      C   70   -0.15155      1.99917     4.13431    0.01806     6.15155
      H   71    0.21005      0.00000     0.78883    0.00112     0.78995
      C   72   -0.21653      1.99919     4.19793    0.01942     6.21653
      H   73    0.21346      0.00000     0.78510    0.00144     0.78654
      C   74   -0.21527      1.99919     4.19675    0.01934     6.21527
      H   75    0.21514      0.00000     0.78344    0.00142     0.78486
      C   76   -0.18819      1.99919     4.16973    0.01927     6.18819
      H   77    0.20807      0.00000     0.79064    0.00129     0.79193
      H   78    0.20792      0.00000     0.79079    0.00128     0.79208
      H   79    0.20694      0.00000     0.79186    0.00119     0.79306
 =======================================================================
   * Total *   -0.00000    109.95867   226.95974    1.08159   338.00000

 1\1\GINC-G4NODEC9\SP\RB3LYP\def2TZVP\C39H32B2O4P2\ROOT\24-Jan-2025\0\\
 # nmr=giao b3lyp/def2TZVP pop=nbo scfcyc=200\\MB-134 SPE NoRh\\0,1\P,0
 ,1.501,-0.541,0.161\C,0,1.809,-0.029,-1.577\C,0,2.167,-1.008,-2.511\C,
 0,2.44,-0.656,-3.827\C,0,2.355,0.674,-4.225\C,0,1.996,1.653,-3.304\C,0
 ,1.724,1.307,-1.986\H,0,1.445,2.085,-1.287\H,0,1.927,2.689,-3.61\H,0,2
 .564,0.947,-5.252\H,0,2.717,-1.421,-4.542\H,0,2.227,-2.046,-2.209\C,0,
 0.128,0.556,0.793\P,0,-1.258,-0.63,0.414\H,0,0.247,0.642,1.874\H,0,0.0
 37,1.551,0.363\C,0,-1.905,0.06,-1.262\H,0,-1.042,-0.013,-1.926\C,0,-2.

 Normal termination of Gaussian 16 at Fri Jan 24 04:58:36 2025.
