 Gaussian 16, Revision B.01,
 Gaussian 16:  ES64L-G16RevB.01 20-Dec-2017

 --------------------------------------------
 # nmr=giao b3lyp/def2TZVP pop=nbo scfcyc=200
 --------------------------------------------

 ---------------
 MB-111 SPE NoRh
 ---------------
 Symbolic Z-matrix:
 Charge =  0 Multiplicity = 1

                         Standard orientation:
 ---------------------------------------------------------------------
 Center     Atomic      Atomic             Coordinates (Angstroms)
 Number     Number       Type             X           Y           Z
 ---------------------------------------------------------------------
      1         15           0       -0.885964   -0.061039   -0.510029
      2          6           0       -2.426470    0.979236   -0.057832
      3          1           0       -2.562585    0.841364    1.017684
      4          6           0       -2.351195    2.505733   -0.345442
      5          1           0       -2.215519    2.621927   -1.426514
      6          6           0       -3.708362    3.150471    0.008675
      7          1           0       -3.883417    3.062010    1.085983
      8          1           0       -3.663829    4.218757   -0.208478
      9          6           0       -4.886794    2.528387   -0.734853
     10          1           0       -5.816673    3.021960   -0.439855
     11          1           0       -4.775891    2.694231   -1.813668
     12          6           0       -4.978508    1.029307   -0.461666
     13          1           0       -5.162484    0.895310    0.612049
     14          6           0       -3.638715    0.353493   -0.790715
     15          1           0       -3.477754    0.410831   -1.874169
     16          1           0       -3.729245   -0.705305   -0.548999
     17          6           0       -1.169047    3.258641    0.315913
     18          1           0       -0.259021    2.732838    0.016665
     19          6           0       -1.214999    3.291783    1.849830
     20          1           0       -2.029720    3.922233    2.210747
     21          1           0       -0.287533    3.708015    2.248469
     22          1           0       -1.349450    2.303284    2.295138
     23          6           0       -1.020110    4.684289   -0.235715
     24          1           0       -0.089788    5.131385    0.117877
     25          1           0       -1.833719    5.336512    0.086425
     26          1           0       -0.999514    4.690353   -1.327792
     27          6           0       -6.126685    0.366799   -1.224444
     28          1           0       -5.992182    0.468584   -2.305362
     29          1           0       -7.083286    0.825922   -0.966421
     30          1           0       -6.199276   -0.699504   -0.996435
     31          6           0       -1.417740   -1.850298   -0.067596
     32          1           0       -2.260620   -2.051248   -0.731845
     33          6           0       -0.347157   -2.948151   -0.328623
     34          1           0        0.543422   -2.692180    0.255785
     35          6           0       -0.850853   -4.306784    0.208046
     36          1           0       -1.699938   -4.641227   -0.395818
     37          1           0       -0.064682   -5.051516    0.073497
     38          6           0       -1.286067   -4.271548    1.669679
     39          1           0       -1.620230   -5.264465    1.980267
     40          1           0       -0.433757   -4.015790    2.312828
     41          6           0       -2.401064   -3.249767    1.877900
     42          1           0       -3.253060   -3.553277    1.256352
     43          6           0       -1.927653   -1.871888    1.391812
     44          1           0       -1.131449   -1.537235    2.067233
     45          1           0       -2.748637   -1.163469    1.513303
     46          6           0        0.110855   -3.066078   -1.807794
     47          1           0        0.365166   -2.046353   -2.140174
     48          6           0       -0.968383   -3.594595   -2.762385
     49          1           0       -1.188499   -4.647647   -2.579825
     50          1           0       -0.628123   -3.516409   -3.796812
     51          1           0       -1.907839   -3.043515   -2.685569
     52          6           0        1.392244   -3.899426   -1.944177
     53          1           0        1.768050   -3.858388   -2.969303
     54          1           0        1.220490   -4.952623   -1.712321
     55          1           0        2.182563   -3.534011   -1.286080
     56          6           0       -2.873429   -3.183563    3.330713
     57          1           0       -2.057002   -2.887093    3.996750
     58          1           0       -3.236935   -4.156190    3.666861
     59          1           0       -3.685372   -2.464168    3.457079
     60          6           0        0.518532    0.259766    0.707135
     61          1           0        0.682181   -0.582156    1.375372
     62          1           0        0.375917    1.147588    1.315840
     63         15           0        1.895195    0.510885   -0.543320
     64          6           0        3.224562   -0.723398   -0.190871
     65          6           0        4.295502   -0.785461   -1.090366
     66          6           0        3.231305   -1.563813    0.923152
     67          6           0        5.344179   -1.671215   -0.882469
     68          1           0        4.327159   -0.124344   -1.947596
     69          6           0        4.283066   -2.453720    1.129554
     70          1           0        2.432932   -1.532146    1.651391
     71          6           0        5.338314   -2.512597    0.226962
     72          1           0        6.167963   -1.703559   -1.584520
     73          1           0        4.276240   -3.097770    1.999941
     74          1           0        6.154350   -3.204812    0.388529
     75          6           0        2.708898    2.117804   -0.128241
     76          6           0        2.410057    3.263459   -0.868996
     77          6           0        3.618309    2.206393    0.931661
     78          6           0        3.007892    4.480222   -0.554975
     79          1           0        1.706669    3.203638   -1.689009
     80          6           0        4.209045    3.424710    1.246119
     81          1           0        3.876746    1.327447    1.507042
     82          6           0        3.908150    4.562159    0.501188
     83          1           0        2.774428    5.361339   -1.139716
     84          1           0        4.911628    3.483708    2.067427
     85          1           0        4.376592    5.507381    0.742898
 ---------------------------------------------------------------------

 SCF Done:  E(RB3LYP) =  -1970.85451533     A.U. after   14 cycles

      1  P    Isotropic =   229.6182   Anisotropy =    85.6530

      2  C    Isotropic =   139.7084   Anisotropy =    22.4620

      3  H    Isotropic =    29.8296   Anisotropy =     4.3744

      4  C    Isotropic =   130.5272   Anisotropy =    14.9841

      5  H    Isotropic =    30.4486   Anisotropy =     2.4657

      6  C    Isotropic =   153.0954   Anisotropy =     6.7811

      7  H    Isotropic =    30.8940   Anisotropy =     5.0760

      8  H    Isotropic =    30.1669   Anisotropy =     7.8687

      9  C    Isotropic =   144.6005   Anisotropy =    20.7443

     10  H    Isotropic =    30.2292   Anisotropy =     9.6010

     11  H    Isotropic =    30.9978   Anisotropy =     7.0669

     12  C    Isotropic =   143.3466   Anisotropy =    10.2651

     13  H    Isotropic =    30.5886   Anisotropy =     5.0613

     14  C    Isotropic =   143.0658   Anisotropy =    30.3096

     15  H    Isotropic =    31.2199   Anisotropy =     3.6016

     16  H    Isotropic =    30.4884   Anisotropy =    10.2859

     17  C    Isotropic =   149.1490   Anisotropy =    12.9033

     18  H    Isotropic =    30.1838   Anisotropy =    11.2230

     19  C    Isotropic =   168.0594   Anisotropy =    22.1081

     20  H    Isotropic =    31.5968   Anisotropy =     8.6178

     21  H    Isotropic =    31.9905   Anisotropy =     7.7635

     22  H    Isotropic =    31.2126   Anisotropy =     5.6551

     23  C    Isotropic =   160.0266   Anisotropy =    37.8683

     24  H    Isotropic =    31.2511   Anisotropy =     9.3446

     25  H    Isotropic =    31.0576   Anisotropy =     8.1509

     26  H    Isotropic =    31.1490   Anisotropy =     8.1861

     27  C    Isotropic =   158.9992   Anisotropy =    42.6394

     28  H    Isotropic =    31.2833   Anisotropy =     7.9269

     29  H    Isotropic =    30.8937   Anisotropy =    11.1386

     30  H    Isotropic =    30.9291   Anisotropy =     8.6701

     31  C    Isotropic =   139.5824   Anisotropy =    21.1032

     32  H    Isotropic =    30.1910   Anisotropy =     5.2945

     33  C    Isotropic =   136.6280   Anisotropy =    18.9831

     34  H    Isotropic =    30.8708   Anisotropy =     7.5472

     35  C    Isotropic =   154.3550   Anisotropy =     5.1872

     36  H    Isotropic =    30.8972   Anisotropy =     6.4313

     37  H    Isotropic =    30.2822   Anisotropy =     7.4991

     38  C    Isotropic =   144.6519   Anisotropy =    20.8696

     39  H    Isotropic =    30.2351   Anisotropy =     9.7378

     40  H    Isotropic =    31.0330   Anisotropy =     6.0804

     41  C    Isotropic =   143.9399   Anisotropy =    11.1906

     42  H    Isotropic =    30.7495   Anisotropy =     5.9123

     43  C    Isotropic =   144.4284   Anisotropy =    30.8179

     44  H    Isotropic =    30.9066   Anisotropy =     5.6417

     45  H    Isotropic =    30.0634   Anisotropy =     9.2690

     46  C    Isotropic =   150.5857   Anisotropy =    10.9400

     47  H    Isotropic =    29.3601   Anisotropy =     6.4876

     48  C    Isotropic =   166.7863   Anisotropy =    28.0541

     49  H    Isotropic =    31.5272   Anisotropy =     8.4939

     50  H    Isotropic =    31.2703   Anisotropy =    10.4918

     51  H    Isotropic =    31.0336   Anisotropy =     7.6357

     52  C    Isotropic =   161.5050   Anisotropy =    38.2551

     53  H    Isotropic =    31.5189   Anisotropy =     9.1287

     54  H    Isotropic =    31.5274   Anisotropy =     7.3882

     55  H    Isotropic =    32.5167   Anisotropy =    13.4013

     56  C    Isotropic =   159.1981   Anisotropy =    42.0778

     57  H    Isotropic =    31.2574   Anisotropy =     7.2719

     58  H    Isotropic =    30.8603   Anisotropy =    11.3228

     59  H    Isotropic =    30.8960   Anisotropy =     8.8997

     60  C    Isotropic =   162.9146   Anisotropy =    26.2349

     61  H    Isotropic =    29.5326   Anisotropy =     5.3156

     62  H    Isotropic =    30.3162   Anisotropy =     7.8449

     63  P    Isotropic =   245.3824   Anisotropy =   116.4634

     64  C    Isotropic =    34.9960   Anisotropy =   206.1218

     65  C    Isotropic =    44.4861   Anisotropy =   186.0644

     66  C    Isotropic =    48.0938   Anisotropy =   188.4257

     67  C    Isotropic =    48.9089   Anisotropy =   185.0185

     68  H    Isotropic =    24.4364   Anisotropy =    10.4461

     69  C    Isotropic =    50.3090   Anisotropy =   183.0692

     70  H    Isotropic =    23.8984   Anisotropy =    10.1086

     71  C    Isotropic =    51.4841   Anisotropy =   183.4595

     72  H    Isotropic =    24.3789   Anisotropy =     5.0922

     73  H    Isotropic =    24.2541   Anisotropy =     6.5980

     74  H    Isotropic =    24.4561   Anisotropy =     3.7864

     75  C    Isotropic =    31.0360   Anisotropy =   209.4919

     76  C    Isotropic =    41.7500   Anisotropy =   181.7956

     77  C    Isotropic =    41.6401   Anisotropy =   188.4120

     78  C    Isotropic =    50.7273   Anisotropy =   183.0438

     79  H    Isotropic =    23.7766   Anisotropy =     7.9717

     80  C    Isotropic =    49.5274   Anisotropy =   183.3203

     81  H    Isotropic =    24.6804   Anisotropy =    12.9010

     82  C    Isotropic =    49.9316   Anisotropy =   187.0577

     83  H    Isotropic =    24.3198   Anisotropy =     6.0151

     84  H    Isotropic =    24.5991   Anisotropy =     6.5718

     85  H    Isotropic =    24.4600   Anisotropy =     4.0426

 The electronic state is 1-A.
 Alpha  occ. eigenvalues --  -77.04646 -77.03492 -10.18473 -10.18273 -10.17996
 Alpha  occ. eigenvalues --  -10.17969 -10.17954 -10.17863 -10.17858 -10.17841
 Alpha  occ. eigenvalues --  -10.17821 -10.17802 -10.17765 -10.17745 -10.17714
 Alpha  occ. eigenvalues --  -10.17519 -10.17472 -10.17195 -10.17161 -10.17063
 Alpha  occ. eigenvalues --  -10.16995 -10.16849 -10.16472 -10.16319 -10.16288
 Alpha  occ. eigenvalues --  -10.16005 -10.15981 -10.15976 -10.15822 -10.15723
 Alpha  occ. eigenvalues --  -10.15705 -10.15685 -10.15455 -10.14885 -10.14555
 Alpha  occ. eigenvalues --   -6.53187  -6.51997  -4.69336  -4.69311  -4.68823
 Alpha  occ. eigenvalues --   -4.68175  -4.68080  -4.67632  -0.86321  -0.85858
 Alpha  occ. eigenvalues --   -0.84457  -0.83947  -0.80148  -0.79622  -0.77356
 Alpha  occ. eigenvalues --   -0.75990  -0.75206  -0.75173  -0.74631  -0.74472
 Alpha  occ. eigenvalues --   -0.74106  -0.73452  -0.71899  -0.68413  -0.67586
 Alpha  occ. eigenvalues --   -0.67406  -0.67288  -0.63568  -0.61934  -0.61363
 Alpha  occ. eigenvalues --   -0.61055  -0.61005  -0.60690  -0.60124  -0.59668
 Alpha  occ. eigenvalues --   -0.56337  -0.56064  -0.55732  -0.54887  -0.53772
 Alpha  occ. eigenvalues --   -0.52384  -0.51794  -0.50409  -0.47500  -0.46825
 Alpha  occ. eigenvalues --   -0.46540  -0.46097  -0.46025  -0.45783  -0.45585
 Alpha  occ. eigenvalues --   -0.45223  -0.44983  -0.44536  -0.44143  -0.43942
 Alpha  occ. eigenvalues --   -0.43404  -0.42830  -0.42708  -0.42452  -0.41968
 Alpha  occ. eigenvalues --   -0.41724  -0.41410  -0.40699  -0.40428  -0.40248
 Alpha  occ. eigenvalues --   -0.39968  -0.39792  -0.38852  -0.38593  -0.38257
 Alpha  occ. eigenvalues --   -0.37809  -0.37470  -0.37309  -0.36997  -0.36691
 Alpha  occ. eigenvalues --   -0.36057  -0.35916  -0.35425  -0.35159  -0.35115
 Alpha  occ. eigenvalues --   -0.35048  -0.34563  -0.34513  -0.34101  -0.34042
 Alpha  occ. eigenvalues --   -0.33524  -0.33014  -0.32481  -0.32305  -0.32218
 Alpha  occ. eigenvalues --   -0.31729  -0.31454  -0.31137  -0.30793  -0.29616
 Alpha  occ. eigenvalues --   -0.29332  -0.29102  -0.27299  -0.27067  -0.26262
 Alpha  occ. eigenvalues --   -0.26100  -0.25794  -0.21626  -0.18461
 Alpha virt. eigenvalues --   -0.03268  -0.02584  -0.02291  -0.01174   0.01512
 Alpha virt. eigenvalues --    0.01955   0.02489   0.03398   0.03614   0.04500
 Alpha virt. eigenvalues --    0.04734   0.05143   0.05314   0.05554   0.06027

 Mulliken charges:
               1
     1  P    0.106010
     2  C   -0.053059
     3  H    0.079720
     4  C    0.034132
     5  H    0.047724
     6  C   -0.216623
     7  H    0.087736
     8  H    0.095092
     9  C   -0.174834
    10  H    0.087270
    11  H    0.074656
    12  C    0.028861
    13  H    0.042660
    14  C   -0.287689
    15  H    0.094419
    16  H    0.103845
    17  C    0.017152
    18  H    0.064605
    19  C   -0.422646
    20  H    0.117465
    21  H    0.124427
    22  H    0.114963
    23  C   -0.389177
    24  H    0.123015
    25  H    0.107906
    26  H    0.108469
    27  C   -0.336069
    28  H    0.101325
    29  H    0.108044
    30  H    0.105925
    31  C   -0.072583
    32  H    0.075641
    33  C    0.010573
    34  H    0.024015
    35  C   -0.233445
    36  H    0.090553
    37  H    0.099022
    38  C   -0.164881
    39  H    0.088244
    40  H    0.067886
    41  C    0.027776
    42  H    0.043163
    43  C   -0.280373
    44  H    0.081636
    45  H    0.103904
    46  C    0.063398
    47  H    0.085140
    48  C   -0.395149
    49  H    0.108158
    50  H    0.110539
    51  H    0.109441
    52  C   -0.396574
    53  H    0.105515
    54  H    0.099056
    55  H    0.149804
    56  C   -0.336782
    57  H    0.097329
    58  H    0.108195
    59  H    0.105945
    60  C   -0.380338
    61  H    0.101419
    62  H    0.163551
    63  P    0.134679
    64  C    0.051093
    65  C   -0.143199
    66  C   -0.175421
    67  C   -0.114711
    68  H    0.108460
    69  C   -0.124450
    70  H    0.112495
    71  C   -0.100980
    72  H    0.108972
    73  H    0.106305
    74  H    0.109161
    75  C    0.047681
    76  C   -0.170882
    77  C   -0.161807
    78  C   -0.118041
    79  H    0.120303
    80  C   -0.118651
    81  H    0.139252
    82  C   -0.095247
    83  H    0.111771
    84  H    0.107505
    85  H    0.110612
 Sum of Mulliken charges =  -0.00000

 Dipole moment (field-independent basis, Debye):
    X=              0.0458    Y=              0.4065    Z=              1.8548  Tot=              1.8994
 Quadrupole moment (field-independent basis, Debye-Ang):
   XX=           -227.7706   YY=           -228.4003   ZZ=           -237.7191
   XY=             -0.4570   XZ=              1.9872   YZ=             -2.6752

 Summary of Natural Population Analysis:

                                       Natural Population
                Natural  -----------------------------------------------
    Atom  No    Charge         Core      Valence    Rydberg      Total
 -----------------------------------------------------------------------
      P    1    0.77791      9.99856     4.19256    0.03097    14.22209
      C    2   -0.46080      1.99933     4.43865    0.02283     6.46080
      H    3    0.19507      0.00000     0.80126    0.00366     0.80493
      C    4   -0.20258      1.99931     4.18316    0.02011     6.20258
      H    5    0.19500      0.00000     0.80229    0.00271     0.80500
      C    6   -0.38465      1.99938     4.37073    0.01455     6.38465
      H    7    0.18677      0.00000     0.81132    0.00191     0.81323
      H    8    0.20430      0.00000     0.79409    0.00161     0.79570
      C    9   -0.37786      1.99938     4.36494    0.01354     6.37786
      H   10    0.19993      0.00000     0.79851    0.00156     0.80007
      H   11    0.18561      0.00000     0.81259    0.00180     0.81439
      C   12   -0.20038      1.99941     4.18569    0.01528     6.20038
      H   13    0.18083      0.00000     0.81732    0.00185     0.81917
      C   14   -0.39249      1.99934     4.37713    0.01602     6.39249
      H   15    0.19563      0.00000     0.80198    0.00239     0.80437
      H   16    0.19988      0.00000     0.79807    0.00205     0.80012
      C   17   -0.20302      1.99941     4.18885    0.01476     6.20302
      H   18    0.19827      0.00000     0.79895    0.00278     0.80173
      C   19   -0.60612      1.99942     4.59445    0.01225     6.60612
      H   20    0.20118      0.00000     0.79753    0.00129     0.79882
      H   21    0.20893      0.00000     0.78990    0.00117     0.79107
      H   22    0.19945      0.00000     0.79945    0.00110     0.80055
      C   23   -0.58957      1.99943     4.57816    0.01198     6.58957
      H   24    0.20833      0.00000     0.79040    0.00128     0.79167
      H   25    0.19422      0.00000     0.80426    0.00153     0.80578
      H   26    0.20086      0.00000     0.79802    0.00112     0.79914
      C   27   -0.58133      1.99943     4.57212    0.00977     6.58133
      H   28    0.19624      0.00000     0.80242    0.00135     0.80376
      H   29    0.20234      0.00000     0.79649    0.00117     0.79766
      H   30    0.20056      0.00000     0.79833    0.00112     0.79944
      C   31   -0.45269      1.99934     4.42934    0.02402     6.45269
      H   32    0.21268      0.00000     0.78497    0.00235     0.78732
      C   33   -0.20485      1.99932     4.18649    0.01905     6.20485
      H   34    0.19161      0.00000     0.80550    0.00288     0.80839
      C   35   -0.38495      1.99937     4.37078    0.01479     6.38495
      H   36    0.18812      0.00000     0.80994    0.00193     0.81188
      H   37    0.20565      0.00000     0.79272    0.00163     0.79435
      C   38   -0.37790      1.99938     4.36499    0.01353     6.37790
      H   39    0.20031      0.00000     0.79815    0.00155     0.79969
      H   40    0.18212      0.00000     0.81610    0.00178     0.81788
      C   41   -0.20419      1.99941     4.18913    0.01566     6.20419
      H   42    0.18070      0.00000     0.81740    0.00190     0.81930
      C   43   -0.39637      1.99935     4.38208    0.01494     6.39637
      H   44    0.18337      0.00000     0.81369    0.00294     0.81663
      H   45    0.19811      0.00000     0.79911    0.00278     0.80189
      C   46   -0.21094      1.99941     4.19551    0.01602     6.21094
      H   47    0.21452      0.00000     0.78369    0.00179     0.78548
      C   48   -0.59392      1.99942     4.58401    0.01049     6.59392
      H   49    0.19270      0.00000     0.80594    0.00136     0.80730
      H   50    0.20642      0.00000     0.79255    0.00103     0.79358
      H   51    0.19928      0.00000     0.79957    0.00115     0.80072
      C   52   -0.58796      1.99942     4.57759    0.01095     6.58796
      H   53    0.20352      0.00000     0.79539    0.00108     0.79648
      H   54    0.18882      0.00000     0.80955    0.00163     0.81118
      H   55    0.20821      0.00000     0.79036    0.00143     0.79179
      C   56   -0.58156      1.99944     4.57209    0.01003     6.58156
      H   57    0.19393      0.00000     0.80471    0.00136     0.80607
      H   58    0.20223      0.00000     0.79659    0.00118     0.79777
      H   59    0.20048      0.00000     0.79841    0.00111     0.79952
      C   60   -1.02056      1.99945     4.99166    0.02945     7.02056
      H   61    0.23223      0.00000     0.76481    0.00296     0.76777
      H   62    0.25375      0.00000     0.74400    0.00225     0.74625
      P   63    0.82309      9.99815     4.14581    0.03295    14.17691
      C   64   -0.31840      1.99899     4.28733    0.03208     6.31840
      C   65   -0.19754      1.99909     4.17855    0.01991     6.19754
      C   66   -0.22058      1.99907     4.20190    0.01961     6.22058
      C   67   -0.19707      1.99918     4.17929    0.01860     6.19707
      H   68    0.21240      0.00000     0.78572    0.00188     0.78760
      C   69   -0.20087      1.99918     4.18280    0.01889     6.20087
      H   70    0.20038      0.00000     0.79747    0.00214     0.79962
      C   71   -0.21016      1.99919     4.19162    0.01935     6.21016
      H   72    0.20937      0.00000     0.78936    0.00127     0.79063
      H   73    0.20739      0.00000     0.79129    0.00132     0.79261
      H   74    0.20858      0.00000     0.79024    0.00117     0.79142
      C   75   -0.32060      1.99898     4.29075    0.03088     6.32060
      C   76   -0.19818      1.99908     4.17827    0.02082     6.19818
      C   77   -0.19463      1.99908     4.17561    0.01994     6.19463
      C   78   -0.20724      1.99918     4.18880    0.01926     6.20724
      H   79    0.21541      0.00000     0.78252    0.00207     0.78459
      C   80   -0.20365      1.99919     4.18549    0.01897     6.20365
      H   81    0.21211      0.00000     0.78570    0.00219     0.78789
      C   82   -0.20076      1.99919     4.18230    0.01927     6.20076
      H   83    0.20978      0.00000     0.78891    0.00131     0.79022
      H   84    0.20757      0.00000     0.79107    0.00137     0.79243
      H   85    0.20821      0.00000     0.79059    0.00120     0.79179
 =======================================================================
   * Total *   -0.00000     85.97324   191.28783    0.73894   278.00000

 Normal termination of Gaussian 16 at Fri Jan 24 03:13:57 2025.
