 Gaussian 16, Revision B.01,
 Gaussian 16:  ES64L-G16RevB.01 20-Dec-2017

 --------------------------------------------
 # nmr=giao b3lyp/def2TZVP pop=nbo scfcyc=200
 --------------------------------------------

 --------------
 MB-14 SPE NoRh
 --------------
 Symbolic Z-matrix:
 Charge =  0 Multiplicity = 1

                         Standard orientation:
 ---------------------------------------------------------------------
 Center     Atomic      Atomic             Coordinates (Angstroms)
 Number     Number       Type             X           Y           Z
 ---------------------------------------------------------------------
      1         15           0       -1.339185   -0.211312   -0.579148
      2         15           0        1.347441   -0.216567   -0.578622
      3          8           0       -1.907618    1.094638    0.226782
      4          8           0       -2.541949   -1.305983   -0.593426
      5          8           0        1.907789    1.101596    0.210400
      6          8           0        2.553028   -1.310103   -0.573980
      7          6           0        0.003165   -0.736014    0.598434
      8          6           0       -2.753011    2.081202   -0.430314
      9          6           0       -3.051844    3.179775    0.563917
     10          6           0       -3.267626   -1.708753    0.610808
     11          6           0       -4.349897   -2.681741    0.205056
     12          6           0        2.747059    2.082474   -0.465030
     13          6           0        3.020329    3.212281    0.502357
     14          6           0        3.272853   -1.697315    0.638463
     15          6           0        4.356796   -2.674946    0.250283
     16          1           0        0.001894   -1.822096    0.702797
     17          1           0        0.002942   -0.245296    1.571791
     18          1           0       -3.671549    1.593827   -0.766605
     19          1           0       -2.222127    2.469152   -1.302943
     20          1           0       -3.685018    3.935557    0.094270
     21          1           0       -2.132392    3.660884    0.899263
     22          1           0       -3.576764    2.787280    1.434361
     23          1           0       -3.684161   -0.816768    1.082713
     24          1           0       -2.559369   -2.169109    1.303945
     25          1           0       -4.903881   -3.000045    1.090831
     26          1           0       -5.052081   -2.217540   -0.488654
     27          1           0       -3.923233   -3.566988   -0.267860
     28          1           0        2.220424    2.439008   -1.354024
     29          1           0        3.675709    1.599431   -0.778536
     30          1           0        3.648634    3.963175    0.019545
     31          1           0        2.090628    3.689907    0.813730
     32          1           0        3.539895    2.849442    1.389287
     33          1           0        2.560827   -2.148438    1.334724
     34          1           0        3.686785   -0.799264    1.101544
     35          1           0        4.906178   -2.981520    1.143232
     36          1           0        3.932998   -3.565935   -0.214141
     37          1           0        5.062872   -2.219447   -0.444779
 ---------------------------------------------------------------------

 SCF Done:  E(RB3LYP) =  -1340.18075164     A.U. after   13 cycles

      1  P    Isotropic =    82.1030   Anisotropy =   233.5650

      2  P    Isotropic =    82.3069   Anisotropy =   233.0449

      3  O    Isotropic =   208.5890   Anisotropy =    59.8249

      4  O    Isotropic =   211.2122   Anisotropy =    61.7016

      5  O    Isotropic =   208.7235   Anisotropy =    59.3022

      6  O    Isotropic =   210.3546   Anisotropy =    62.4752

      7  C    Isotropic =   140.5010   Anisotropy =     6.0328

      8  C    Isotropic =   112.8891   Anisotropy =    75.3482

      9  C    Isotropic =   165.1463   Anisotropy =    26.5890

     10  C    Isotropic =   118.6838   Anisotropy =    66.2154

     11  C    Isotropic =   165.7389   Anisotropy =    26.9811

     12  C    Isotropic =   112.5418   Anisotropy =    75.8060

     13  C    Isotropic =   165.1210   Anisotropy =    26.5489

     14  C    Isotropic =   118.5735   Anisotropy =    66.2660

     15  C    Isotropic =   165.7534   Anisotropy =    26.9909

     16  H    Isotropic =    30.2310   Anisotropy =     3.9853

     17  H    Isotropic =    29.7898   Anisotropy =     1.7960

     18  H    Isotropic =    28.0533   Anisotropy =     6.3295

     19  H    Isotropic =    28.1463   Anisotropy =     5.3105

     20  H    Isotropic =    30.8825   Anisotropy =     9.9634

     21  H    Isotropic =    30.5389   Anisotropy =     6.9505

     22  H    Isotropic =    30.5714   Anisotropy =     6.9121

     23  H    Isotropic =    27.7208   Anisotropy =     5.1530

     24  H    Isotropic =    28.5480   Anisotropy =     4.2665

     25  H    Isotropic =    30.8865   Anisotropy =     9.7424

     26  H    Isotropic =    30.6133   Anisotropy =     7.5749

     27  H    Isotropic =    30.5465   Anisotropy =     7.5875

     28  H    Isotropic =    28.1326   Anisotropy =     5.2653

     29  H    Isotropic =    28.0466   Anisotropy =     6.3467

     30  H    Isotropic =    30.8901   Anisotropy =     9.9597

     31  H    Isotropic =    30.5378   Anisotropy =     6.9524

     32  H    Isotropic =    30.5540   Anisotropy =     6.9176

     33  H    Isotropic =    28.5412   Anisotropy =     4.2527

     34  H    Isotropic =    27.7179   Anisotropy =     5.1614

     35  H    Isotropic =    30.8856   Anisotropy =     9.7423

     36  H    Isotropic =    30.5510   Anisotropy =     7.5777

     37  H    Isotropic =    30.6207   Anisotropy =     7.5813

 The electronic state is 1-A.
 Alpha  occ. eigenvalues --  -77.08975 -77.08953 -19.13337 -19.13289 -19.13081
 Alpha  occ. eigenvalues --  -19.13031 -10.22574 -10.22554 -10.22349 -10.22322
 Alpha  occ. eigenvalues --  -10.16819 -10.16619 -10.16608 -10.16533 -10.16510
 Alpha  occ. eigenvalues --   -6.56686  -6.56665  -4.72985  -4.72963  -4.72821
 Alpha  occ. eigenvalues --   -4.72800  -4.72251  -4.72230  -1.03645  -1.03485
 Alpha  occ. eigenvalues --   -1.00410  -1.00369  -0.77622  -0.76743  -0.75760
 Alpha  occ. eigenvalues --   -0.75716  -0.72519  -0.63864  -0.62948  -0.62421
 Alpha  occ. eigenvalues --   -0.62237  -0.56900  -0.55805  -0.51073  -0.50475
 Alpha  occ. eigenvalues --   -0.48682  -0.48443  -0.47180  -0.47142  -0.46057
 Alpha  occ. eigenvalues --   -0.43505  -0.43367  -0.42315  -0.41628  -0.40989
 Alpha  occ. eigenvalues --   -0.40900  -0.39437  -0.39073  -0.38835  -0.38555
 Alpha  occ. eigenvalues --   -0.38077  -0.37518  -0.37333  -0.36058  -0.34970
 Alpha  occ. eigenvalues --   -0.34706  -0.33881  -0.32806  -0.30306  -0.29457
 Alpha  occ. eigenvalues --   -0.29227  -0.28934  -0.22796  -0.18886
 Alpha virt. eigenvalues --    0.00120   0.02577   0.03204   0.03495   0.04322
 Alpha virt. eigenvalues --    0.05539   0.05885   0.06944   0.07605   0.07840
 Alpha virt. eigenvalues --    0.07971   0.08382   0.08850   0.09015   0.09448

 Mulliken charges:
               1
     1  P    0.412195
     2  P    0.411820
     3  O   -0.372803
     4  O   -0.351194
     5  O   -0.372248
     6  O   -0.351719
     7  C   -0.351973
     8  C   -0.022809
     9  C   -0.301128
    10  C   -0.043958
    11  C   -0.294043
    12  C   -0.023592
    13  C   -0.300933
    14  C   -0.043689
    15  C   -0.293875
    16  H    0.117224
    17  H    0.119564
    18  H    0.099516
    19  H    0.098670
    20  H    0.100969
    21  H    0.111659
    22  H    0.107038
    23  H    0.105962
    24  H    0.086373
    25  H    0.099560
    26  H    0.110391
    27  H    0.111396
    28  H    0.099231
    29  H    0.099765
    30  H    0.101152
    31  H    0.111586
    32  H    0.107162
    33  H    0.086126
    34  H    0.105648
    35  H    0.099354
    36  H    0.111255
    37  H    0.110346
 Sum of Mulliken charges =  -0.00000

 Dipole moment (field-independent basis, Debye):
    X=             -0.0229    Y=              0.7156    Z=              2.7977  Tot=              2.8879
 Quadrupole moment (field-independent basis, Debye-Ang):
   XX=            -94.1839   YY=            -99.1603   ZZ=           -113.8749
   XY=              0.1267   XZ=              0.0004   YZ=             -7.2707

 Summary of Natural Population Analysis:

                                       Natural Population
                Natural  -----------------------------------------------
    Atom  No    Charge         Core      Valence    Rydberg      Total
 -----------------------------------------------------------------------
      P    1    1.33253      9.99864     3.57131    0.09752    13.66747
      P    2    1.33179      9.99864     3.57186    0.09770    13.66821
      O    3   -0.80386      1.99981     6.78867    0.01538     8.80386
      O    4   -0.78548      1.99982     6.77001    0.01565     8.78548
      O    5   -0.80347      1.99981     6.78736    0.01631     8.80347
      O    6   -0.78555      1.99982     6.77006    0.01567     8.78555
      C    7   -1.14050      1.99948     5.10927    0.03175     7.14050
      C    8   -0.05568      1.99931     4.03697    0.01940     6.05568
      C    9   -0.60483      1.99947     4.59357    0.01179     6.60483
      C   10   -0.06972      1.99931     4.05510    0.01532     6.06972
      C   11   -0.60606      1.99946     4.59500    0.01159     6.60606
      C   12   -0.05452      1.99931     4.03820    0.01701     6.05452
      C   13   -0.60505      1.99946     4.59411    0.01148     6.60505
      C   14   -0.06970      1.99931     4.05505    0.01535     6.06970
      C   15   -0.60602      1.99946     4.59495    0.01161     6.60602
      H   16    0.24983      0.00000     0.74872    0.00145     0.75017
      H   17    0.25862      0.00000     0.73868    0.00271     0.74138
      H   18    0.16582      0.00000     0.83200    0.00218     0.83418
      H   19    0.17066      0.00000     0.82614    0.00321     0.82934
      H   20    0.20652      0.00000     0.79255    0.00094     0.79348
      H   21    0.20820      0.00000     0.79046    0.00133     0.79180
      H   22    0.20560      0.00000     0.79312    0.00128     0.79440
      H   23    0.16981      0.00000     0.82730    0.00290     0.83019
      H   24    0.16154      0.00000     0.83545    0.00301     0.83846
      H   25    0.20506      0.00000     0.79407    0.00087     0.79494
      H   26    0.20792      0.00000     0.79089    0.00119     0.79208
      H   27    0.20819      0.00000     0.79061    0.00120     0.79181
      H   28    0.17070      0.00000     0.82561    0.00370     0.82930
      H   29    0.16549      0.00000     0.83183    0.00268     0.83451
      H   30    0.20654      0.00000     0.79258    0.00088     0.79346
      H   31    0.20804      0.00000     0.79067    0.00129     0.79196
      H   32    0.20561      0.00000     0.79315    0.00124     0.79439
      H   33    0.16137      0.00000     0.83561    0.00301     0.83863
      H   34    0.16961      0.00000     0.82750    0.00288     0.83039
      H   35    0.20496      0.00000     0.79417    0.00087     0.79504
      H   36    0.20815      0.00000     0.79065    0.00120     0.79185
      H   37    0.20788      0.00000     0.79093    0.00119     0.79212
 =======================================================================
   * Total *    0.00000     45.99111    91.56417    0.44472   138.00000

 Normal termination of Gaussian 16 at Thu Jan 23 19:48:25 2025.
