 Gaussian 16, Revision B.01,
 Gaussian 16:  ES64L-G16RevB.01 20-Dec-2017

 --------------------------------------------
 # nmr=giao b3lyp/def2TZVP pop=nbo scfcyc=200
 --------------------------------------------

 ---------------
 MB-136 SPE NoRh
 ---------------
 Symbolic Z-matrix:
 Charge =  0 Multiplicity = 1

                         Standard orientation:
 ---------------------------------------------------------------------
 Center     Atomic      Atomic             Coordinates (Angstroms)
 Number     Number       Type             X           Y           Z
 ---------------------------------------------------------------------
      1         15           0       -1.319882    3.241637   -0.415009
      2         15           0       -0.276131    0.686128   -0.704178
      3          6           0        0.218212   -3.445737    1.232527
      4          8           0       -0.957560   -0.775467   -1.040374
      5          6           0        0.230795   -2.417169    0.230483
      6          6           0        1.116194    3.748212    0.830882
      7          1           0        1.804282    4.456795    1.298134
      8          1           0        1.578399    3.410739   -0.096924
      9          1           0        1.033953    2.892654    1.500765
     10          8           0        1.047835    0.285362    0.216852
     11          6           0       -3.880617    2.751507   -1.399681
     12          1           0       -3.821297    1.715289   -1.066975
     13          1           0       -3.471595    2.806722   -2.407204
     14          1           0       -4.941051    3.010357   -1.449708
     15          6           0       -3.181567    3.728243   -0.435016
     16          6           0       -0.228813    4.454354    0.595465
     17          6           0       -1.276702    1.605287    0.536147
     18          1           0       -0.859911    1.638165    1.541793
     19          1           0       -2.273688    1.167796    0.574672
     20          6           0       -1.039538   -3.911448    1.723095
     21          6           0       -0.968204   -1.828631   -0.112413
     22          6           0        0.087278   -5.473184    3.196359
     23          1           0        0.052986   -6.255820    3.943633
     24          6           0        2.803401   -5.087900   -2.054780
     25          1           0        2.460280   -6.077624   -2.324651
     26          6           0        1.954795   -4.227414   -1.402882
     27          1           0        0.949839   -4.545475   -1.163325
     28          6           0       -0.839811    4.842420    1.948824
     29          1           0       -0.093602    5.397319    2.523222
     30          1           0       -1.124832    3.973507    2.545390
     31          1           0       -1.710219    5.489762    1.842292
     32          6           0       -3.845214    3.606805    0.946038
     33          1           0       -4.913965    3.813108    0.834718
     34          1           0       -3.452384    4.315835    1.669297
     35          1           0       -3.758145    2.603849    1.364684
     36          6           0       -2.231446   -2.270577    0.361967
     37          6           0        1.950733   -0.672445   -0.268005
     38          6           0        0.035596    5.718647   -0.240748
     39          1           0       -0.871672    6.267644   -0.488926
     40          1           0        0.563289    5.482317   -1.165150
     41          1           0        0.676246    6.390511    0.335344
     42          6           0       -1.072710   -4.942384    2.697201
     43          1           0       -2.034954   -5.294279    3.047175
     44          6           0        2.373408   -2.919849   -1.051080
     45          6           0        1.396641   -4.005320    1.789116
     46          1           0        2.361878   -3.646949    1.462340
     47          6           0        1.518248   -1.981227   -0.384975
     48          6           0        1.331295   -4.987735    2.744557
     49          1           0        2.246420   -5.391867    3.160009
     50          6           0        3.694415   -2.513148   -1.408013
     51          6           0        4.552921   -3.433036   -2.060597
     52          1           0        5.558209   -3.118496   -2.312663
     53          6           0       -2.231711   -3.322089    1.247131
     54          1           0       -3.178710   -3.704507    1.610256
     55          6           0        3.289015   -0.266590   -0.529676
     56          6           0        4.119246   -4.693613   -2.379259
     57          1           0        4.779128   -5.387428   -2.883543
     58          6           0        4.127241   -1.208964   -1.078785
     59          1           0        5.161185   -0.945435   -1.266893
     60          6           0       -3.347148    5.163245   -0.960715
     61          1           0       -4.409409    5.357282   -1.127644
     62          1           0       -2.834174    5.324349   -1.911113
     63          1           0       -2.991757    5.908025   -0.249550
     64          6           0       -3.523060   -1.659848   -0.075882
     65          6           0       -4.307604   -0.934356    0.840174
     66          6           0       -4.003311   -1.881528   -1.382356
     67          6           0       -5.542313   -0.427081    0.426715
     68          6           0       -5.241491   -1.361235   -1.748651
     69          6           0       -6.031073   -0.632331   -0.859669
     70          1           0       -6.141517    0.131026    1.138111
     71          1           0       -5.610244   -1.547297   -2.751478
     72          6           0        3.829658    1.070541   -0.129964
     73          6           0        4.339056    1.963416   -1.090007
     74          6           0        3.940531    1.388960    1.240299
     75          6           0        4.907948    3.167868   -0.669870
     76          6           0        4.530199    2.594444    1.612893
     77          6           0        5.019089    3.502500    0.675053
     78          1           0        5.290434    3.853054   -1.418943
     79          1           0        4.623316    2.824205    2.668862
     80          6           0       -3.880930   -0.714276    2.274539
     81          1           0       -4.384137    0.157282    2.695537
     82          1           0       -4.145365   -1.568783    2.901889
     83          1           0       -2.804126   -0.576156    2.376425
     84          6           0       -7.388200   -0.121032   -1.270230
     85          1           0       -7.386920    0.237466   -2.301171
     86          1           0       -8.137411   -0.915532   -1.205717
     87          1           0       -7.721633    0.693268   -0.625977
     88          6           0       -3.226403   -2.709874   -2.375663
     89          1           0       -2.280839   -2.235183   -2.647368
     90          1           0       -2.984891   -3.694111   -1.968586
     91          1           0       -3.802790   -2.858702   -3.288473
     92          6           0        3.479566    0.440060    2.319234
     93          1           0        2.391527    0.343338    2.339455
     94          1           0        3.888418   -0.562205    2.172578
     95          1           0        3.801188    0.790189    3.299577
     96          6           0        5.688489    4.781711    1.110066
     97          1           0        5.224556    5.192321    2.007889
     98          1           0        6.743241    4.609333    1.341365
     99          1           0        5.646507    5.540669    0.326906
    100          6           0        4.334816    1.655938   -2.568600
    101          1           0        4.337050    2.578079   -3.151267
    102          1           0        5.226982    1.094985   -2.857836
    103          1           0        3.474399    1.058148   -2.862724
 ---------------------------------------------------------------------

 SCF Done:  E(RB3LYP) =  -2656.31249228     A.U. after   15 cycles

      1  P    Isotropic =   221.4689   Anisotropy =    33.0239

      2  P    Isotropic =    23.9587   Anisotropy =   299.6714

      3  C    Isotropic =    42.1098   Anisotropy =   203.3015

      4  O    Isotropic =   155.5789   Anisotropy =    49.9545

      5  C    Isotropic =    49.4721   Anisotropy =   136.2989

      6  C    Isotropic =   152.0472   Anisotropy =    46.5875

      7  H    Isotropic =    32.1862   Anisotropy =     9.9713

      8  H    Isotropic =    32.1948   Anisotropy =    14.8781

      9  H    Isotropic =    31.6887   Anisotropy =     8.5871

     10  O    Isotropic =   150.5292   Anisotropy =    74.5100

     11  C    Isotropic =   152.1584   Anisotropy =    45.0653

     12  H    Isotropic =    32.2216   Anisotropy =    14.2119

     13  H    Isotropic =    31.3184   Anisotropy =     5.8392

     14  H    Isotropic =    31.9759   Anisotropy =     7.9848

     15  C    Isotropic =   140.0806   Anisotropy =    19.4699

     16  C    Isotropic =   141.4231   Anisotropy =    18.4746

     17  C    Isotropic =   151.2663   Anisotropy =    32.4277

     18  H    Isotropic =    30.1742   Anisotropy =     3.9003

     19  H    Isotropic =    30.7672   Anisotropy =    11.8891

     20  C    Isotropic =    44.8797   Anisotropy =   210.8318

     21  C    Isotropic =    23.9799   Anisotropy =   127.8979

     22  C    Isotropic =    54.2949   Anisotropy =   177.1481

     23  H    Isotropic =    24.2906   Anisotropy =     4.4559

     24  C    Isotropic =    52.6500   Anisotropy =   179.8845

     25  H    Isotropic =    24.4732   Anisotropy =     7.8711

     26  C    Isotropic =    50.0554   Anisotropy =   176.7499

     27  H    Isotropic =    24.4804   Anisotropy =    14.5832

     28  C    Isotropic =   153.4555   Anisotropy =    34.5257

     29  H    Isotropic =    31.3069   Anisotropy =     8.9761

     30  H    Isotropic =    30.9050   Anisotropy =     3.9373

     31  H    Isotropic =    30.7178   Anisotropy =     7.4899

     32  C    Isotropic =   154.6436   Anisotropy =    36.9482

     33  H    Isotropic =    31.2918   Anisotropy =     8.7769

     34  H    Isotropic =    30.5706   Anisotropy =     6.0979

     35  H    Isotropic =    30.9775   Anisotropy =     6.8947

     36  C    Isotropic =    42.1562   Anisotropy =   163.2943

     37  C    Isotropic =    22.9204   Anisotropy =   117.5793

     38  C    Isotropic =   152.5582   Anisotropy =    44.2922

     39  H    Isotropic =    30.7408   Anisotropy =     7.9645

     40  H    Isotropic =    31.0018   Anisotropy =     6.7854

     41  H    Isotropic =    31.5185   Anisotropy =     9.1063

     42  C    Isotropic =    49.6402   Anisotropy =   159.9425

     43  H    Isotropic =    23.7672   Anisotropy =     8.4670

     44  C    Isotropic =    42.1372   Anisotropy =   203.0149

     45  C    Isotropic =    50.4338   Anisotropy =   180.2856

     46  H    Isotropic =    24.7784   Anisotropy =    14.9646

     47  C    Isotropic =    50.5765   Anisotropy =   135.5173

     48  C    Isotropic =    53.0019   Anisotropy =   179.0336

     49  H    Isotropic =    24.5315   Anisotropy =     8.1671

     50  C    Isotropic =    45.6376   Anisotropy =   208.6208

     51  C    Isotropic =    49.9972   Anisotropy =   160.6850

     52  H    Isotropic =    23.7617   Anisotropy =     8.4454

     53  C    Isotropic =    45.3472   Anisotropy =   146.3479

     54  H    Isotropic =    23.9636   Anisotropy =    11.1978

     55  C    Isotropic =    41.9054   Anisotropy =   161.3032

     56  C    Isotropic =    54.3002   Anisotropy =   177.5556

     57  H    Isotropic =    24.2648   Anisotropy =     4.4687

     58  C    Isotropic =    45.4539   Anisotropy =   146.0290

     59  H    Isotropic =    23.9678   Anisotropy =    11.3579

     60  C    Isotropic =   153.4494   Anisotropy =    39.3779

     61  H    Isotropic =    31.2569   Anisotropy =     9.6985

     62  H    Isotropic =    30.7835   Anisotropy =     7.8973

     63  H    Isotropic =    30.8933   Anisotropy =     7.7193

     64  C    Isotropic =    39.0312   Anisotropy =   164.7553

     65  C    Isotropic =    39.4934   Anisotropy =   188.0287

     66  C    Isotropic =    35.2440   Anisotropy =   195.7742

     67  C    Isotropic =    49.1860   Anisotropy =   138.3983

     68  C    Isotropic =    49.5453   Anisotropy =   138.4444

     69  C    Isotropic =    38.0246   Anisotropy =   197.0991

     70  H    Isotropic =    24.6212   Anisotropy =     7.6173

     71  H    Isotropic =    24.6536   Anisotropy =     8.1269

     72  C    Isotropic =    39.6481   Anisotropy =   162.4300

     73  C    Isotropic =    38.5558   Anisotropy =   189.7985

     74  C    Isotropic =    36.1566   Anisotropy =   194.7756

     75  C    Isotropic =    49.6433   Anisotropy =   138.1210

     76  C    Isotropic =    49.3614   Anisotropy =   137.9429

     77  C    Isotropic =    38.4622   Anisotropy =   196.7006

     78  H    Isotropic =    24.5840   Anisotropy =     7.5996

     79  H    Isotropic =    24.8415   Anisotropy =     8.5848

     80  C    Isotropic =   159.3324   Anisotropy =    23.5907

     81  H    Isotropic =    29.7565   Anisotropy =     7.1210

     82  H    Isotropic =    29.2782   Anisotropy =     8.8281

     83  H    Isotropic =    29.8342   Anisotropy =     5.2618

     84  C    Isotropic =   160.5986   Anisotropy =    42.0768

     85  H    Isotropic =    29.5525   Anisotropy =     7.1950

     86  H    Isotropic =    29.2921   Anisotropy =    10.0589

     87  H    Isotropic =    29.7722   Anisotropy =     6.3811

     88  C    Isotropic =   160.1438   Anisotropy =    35.0938

     89  H    Isotropic =    29.0435   Anisotropy =     7.2016

     90  H    Isotropic =    29.8846   Anisotropy =     5.4734

     91  H    Isotropic =    30.0085   Anisotropy =     9.5982

     92  C    Isotropic =   160.3513   Anisotropy =    34.1432

     93  H    Isotropic =    29.3057   Anisotropy =     7.8744

     94  H    Isotropic =    30.1554   Anisotropy =     3.9652

     95  H    Isotropic =    30.2183   Anisotropy =     9.0820

     96  C    Isotropic =   160.7956   Anisotropy =    41.8892

     97  H    Isotropic =    29.6382   Anisotropy =     6.7133

     98  H    Isotropic =    29.3223   Anisotropy =     9.9987

     99  H    Isotropic =    29.7073   Anisotropy =     7.1500

    100  C    Isotropic =   159.7336   Anisotropy =    27.0767

    101  H    Isotropic =    29.6374   Anisotropy =     8.2236

    102  H    Isotropic =    29.2377   Anisotropy =     9.2403

    103  H    Isotropic =    29.5331   Anisotropy =     5.8567

 The electronic state is 1-A.
 Alpha  occ. eigenvalues --  -77.10461 -77.03577 -19.15105 -19.14994 -10.24302
 Alpha  occ. eigenvalues --  -10.24044 -10.19418 -10.19271 -10.19253 -10.19079
 Alpha  occ. eigenvalues --  -10.19028 -10.19014 -10.18996 -10.18900 -10.18800
 Alpha  occ. eigenvalues --  -10.18604 -10.18528 -10.18269 -10.18126 -10.18095
 Alpha  occ. eigenvalues --  -10.18081 -10.18020 -10.17972 -10.17913 -10.17908
 Alpha  occ. eigenvalues --  -10.17827 -10.17746 -10.17721 -10.17720 -10.17659
 Alpha  occ. eigenvalues --  -10.17587 -10.17535 -10.17510 -10.17435 -10.17395
 Alpha  occ. eigenvalues --  -10.16848 -10.16846 -10.16640 -10.16559 -10.16426
 Alpha  occ. eigenvalues --  -10.16154 -10.16105 -10.16092 -10.16042 -10.15925
 Alpha  occ. eigenvalues --  -10.15920 -10.15907 -10.15701 -10.15694 -10.15544
 Alpha  occ. eigenvalues --  -10.15309  -6.58113  -6.52122  -4.74477  -4.74229
 Alpha  occ. eigenvalues --   -4.73605  -4.68309  -4.68198  -4.67745  -1.06571
 Alpha  occ. eigenvalues --   -1.03135  -0.89079  -0.87928  -0.86678  -0.86294
 Alpha  occ. eigenvalues --   -0.83333  -0.82635  -0.81817  -0.80922  -0.80228
 Alpha  occ. eigenvalues --   -0.78549  -0.78278  -0.78011  -0.77895  -0.76445
 Alpha  occ. eigenvalues --   -0.75452  -0.74390  -0.74026  -0.72957  -0.71464
 Alpha  occ. eigenvalues --   -0.70215  -0.69860  -0.69107  -0.68702  -0.68367
 Alpha  occ. eigenvalues --   -0.68211  -0.68071  -0.68043  -0.67847  -0.67506
 Alpha  occ. eigenvalues --   -0.65761  -0.62796  -0.62656  -0.61497  -0.61384
 Alpha  occ. eigenvalues --   -0.60342  -0.58401  -0.57895  -0.57629  -0.57260
 Alpha  occ. eigenvalues --   -0.57065  -0.56323  -0.54724  -0.54268  -0.53309
 Alpha  occ. eigenvalues --   -0.52229  -0.51682  -0.50809  -0.50566  -0.48799
 Alpha  occ. eigenvalues --   -0.48513  -0.48258  -0.48044  -0.47269  -0.46837
 Alpha  occ. eigenvalues --   -0.46248  -0.45801  -0.45520  -0.44901  -0.44710
 Alpha  occ. eigenvalues --   -0.44342  -0.44059  -0.43943  -0.43823  -0.43264
 Alpha  occ. eigenvalues --   -0.43152  -0.42896  -0.42812  -0.42775  -0.42751
 Alpha  occ. eigenvalues --   -0.42444  -0.42167  -0.41637  -0.41569  -0.41286
 Alpha  occ. eigenvalues --   -0.41149  -0.40908  -0.40758  -0.40725  -0.40499
 Alpha  occ. eigenvalues --   -0.40233  -0.40148  -0.40100  -0.39786  -0.39565
 Alpha  occ. eigenvalues --   -0.39516  -0.39467  -0.39323  -0.39133  -0.38644
 Alpha  occ. eigenvalues --   -0.38545  -0.38255  -0.37977  -0.37813  -0.36958
 Alpha  occ. eigenvalues --   -0.36733  -0.36413  -0.36315  -0.36215  -0.36002
 Alpha  occ. eigenvalues --   -0.35066  -0.34987  -0.34499  -0.34147  -0.34019
 Alpha  occ. eigenvalues --   -0.33965  -0.33786  -0.33671  -0.33528  -0.33245
 Alpha  occ. eigenvalues --   -0.33054  -0.32801  -0.32649  -0.32595  -0.31705
 Alpha  occ. eigenvalues --   -0.31545  -0.30144  -0.29406  -0.28603  -0.28237
 Alpha  occ. eigenvalues --   -0.25231  -0.25129  -0.24227  -0.23791  -0.23591
 Alpha  occ. eigenvalues --   -0.23488  -0.22604  -0.22119  -0.21353  -0.18926
 Alpha virt. eigenvalues --   -0.05947  -0.04807  -0.02811  -0.02621  -0.00963
 Alpha virt. eigenvalues --   -0.00714  -0.00615  -0.00133   0.00016   0.00939
 Alpha virt. eigenvalues --    0.02096   0.02167   0.03116   0.03240   0.03820

 Mulliken charges:
               1
     1  P    0.097085
     2  P    0.427304
     3  C   -0.059638
     4  O   -0.366639
     5  C    0.038385
     6  C   -0.439852
     7  H    0.110545
     8  H    0.150439
     9  H    0.118928
    10  O   -0.391412
    11  C   -0.379926
    12  H    0.149879
    13  H    0.123134
    14  H    0.098000
    15  C    0.077445
    16  C    0.145167
    17  C   -0.365031
    18  H    0.120533
    19  H    0.119632
    20  C    0.159904
    21  C    0.299376
    22  C   -0.107330
    23  H    0.105868
    24  C   -0.105001
    25  H    0.107496
    26  C   -0.158680
    27  H    0.132447
    28  C   -0.366737
    29  H    0.102548
    30  H    0.115739
    31  H    0.106256
    32  C   -0.343933
    33  H    0.095152
    34  H    0.114270
    35  H    0.117240
    36  C   -0.081182
    37  C    0.280882
    38  C   -0.361627
    39  H    0.116022
    40  H    0.120898
    41  H    0.102395
    42  C   -0.187460
    43  H    0.099854
    44  C   -0.106283
    45  C   -0.160778
    46  H    0.139607
    47  C    0.115205
    48  C   -0.105451
    49  H    0.107725
    50  C    0.196902
    51  C   -0.187889
    52  H    0.099562
    53  C   -0.233200
    54  H    0.106925
    55  C   -0.083921
    56  C   -0.103344
    57  H    0.105722
    58  C   -0.284914
    59  H    0.109198
    60  C   -0.386937
    61  H    0.108111
    62  H    0.128511
    63  H    0.108021
    64  C    0.125680
    65  C   -0.018433
    66  C    0.079029
    67  C   -0.249878
    68  C   -0.240870
    69  C    0.167859
    70  H    0.083618
    71  H    0.086149
    72  C    0.124229
    73  C    0.058729
    74  C    0.062815
    75  C   -0.244853
    76  C   -0.258529
    77  C    0.173853
    78  H    0.085176
    79  H    0.081115
    80  C   -0.362284
    81  H    0.119300
    82  H    0.123424
    83  H    0.138588
    84  C   -0.377159
    85  H    0.119476
    86  H    0.123619
    87  H    0.113909
    88  C   -0.384506
    89  H    0.149926
    90  H    0.122089
    91  H    0.108902
    92  C   -0.373744
    93  H    0.136478
    94  H    0.123249
    95  H    0.110693
    96  C   -0.373853
    97  H    0.114663
    98  H    0.123010
    99  H    0.115596
   100  C   -0.372319
   101  H    0.116346
   102  H    0.115436
   103  H    0.142321
 Sum of Mulliken charges =  -0.00000

 Dipole moment (field-independent basis, Debye):
    X=             -0.6530    Y=              0.0264    Z=              1.8163  Tot=              1.9303
 Quadrupole moment (field-independent basis, Debye-Ang):
   XX=           -299.0013   YY=           -305.9036   ZZ=           -318.6047
   XY=             -0.1267   XZ=             -2.9515   YZ=              1.9365

 Summary of Natural Population Analysis:

                                       Natural Population
                Natural  -----------------------------------------------
    Atom  No    Charge         Core      Valence    Rydberg      Total
 -----------------------------------------------------------------------
      P    1    0.77399      9.99843     4.19780    0.02978    14.22601
      P    2    1.39435      9.99835     3.53189    0.07540    13.60565
      C    3   -0.03151      1.99901     4.01421    0.01829     6.03151
      O    4   -0.77224      1.99979     6.74831    0.02414     8.77224
      C    5   -0.06785      1.99885     4.04737    0.02164     6.06785
      C    6   -0.60684      1.99937     4.59419    0.01328     6.60684
      H    7    0.20507      0.00000     0.79243    0.00250     0.79493
      H    8    0.22162      0.00000     0.77638    0.00201     0.77838
      H    9    0.20550      0.00000     0.79243    0.00207     0.79450
      O   10   -0.78160      1.99978     6.75700    0.02482     8.78160
      C   11   -0.60456      1.99937     4.59192    0.01327     6.60456
      H   12    0.21131      0.00000     0.78713    0.00156     0.78869
      H   13    0.21427      0.00000     0.78437    0.00136     0.78573
      H   14    0.20084      0.00000     0.79709    0.00207     0.79916
      C   15   -0.26671      1.99946     4.24303    0.02422     6.26671
      C   16   -0.27300      1.99945     4.24904    0.02451     6.27300
      C   17   -1.11239      1.99947     5.08006    0.03286     7.11239
      H   18    0.25248      0.00000     0.74487    0.00265     0.74752
      H   19    0.26312      0.00000     0.73500    0.00188     0.73688
      C   20   -0.06698      1.99907     4.04918    0.01873     6.06698
      C   21    0.29714      1.99854     3.68132    0.02300     5.70286
      C   22   -0.21066      1.99918     4.19237    0.01910     6.21066
      H   23    0.20889      0.00000     0.78995    0.00116     0.79111
      C   24   -0.19845      1.99919     4.18095    0.01831     6.19845
      H   25    0.20872      0.00000     0.79009    0.00120     0.79128
      C   26   -0.18618      1.99911     4.16907    0.01800     6.18618
      H   27    0.21661      0.00000     0.78183    0.00157     0.78339
      C   28   -0.60245      1.99937     4.59096    0.01212     6.60245
      H   29    0.19779      0.00000     0.80011    0.00210     0.80221
      H   30    0.20170      0.00000     0.79672    0.00158     0.79830
      H   31    0.19843      0.00000     0.80001    0.00156     0.80157
      C   32   -0.60409      1.99936     4.59234    0.01239     6.60409
      H   33    0.19486      0.00000     0.80285    0.00229     0.80514
      H   34    0.20412      0.00000     0.79451    0.00137     0.79588
      H   35    0.20116      0.00000     0.79743    0.00142     0.79884
      C   36   -0.06869      1.99890     4.04850    0.02128     6.06869
      C   37    0.31530      1.99856     3.66236    0.02378     5.68470
      C   38   -0.60036      1.99937     4.58881    0.01219     6.60036
      H   39    0.20388      0.00000     0.79483    0.00130     0.79612
      H   40    0.21397      0.00000     0.78470    0.00133     0.78603
      H   41    0.20012      0.00000     0.79809    0.00179     0.79988
      C   42   -0.17380      1.99913     4.15657    0.01809     6.17380
      H   43    0.20577      0.00000     0.79292    0.00132     0.79423
      C   44   -0.03303      1.99901     4.01557    0.01845     6.03303
      C   45   -0.18634      1.99911     4.16920    0.01803     6.18634
      H   46    0.21784      0.00000     0.78037    0.00179     0.78216
      C   47   -0.06784      1.99885     4.04787    0.02112     6.06784
      C   48   -0.19831      1.99919     4.18070    0.01842     6.19831
      H   49    0.20904      0.00000     0.78976    0.00120     0.79096
      C   50   -0.06835      1.99907     4.05060    0.01869     6.06835
      C   51   -0.17331      1.99913     4.15610    0.01807     6.17331
      H   52    0.20594      0.00000     0.79273    0.00132     0.79406
      C   53   -0.15017      1.99902     4.13578    0.01537     6.15017
      H   54    0.20710      0.00000     0.79101    0.00190     0.79290
      C   55   -0.06713      1.99890     4.04661    0.02162     6.06713
      C   56   -0.21104      1.99919     4.19281    0.01905     6.21104
      H   57    0.20868      0.00000     0.79016    0.00116     0.79132
      C   58   -0.14933      1.99903     4.13515    0.01515     6.14933
      H   59    0.20776      0.00000     0.79023    0.00200     0.79224
      C   60   -0.60225      1.99937     4.59085    0.01204     6.60225
      H   61    0.20287      0.00000     0.79504    0.00209     0.79713
      H   62    0.21236      0.00000     0.78612    0.00152     0.78764
      H   63    0.19976      0.00000     0.79870    0.00154     0.80024
      C   64   -0.06051      1.99886     4.04066    0.02099     6.06051
      C   65    0.00570      1.99903     3.97762    0.01765     5.99430
      C   66    0.02728      1.99904     3.95599    0.01769     5.97272
      C   67   -0.21751      1.99899     4.20138    0.01713     6.21751
      C   68   -0.20974      1.99899     4.19409    0.01666     6.20974
      C   69   -0.00164      1.99911     3.98509    0.01745     6.00164
      H   70    0.19751      0.00000     0.80054    0.00195     0.80249
      H   71    0.19830      0.00000     0.80003    0.00168     0.80170
      C   72   -0.05886      1.99886     4.03897    0.02103     6.05886
      C   73    0.01595      1.99905     3.96760    0.01740     5.98405
      C   74    0.02491      1.99903     3.95831    0.01775     5.97509
      C   75   -0.21352      1.99899     4.19785    0.01668     6.21352
      C   76   -0.21344      1.99899     4.19760    0.01685     6.21344
      C   77   -0.00289      1.99910     3.98643    0.01736     6.00289
      H   78    0.19678      0.00000     0.80153    0.00169     0.80322
      H   79    0.19612      0.00000     0.80201    0.00186     0.80388
      C   80   -0.61987      1.99940     4.60760    0.01287     6.61987
      H   81    0.21008      0.00000     0.78863    0.00129     0.78992
      H   82    0.21604      0.00000     0.78257    0.00139     0.78396
      H   83    0.21623      0.00000     0.78211    0.00166     0.78377
      C   84   -0.60927      1.99941     4.59809    0.01177     6.60927
      H   85    0.21230      0.00000     0.78657    0.00113     0.78770
      H   86    0.21452      0.00000     0.78423    0.00125     0.78548
      H   87    0.20916      0.00000     0.78976    0.00108     0.79084
      C   88   -0.61877      1.99940     4.60775    0.01161     6.61877
      H   89    0.23146      0.00000     0.76714    0.00140     0.76854
      H   90    0.21483      0.00000     0.78394    0.00123     0.78517
      H   91    0.20822      0.00000     0.79080    0.00098     0.79178
      C   92   -0.62024      1.99940     4.60815    0.01269     6.62024
      H   93    0.22599      0.00000     0.77220    0.00180     0.77401
      H   94    0.21585      0.00000     0.78287    0.00128     0.78415
      H   95    0.20755      0.00000     0.79140    0.00105     0.79245
      C   96   -0.60879      1.99941     4.59773    0.01164     6.60879
      H   97    0.20975      0.00000     0.78911    0.00114     0.79025
      H   98    0.21405      0.00000     0.78469    0.00127     0.78595
      H   99    0.20986      0.00000     0.78908    0.00106     0.79014
      C  100   -0.61448      1.99941     4.60329    0.01178     6.61448
      H  101    0.21106      0.00000     0.78787    0.00108     0.78894
      H  102    0.21010      0.00000     0.78859    0.00131     0.78990
      H  103    0.22305      0.00000     0.77581    0.00114     0.77695
 =======================================================================
   * Total *    0.00000    117.95544   260.98203    1.06253   380.00000

 Normal termination of Gaussian 16 at Fri Jan 24 06:20:36 2025.
