 Gaussian 16, Revision B.01,
 Gaussian 16:  ES64L-G16RevB.01 20-Dec-2017

 --------------------------------------------
 # nmr=giao b3lyp/def2TZVP pop=nbo scfcyc=200
 --------------------------------------------

 ---------------
 MB-129 SPE NoRh
 ---------------
 Symbolic Z-matrix:
 Charge =  0 Multiplicity = 1

                         Standard orientation:
 ---------------------------------------------------------------------
 Center     Atomic      Atomic             Coordinates (Angstroms)
 Number     Number       Type             X           Y           Z
 ---------------------------------------------------------------------
      1         15           0       -1.432029   -0.024802   -0.747994
      2         15           0        1.432169    0.026068   -0.747872
      3          6           0        0.000029    0.000638    0.462067
      4          1           0       -0.031060   -0.866523    1.111711
      5          1           0        0.031076    0.868268    1.111423
      6          6           0       -2.345537   -1.575782   -0.256661
      7          6           0       -2.240168   -2.611781   -1.188081
      8          1           0       -1.692503   -2.433342   -2.103988
      9          6           0       -2.817586   -3.857835   -0.971610
     10          1           0       -2.718312   -4.635886   -1.717925
     11          6           0       -3.524451   -4.089815    0.197270
     12          1           0       -3.990853   -5.049246    0.379861
     13          6           0       -3.629915   -3.080824    1.146679
     14          1           0       -4.169612   -3.268291    2.063583
     15          6           0       -3.043491   -1.832808    0.946210
     16          6           0       -3.237943   -0.818569    2.060618
     17          6           0       -2.500743    1.474856   -0.428419
     18          6           0       -1.893946    2.553450    0.223044
     19          1           0       -0.871205    2.481695    0.560051
     20          6           0       -2.566745    3.744740    0.461507
     21          1           0       -2.059913    4.549741    0.978854
     22          6           0       -3.879217    3.892553    0.044521
     23          1           0       -4.420980    4.810398    0.231877
     24          6           0       -4.496888    2.849007   -0.630928
     25          1           0       -5.515477    2.963751   -0.974917
     26          6           0       -3.824099    1.654725   -0.887392
     27          6           0       -4.624792    0.604854   -1.628850
     28          6           0        2.499857   -1.474848   -0.427448
     29          6           0        1.892018   -2.552972    0.223090
     30          1           0        0.870256   -2.480496    0.561083
     31          6           0        2.564800   -3.744456    0.462626
     32          1           0        2.057934   -4.548881    0.980280
     33          6           0        3.877297   -3.892928    0.044612
     34          1           0        4.419048   -4.810927    0.232256
     35          6           0        4.495013   -2.849830   -0.630940
     36          1           0        5.513623   -2.965292   -0.974951
     37          6           0        3.823242   -1.655342   -0.887475
     38          6           0        4.624984   -0.605867   -1.629018
     39          6           0        2.346642    1.576643   -0.256206
     40          6           0        2.241339    2.613403   -1.187786
     41          1           0        1.693735    2.434713   -2.103878
     42          6           0        2.819738    3.858277   -0.971256
     43          1           0        2.720513    4.635938   -1.717942
     44          6           0        3.526524    4.090301    0.196864
     45          1           0        3.993910    5.048579    0.380272
     46          6           0        3.630921    3.080537    1.146455
     47          1           0        4.171557    3.268250    2.064551
     48          6           0        3.044511    1.832685    0.945924
     49          6           0        3.238888    0.818535    2.060516
     50          9           0       -3.832571   -0.189639   -2.398147
     51          9           0       -5.522801    1.161374   -2.461654
     52          9           0       -5.307717   -0.213073   -0.806208
     53          9           0       -2.128283   -0.066575    2.269964
     54          9           0       -4.244904    0.040102    1.805933
     55          9           0       -3.519094   -1.415058    3.231364
     56          9           0        2.128217    0.067372    2.271170
     57          9           0        4.243863   -0.040920    1.805200
     58          9           0        3.519959    1.415066    3.230770
     59          9           0        3.832817    0.189254   -2.397721
     60          9           0        5.307851    0.211387   -0.806659
     61          9           0        5.522048   -1.162703   -2.462214
 ---------------------------------------------------------------------

 SCF Done:  E(RB3LYP) =  -2997.73379082     A.U. after   14 cycles

      1  P    Isotropic =   227.8409   Anisotropy =   120.4768

      2  P    Isotropic =   227.7730   Anisotropy =   120.1306

      3  C    Isotropic =   142.4175   Anisotropy =    30.4979

      4  H    Isotropic =    28.9822   Anisotropy =     6.8023

      5  H    Isotropic =    28.9778   Anisotropy =     6.8021

      6  C    Isotropic =    33.3920   Anisotropy =   205.7216

      7  C    Isotropic =    37.3715   Anisotropy =   179.1432

      8  H    Isotropic =    23.4723   Anisotropy =     8.4525

      9  C    Isotropic =    47.2689   Anisotropy =   188.8946

     10  H    Isotropic =    24.0983   Anisotropy =     5.1772

     11  C    Isotropic =    48.2481   Anisotropy =   190.3928

     12  H    Isotropic =    24.0951   Anisotropy =     3.8661

     13  C    Isotropic =    49.0496   Anisotropy =   188.5063

     14  H    Isotropic =    23.8263   Anisotropy =     9.5049

     15  C    Isotropic =    39.6906   Anisotropy =   162.6456

     16  C    Isotropic =    45.1547   Anisotropy =    17.4634

     17  C    Isotropic =    33.7950   Anisotropy =   201.1501

     18  C    Isotropic =    49.8934   Anisotropy =   186.6352

     19  H    Isotropic =    24.6292   Anisotropy =     9.3597

     20  C    Isotropic =    47.9511   Anisotropy =   186.8859

     21  H    Isotropic =    24.5280   Anisotropy =     7.4374

     22  C    Isotropic =    52.4046   Anisotropy =   182.8496

     23  H    Isotropic =    24.4768   Anisotropy =     4.1109

     24  C    Isotropic =    48.5977   Anisotropy =   187.6368

     25  H    Isotropic =    24.0285   Anisotropy =     8.8891

     26  C    Isotropic =    43.8569   Anisotropy =   157.1199

     27  C    Isotropic =    44.3473   Anisotropy =    17.0086

     28  C    Isotropic =    33.7208   Anisotropy =   201.0800

     29  C    Isotropic =    49.9214   Anisotropy =   186.7132

     30  H    Isotropic =    24.6354   Anisotropy =     9.3609

     31  C    Isotropic =    47.8780   Anisotropy =   187.0193

     32  H    Isotropic =    24.5298   Anisotropy =     7.4438

     33  C    Isotropic =    52.3912   Anisotropy =   182.8226

     34  H    Isotropic =    24.4744   Anisotropy =     4.1112

     35  C    Isotropic =    48.6455   Anisotropy =   187.5770

     36  H    Isotropic =    24.0303   Anisotropy =     8.8875

     37  C    Isotropic =    43.8192   Anisotropy =   157.1268

     38  C    Isotropic =    44.4196   Anisotropy =    17.0326

     39  C    Isotropic =    33.3785   Anisotropy =   205.7551

     40  C    Isotropic =    37.3805   Anisotropy =   179.0434

     41  H    Isotropic =    23.4710   Anisotropy =     8.4529

     42  C    Isotropic =    47.4281   Anisotropy =   188.8033

     43  H    Isotropic =    24.1045   Anisotropy =     5.1770

     44  C    Isotropic =    48.2966   Anisotropy =   190.3505

     45  H    Isotropic =    24.1004   Anisotropy =     3.8765

     46  C    Isotropic =    48.9228   Anisotropy =   188.4223

     47  H    Isotropic =    23.8079   Anisotropy =     9.4918

     48  C    Isotropic =    39.7781   Anisotropy =   162.5485

     49  C    Isotropic =    45.2305   Anisotropy =    17.5385

     50  F    Isotropic =   237.3372   Anisotropy =   122.2551

     51  F    Isotropic =   243.2468   Anisotropy =   137.5120

     52  F    Isotropic =   225.5073   Anisotropy =   126.3113

     53  F    Isotropic =   237.4131   Anisotropy =   123.0252

     54  F    Isotropic =   223.9335   Anisotropy =   129.4722

     55  F    Isotropic =   247.0313   Anisotropy =   129.5204

     56  F    Isotropic =   237.2398   Anisotropy =   123.8082

     57  F    Isotropic =   224.3452   Anisotropy =   128.4913

     58  F    Isotropic =   247.2024   Anisotropy =   129.0534

     59  F    Isotropic =   237.3688   Anisotropy =   122.3334

     60  F    Isotropic =   225.7976   Anisotropy =   125.6777

     61  F    Isotropic =   243.4307   Anisotropy =   137.3050

 The electronic state is 1-A.
 Alpha  occ. eigenvalues --  -77.07058 -77.07057 -24.72134 -24.72124 -24.71745
 Alpha  occ. eigenvalues --  -24.71720 -24.71582 -24.71571 -24.71519 -24.71490
 Alpha  occ. eigenvalues --  -24.71254 -24.71237 -24.71108 -24.71101 -10.43241
 Alpha  occ. eigenvalues --  -10.43241 -10.42715 -10.42713 -10.21938 -10.21931
 Alpha  occ. eigenvalues --  -10.21418 -10.21416 -10.21359 -10.21357 -10.21221
 Alpha  occ. eigenvalues --  -10.21221 -10.20102 -10.20087 -10.19861 -10.19858
 Alpha  occ. eigenvalues --  -10.19783 -10.19775 -10.19718 -10.19715 -10.19673
 Alpha  occ. eigenvalues --  -10.19667 -10.19504 -10.19401 -10.19401 -10.19344
 Alpha  occ. eigenvalues --  -10.19342 -10.19061 -10.19058  -6.55531  -6.55530
 Alpha  occ. eigenvalues --   -4.71686  -4.71685  -4.71656  -4.71656  -4.71157
 Alpha  occ. eigenvalues --   -4.71157  -1.32051  -1.32031  -1.31506  -1.31483
 Alpha  occ. eigenvalues --   -1.23396  -1.23382  -1.22979  -1.22968  -1.22836
 Alpha  occ. eigenvalues --   -1.22814  -1.22405  -1.22399  -0.88840  -0.88784
 Alpha  occ. eigenvalues --   -0.88342  -0.88336  -0.80007  -0.79899  -0.79501
 Alpha  occ. eigenvalues --   -0.79491  -0.79378  -0.78145  -0.77018  -0.76985
 Alpha  occ. eigenvalues --   -0.74302  -0.71561  -0.71075  -0.70871  -0.70811
 Alpha  occ. eigenvalues --   -0.65998  -0.64960  -0.64096  -0.63887  -0.63673
 Alpha  occ. eigenvalues --   -0.63620  -0.62970  -0.62945  -0.60953  -0.60018
 Alpha  occ. eigenvalues --   -0.59987  -0.59629  -0.59584  -0.59503  -0.59423
 Alpha  occ. eigenvalues --   -0.59400  -0.58822  -0.58541  -0.57707  -0.57469
 Alpha  occ. eigenvalues --   -0.54966  -0.54934  -0.51327  -0.51170  -0.50343
 Alpha  occ. eigenvalues --   -0.50100  -0.48846  -0.48683  -0.48505  -0.48367
 Alpha  occ. eigenvalues --   -0.48212  -0.48181  -0.47865  -0.47735  -0.47460
 Alpha  occ. eigenvalues --   -0.47341  -0.47068  -0.46993  -0.46805  -0.46319
 Alpha  occ. eigenvalues --   -0.46272  -0.45857  -0.45441  -0.44804  -0.44743
 Alpha  occ. eigenvalues --   -0.44675  -0.43788  -0.43431  -0.43127  -0.43089
 Alpha  occ. eigenvalues --   -0.43004  -0.42471  -0.42271  -0.42161  -0.41980
 Alpha  occ. eigenvalues --   -0.41929  -0.41674  -0.41572  -0.41466  -0.41420
 Alpha  occ. eigenvalues --   -0.41090  -0.40731  -0.39378  -0.39361  -0.39025
 Alpha  occ. eigenvalues --   -0.39007  -0.38832  -0.37581  -0.37170  -0.37132
 Alpha  occ. eigenvalues --   -0.36849  -0.36724  -0.34900  -0.34615  -0.33237
 Alpha  occ. eigenvalues --   -0.29194  -0.29039  -0.28575  -0.28357  -0.28270
 Alpha  occ. eigenvalues --   -0.27892  -0.27835  -0.27563  -0.23516  -0.21179
 Alpha virt. eigenvalues --   -0.05765  -0.05713  -0.04999  -0.04687  -0.04244
 Alpha virt. eigenvalues --   -0.03759  -0.03132  -0.03048   0.00546   0.03067
 Alpha virt. eigenvalues --    0.03769   0.03998   0.04510   0.04814   0.05201

 Mulliken charges:
               1
     1  P    0.200604
     2  P    0.201066
     3  C   -0.368158
     4  H    0.135733
     5  H    0.135679
     6  C   -0.078727
     7  C   -0.099260
     8  H    0.126852
     9  C   -0.117421
    10  H    0.120623
    11  C   -0.081204
    12  H    0.120712
    13  C   -0.172235
    14  H    0.134548
    15  C   -0.038593
    16  C    0.566324
    17  C   -0.034619
    18  C   -0.081038
    19  H    0.119322
    20  C   -0.162997
    21  H    0.114535
    22  C   -0.090154
    23  H    0.116175
    24  C   -0.177352
    25  H    0.131195
    26  C   -0.025198
    27  C    0.543734
    28  C   -0.033552
    29  C   -0.082035
    30  H    0.119229
    31  C   -0.162556
    32  H    0.114583
    33  C   -0.090499
    34  H    0.116187
    35  C   -0.177011
    36  H    0.131144
    37  C   -0.026262
    38  C    0.543678
    39  C   -0.077550
    40  C   -0.100247
    41  H    0.126909
    42  C   -0.116693
    43  H    0.120495
    44  C   -0.082061
    45  H    0.120770
    46  C   -0.171114
    47  H    0.134523
    48  C   -0.039902
    49  C    0.566415
    50  F   -0.189184
    51  F   -0.178743
    52  F   -0.176344
    53  F   -0.191766
    54  F   -0.173804
    55  F   -0.177689
    56  F   -0.192227
    57  F   -0.173355
    58  F   -0.177498
    59  F   -0.189292
    60  F   -0.176087
    61  F   -0.178611
 Sum of Mulliken charges =  -0.00000

 Dipole moment (field-independent basis, Debye):
    X=              0.0120    Y=              0.0018    Z=              1.0031  Tot=              1.0032
 Quadrupole moment (field-independent basis, Debye-Ang):
   XX=           -264.7753   YY=           -209.8890   ZZ=           -269.3971
   XY=              3.6195   XZ=              0.0137   YZ=             -0.0004

 Summary of Natural Population Analysis:

                                       Natural Population
                Natural  -----------------------------------------------
    Atom  No    Charge         Core      Valence    Rydberg      Total
 -----------------------------------------------------------------------
      P    1    0.84052      9.99816     4.12979    0.03154    14.15948
      P    2    0.84027      9.99816     4.13004    0.03153    14.15973
      C    3   -1.00112      1.99940     4.96942    0.03230     7.00112
      H    4    0.25989      0.00000     0.73804    0.00207     0.74011
      H    5    0.25994      0.00000     0.73799    0.00207     0.74006
      C    6   -0.29062      1.99891     4.25888    0.03283     6.29062
      C    7   -0.18657      1.99911     4.16723    0.02023     6.18657
      H    8    0.22694      0.00000     0.77164    0.00142     0.77306
      C    9   -0.18539      1.99917     4.16713    0.01909     6.18539
      H   10    0.21590      0.00000     0.78290    0.00120     0.78410
      C   11   -0.19189      1.99918     4.17380    0.01892     6.19189
      H   12    0.21523      0.00000     0.78363    0.00115     0.78477
      C   13   -0.17473      1.99912     4.15723    0.01838     6.17473
      H   14    0.22702      0.00000     0.77160    0.00139     0.77298
      C   15   -0.14277      1.99884     4.11695    0.02698     6.14277
      C   16    0.95537      1.99916     2.99372    0.05175     5.04463
      C   17   -0.27705      1.99890     4.24681    0.03134     6.27705
      C   18   -0.20576      1.99910     4.18731    0.01936     6.20576
      H   19    0.20498      0.00000     0.79266    0.00236     0.79502
      C   20   -0.17632      1.99917     4.15875    0.01840     6.17632
      H   21    0.21287      0.00000     0.78590    0.00123     0.78713
      C   22   -0.20720      1.99918     4.18861    0.01941     6.20720
      H   23    0.21437      0.00000     0.78447    0.00115     0.78563
      C   24   -0.16409      1.99911     4.14719    0.01779     6.16409
      H   25    0.22598      0.00000     0.77271    0.00131     0.77402
      C   26   -0.14944      1.99885     4.12467    0.02593     6.14944
      C   27    0.95600      1.99914     2.99346    0.05140     5.04400
      C   28   -0.27666      1.99890     4.24642    0.03134     6.27666
      C   29   -0.20602      1.99910     4.18758    0.01934     6.20602
      H   30    0.20499      0.00000     0.79265    0.00236     0.79501
      C   31   -0.17610      1.99917     4.15854    0.01838     6.17610
      H   32    0.21284      0.00000     0.78593    0.00123     0.78716
      C   33   -0.20726      1.99918     4.18867    0.01941     6.20726
      H   34    0.21438      0.00000     0.78446    0.00115     0.78562
      C   35   -0.16431      1.99911     4.14739    0.01781     6.16431
      H   36    0.22593      0.00000     0.77276    0.00131     0.77407
      C   37   -0.14935      1.99885     4.12457    0.02593     6.14935
      C   38    0.95598      1.99915     2.99345    0.05143     5.04402
      C   39   -0.29032      1.99891     4.25859    0.03283     6.29032
      C   40   -0.18648      1.99911     4.16713    0.02023     6.18648
      H   41    0.22697      0.00000     0.77161    0.00142     0.77303
      C   42   -0.18562      1.99917     4.16734    0.01911     6.18562
      H   43    0.21587      0.00000     0.78293    0.00120     0.78413
      C   44   -0.19195      1.99918     4.17386    0.01891     6.19195
      H   45    0.21527      0.00000     0.78359    0.00114     0.78473
      C   46   -0.17453      1.99912     4.15701    0.01840     6.17453
      H   47    0.22709      0.00000     0.77152    0.00139     0.77291
      C   48   -0.14330      1.99884     4.11748    0.02698     6.14330
      C   49    0.95546      1.99916     2.99360    0.05178     5.04454
      F   50   -0.32041      1.99993     7.31178    0.00871     9.32041
      F   51   -0.31547      1.99992     7.30749    0.00806     9.31547
      F   52   -0.31399      1.99992     7.30582    0.00825     9.31399
      F   53   -0.32576      1.99993     7.31674    0.00910     9.32576
      F   54   -0.31198      1.99992     7.30357    0.00849     9.31198
      F   55   -0.31515      1.99992     7.30710    0.00813     9.31515
      F   56   -0.32616      1.99993     7.31714    0.00909     9.32616
      F   57   -0.31160      1.99992     7.30317    0.00851     9.31160
      F   58   -0.31498      1.99992     7.30692    0.00814     9.31498
      F   59   -0.32053      1.99993     7.31190    0.00871     9.32053
      F   60   -0.31380      1.99992     7.30562    0.00826     9.31380
      F   61   -0.31536      1.99992     7.30738    0.00806     9.31536
 =======================================================================
   * Total *   -0.00000    101.96864   227.06421    0.96715   330.00000

 Normal termination of Gaussian 16 at Fri Jan 24 04:16:59 2025.
