 Gaussian 16, Revision B.01,
 Gaussian 16:  ES64L-G16RevB.01 20-Dec-2017

 --------------------------------------------
 # nmr=giao b3lyp/def2TZVP pop=nbo scfcyc=200
 --------------------------------------------

 ---------------
 MB-122 SPE NoRh
 ---------------
 Symbolic Z-matrix:
 Charge =  0 Multiplicity = 1

                         Standard orientation:
 ---------------------------------------------------------------------
 Center     Atomic      Atomic             Coordinates (Angstroms)
 Number     Number       Type             X           Y           Z
 ---------------------------------------------------------------------
      1         15           0       -3.264226    0.317332   -0.611833
      2         15           0       -0.568739    0.111166   -0.990501
      3          6           0        3.246805   -1.570338    0.878873
      4          8           0        0.540861   -0.954351   -1.579547
      5          6           0        2.422700   -0.874495   -0.069854
      6          8           0        0.272425    0.906008    0.191792
      7          6           0       -1.841502   -0.744637    0.036360
      8          1           0       -1.683097   -0.719710    1.114251
      9          1           0       -1.955045   -1.776574   -0.299332
     10          6           0        3.095256   -2.985022    1.037061
     11          6           0        1.432883   -1.597659   -0.702236
     12          6           0        4.830059   -2.999918    2.732353
     13          1           0        5.447757   -3.534807    3.441781
     14          6           0        6.096900    0.920876   -1.636388
     15          1           0        6.932290    0.290688   -1.916504
     16          6           0        4.935147    0.347280   -1.184911
     17          1           0        4.864314   -0.728554   -1.112311
     18          6           0        1.277316   -2.987459   -0.558284
     19          1           0        0.509322   -3.492405   -1.129562
     20          6           0        1.518988    1.435568   -0.174796
     21          6           0        3.917064   -3.673463    1.964110
     22          1           0        3.800393   -4.746470    2.064074
     23          6           0        3.820525    1.143306   -0.817984
     24          6           0        4.186174   -0.904800    1.708568
     25          1           0        4.291482    0.168113    1.636022
     26          6           0        2.586719    0.580009   -0.347975
     27          6           0        4.951795   -1.600916    2.609750
     28          1           0        5.656769   -1.068420    3.236369
     29          6           0        3.929359    2.563418   -0.969239
     30          6           0        5.151202    3.122110   -1.421793
     31          1           0        5.224549    4.199096   -1.517746
     32          6           0        2.111895   -3.669189    0.283672
     33          1           0        2.015594   -4.742583    0.394632
     34          6           0        1.614351    2.831073   -0.316510
     35          1           0        0.741660    3.438575   -0.115609
     36          6           0        6.215233    2.322079   -1.745332
     37          1           0        7.141450    2.759319   -2.094641
     38          6           0        2.810565    3.382913   -0.686347
     39          1           0        2.908351    4.458021   -0.782717
     40          6           0       -4.714830   -0.782116   -0.879405
     41          6           0       -4.552556   -1.958054   -1.621886
     42          6           0       -5.991993   -0.421999   -0.440057
     43          6           0       -5.643887   -2.773230   -1.892606
     44          1           0       -3.576006   -2.239759   -1.999194
     45          6           0       -7.082648   -1.238972   -0.720642
     46          1           0       -6.139595    0.486696    0.128482
     47          6           0       -6.911267   -2.415199   -1.441260
     48          1           0       -5.505526   -3.685822   -2.457622
     49          1           0       -8.066979   -0.954445   -0.370838
     50          1           0       -7.761629   -3.050530   -1.653321
     51          6           0       -3.693521    1.440191    0.775055
     52          6           0       -3.644088    2.822632    0.583004
     53          6           0       -4.043481    0.930888    2.030389
     54          6           0       -3.948743    3.686484    1.630869
     55          1           0       -3.357307    3.223045   -0.381198
     56          6           0       -4.344080    1.796313    3.073886
     57          1           0       -4.089849   -0.138919    2.197942
     58          6           0       -4.297715    3.174577    2.874276
     59          1           0       -3.907624    4.757211    1.475257
     60          1           0       -4.614458    1.397195    4.043943
     61          1           0       -4.532379    3.846813    3.690569
 ---------------------------------------------------------------------

 SCF Done:  E(RB3LYP) =  -2105.72356990     A.U. after   15 cycles

      1  P    Isotropic =   266.7045   Anisotropy =    72.5547

      2  P    Isotropic =    28.4409   Anisotropy =   283.4634

      3  C    Isotropic =    42.3059   Anisotropy =   206.8604

      4  O    Isotropic =   145.1718   Anisotropy =    52.6740

      5  C    Isotropic =    51.0255   Anisotropy =   139.6675

      6  O    Isotropic =   153.1499   Anisotropy =    67.9452

      7  C    Isotropic =   136.8294   Anisotropy =    20.2022

      8  H    Isotropic =    29.2238   Anisotropy =     6.2030

      9  H    Isotropic =    29.5514   Anisotropy =     6.6296

     10  C    Isotropic =    45.3829   Anisotropy =   212.7565

     11  C    Isotropic =    22.8411   Anisotropy =   130.7903

     12  C    Isotropic =    54.3899   Anisotropy =   177.7983

     13  H    Isotropic =    24.2777   Anisotropy =     4.6332

     14  C    Isotropic =    52.4697   Anisotropy =   180.4635

     15  H    Isotropic =    24.4355   Anisotropy =     7.6859

     16  C    Isotropic =    50.3646   Anisotropy =   178.7576

     17  H    Isotropic =    24.4479   Anisotropy =    14.6062

     18  C    Isotropic =    57.5687   Anisotropy =   148.1452

     19  H    Isotropic =    24.1082   Anisotropy =     7.1793

     20  C    Isotropic =    22.2685   Anisotropy =   119.2198

     21  C    Isotropic =    49.5539   Anisotropy =   161.2568

     22  H    Isotropic =    23.7196   Anisotropy =     7.2985

     23  C    Isotropic =    42.3285   Anisotropy =   205.6530

     24  C    Isotropic =    49.9616   Anisotropy =   179.3991

     25  H    Isotropic =    24.4900   Anisotropy =    14.3507

     26  C    Isotropic =    50.7258   Anisotropy =   136.4448

     27  C    Isotropic =    52.4606   Anisotropy =   180.9958

     28  H    Isotropic =    24.4775   Anisotropy =     7.6645

     29  C    Isotropic =    44.4764   Anisotropy =   212.5498

     30  C    Isotropic =    49.3661   Anisotropy =   161.0742

     31  H    Isotropic =    23.7000   Anisotropy =     7.4820

     32  C    Isotropic =    47.9756   Anisotropy =   159.6568

     33  H    Isotropic =    23.6961   Anisotropy =     7.1158

     34  C    Isotropic =    57.3230   Anisotropy =   149.8352

     35  H    Isotropic =    24.2887   Anisotropy =     7.8573

     36  C    Isotropic =    54.2240   Anisotropy =   177.4581

     37  H    Isotropic =    24.2553   Anisotropy =     4.7697

     38  C    Isotropic =    47.5874   Anisotropy =   159.1488

     39  H    Isotropic =    23.6946   Anisotropy =     7.5770

     40  C    Isotropic =    29.7929   Anisotropy =   196.0002

     41  C    Isotropic =    50.3416   Anisotropy =   180.5037

     42  C    Isotropic =    49.3029   Anisotropy =   184.7279

     43  C    Isotropic =    50.0493   Anisotropy =   183.1317

     44  H    Isotropic =    24.1107   Anisotropy =    10.5148

     45  C    Isotropic =    50.0225   Anisotropy =   183.6203

     46  H    Isotropic =    24.8835   Anisotropy =    13.0810

     47  C    Isotropic =    53.0514   Anisotropy =   180.5923

     48  H    Isotropic =    24.2693   Anisotropy =     6.0558

     49  H    Isotropic =    24.5466   Anisotropy =     6.3693

     50  H    Isotropic =    24.5561   Anisotropy =     4.2241

     51  C    Isotropic =    38.1177   Anisotropy =   201.2309

     52  C    Isotropic =    39.4692   Anisotropy =   182.5056

     53  C    Isotropic =    38.6872   Anisotropy =   187.5647

     54  C    Isotropic =    50.0284   Anisotropy =   183.9808

     55  H    Isotropic =    23.5758   Anisotropy =     8.2727

     56  C    Isotropic =    48.2113   Anisotropy =   186.5464

     57  H    Isotropic =    23.9070   Anisotropy =    10.3025

     58  C    Isotropic =    47.6683   Anisotropy =   190.7160

     59  H    Isotropic =    24.1183   Anisotropy =     5.0717

     60  H    Isotropic =    24.2236   Anisotropy =     5.9063

     61  H    Isotropic =    24.1786   Anisotropy =     4.2489

 The electronic state is 1-A.
 Alpha  occ. eigenvalues --  -77.10941 -77.05590 -19.15492 -19.15402 -10.24231
 Alpha  occ. eigenvalues --  -10.24136 -10.19618 -10.19553 -10.19492 -10.19405
 Alpha  occ. eigenvalues --  -10.19066 -10.18992 -10.18924 -10.18915 -10.18670
 Alpha  occ. eigenvalues --  -10.18659 -10.18629 -10.18614 -10.18438 -10.18427
 Alpha  occ. eigenvalues --  -10.18426 -10.18418 -10.18358 -10.18149 -10.18096
 Alpha  occ. eigenvalues --  -10.18052 -10.17943 -10.17907 -10.17876 -10.17817
 Alpha  occ. eigenvalues --  -10.17785 -10.17784 -10.17723 -10.17704 -10.17686
 Alpha  occ. eigenvalues --  -10.17589 -10.17567  -6.58612  -6.54159  -4.74959
 Alpha  occ. eigenvalues --   -4.74730  -4.74119  -4.70326  -4.70270  -4.69793
 Alpha  occ. eigenvalues --   -1.07071  -1.03435  -0.89065  -0.87761  -0.86866
 Alpha  occ. eigenvalues --   -0.86037  -0.83494  -0.82535  -0.80364  -0.77945
 Alpha  occ. eigenvalues --   -0.76742  -0.75846  -0.75563  -0.75229  -0.74932
 Alpha  occ. eigenvalues --   -0.74520  -0.74151  -0.73108  -0.71443  -0.66062
 Alpha  occ. eigenvalues --   -0.63953  -0.63173  -0.62893  -0.61827  -0.61649
 Alpha  occ. eigenvalues --   -0.61609  -0.61043  -0.60457  -0.58398  -0.58278
 Alpha  occ. eigenvalues --   -0.56221  -0.54473  -0.53446  -0.52709  -0.52691
 Alpha  occ. eigenvalues --   -0.51523  -0.50854  -0.50106  -0.48501  -0.47094
 Alpha  occ. eigenvalues --   -0.46707  -0.46532  -0.46390  -0.45857  -0.45688
 Alpha  occ. eigenvalues --   -0.45524  -0.45028  -0.44551  -0.44285  -0.43897
 Alpha  occ. eigenvalues --   -0.43335  -0.43229  -0.42879  -0.42836  -0.42607
 Alpha  occ. eigenvalues --   -0.42409  -0.42053  -0.40400  -0.39994  -0.39752
 Alpha  occ. eigenvalues --   -0.39299  -0.38982  -0.38273  -0.37910  -0.37471
 Alpha  occ. eigenvalues --   -0.36074  -0.35807  -0.35738  -0.35320  -0.35188
 Alpha  occ. eigenvalues --   -0.34969  -0.34206  -0.33588  -0.32969  -0.32710
 Alpha  occ. eigenvalues --   -0.32310  -0.31918  -0.29949  -0.28827  -0.27721
 Alpha  occ. eigenvalues --   -0.26868  -0.26572  -0.26067  -0.25236  -0.24985
 Alpha  occ. eigenvalues --   -0.23608  -0.22744  -0.21830  -0.19778
 Alpha virt. eigenvalues --   -0.06027  -0.04889  -0.04084  -0.02678  -0.02490
 Alpha virt. eigenvalues --   -0.02433  -0.02184  -0.01618   0.00018   0.00776
 Alpha virt. eigenvalues --    0.01968   0.03377   0.03901   0.04615   0.04898

 Mulliken charges:
               1
     1  P    0.162439
     2  P    0.444959
     3  C   -0.091935
     4  O   -0.351446
     5  C    0.119675
     6  O   -0.363732
     7  C   -0.362201
     8  H    0.136277
     9  H    0.134549
    10  C    0.147178
    11  C    0.218541
    12  C   -0.108656
    13  H    0.107495
    14  C   -0.102383
    15  H    0.109271
    16  C   -0.174748
    17  H    0.133775
    18  C   -0.230530
    19  H    0.110940
    20  C    0.281473
    21  C   -0.161629
    22  H    0.100569
    23  C   -0.094678
    24  C   -0.176605
    25  H    0.135948
    26  C    0.125212
    27  C   -0.102749
    28  H    0.109734
    29  C    0.151071
    30  C   -0.161435
    31  H    0.100646
    32  C   -0.164292
    33  H    0.102355
    34  C   -0.251781
    35  H    0.116320
    36  C   -0.107932
    37  H    0.107264
    38  C   -0.162186
    39  H    0.102114
    40  C    0.073475
    41  C   -0.203646
    42  C   -0.166667
    43  C   -0.119118
    44  H    0.114118
    45  C   -0.123164
    46  H    0.139017
    47  C   -0.107242
    48  H    0.107805
    49  H    0.108231
    50  H    0.108130
    51  C    0.048656
    52  C   -0.156274
    53  C   -0.205768
    54  C   -0.103473
    55  H    0.120438
    56  C   -0.091571
    57  H    0.127966
    58  C   -0.098224
    59  H    0.112457
    60  H    0.111822
    61  H    0.114147
 Sum of Mulliken charges =  -0.00000

 Dipole moment (field-independent basis, Debye):
    X=             -0.0329    Y=             -0.4671    Z=              2.5263  Tot=              2.5693
 Quadrupole moment (field-independent basis, Debye-Ang):
   XX=           -209.0159   YY=           -202.3486   ZZ=           -230.9055
   XY=              1.7538   XZ=             -5.4528   YZ=              3.2416

 Summary of Natural Population Analysis:

                                       Natural Population
                Natural  -----------------------------------------------
    Atom  No    Charge         Core      Valence    Rydberg      Total
 -----------------------------------------------------------------------
      P    1    0.81347      9.99816     4.15402    0.03435    14.18653
      P    2    1.36881      9.99847     3.55416    0.07856    13.63119
      C    3   -0.02949      1.99902     4.01116    0.01932     6.02949
      O    4   -0.75954      1.99980     6.73455    0.02519     8.75954
      C    5   -0.07175      1.99883     4.05037    0.02255     6.07175
      O    6   -0.76785      1.99979     6.74095    0.02712     8.76785
      C    7   -1.07382      1.99946     5.04213    0.03222     7.07382
      H    8    0.25885      0.00000     0.73879    0.00237     0.74115
      H    9    0.25795      0.00000     0.74035    0.00170     0.74205
      C   10   -0.07097      1.99907     4.05292    0.01897     6.07097
      C   11    0.28271      1.99861     3.69550    0.02318     5.71729
      C   12   -0.21118      1.99918     4.19286    0.01915     6.21118
      H   13    0.20937      0.00000     0.78948    0.00115     0.79063
      C   14   -0.19631      1.99919     4.17880    0.01832     6.19631
      H   15    0.20931      0.00000     0.78950    0.00119     0.79069
      C   16   -0.18800      1.99911     4.17076    0.01813     6.18800
      H   17    0.21812      0.00000     0.78040    0.00148     0.78188
      C   18   -0.23868      1.99905     4.22009    0.01953     6.23868
      H   19    0.22145      0.00000     0.77732    0.00123     0.77855
      C   20    0.28902      1.99862     3.68804    0.02432     5.71098
      C   21   -0.17280      1.99913     4.15530    0.01837     6.17280
      H   22    0.20592      0.00000     0.79267    0.00140     0.79408
      C   23   -0.03104      1.99901     4.01280    0.01923     6.03104
      C   24   -0.18795      1.99911     4.17071    0.01814     6.18795
      H   25    0.21912      0.00000     0.77941    0.00147     0.78088
      C   26   -0.06876      1.99883     4.04803    0.02190     6.06876
      C   27   -0.19613      1.99919     4.17862    0.01832     6.19613
      H   28    0.20946      0.00000     0.78935    0.00119     0.79054
      C   29   -0.06878      1.99907     4.05083    0.01888     6.06878
      C   30   -0.17258      1.99913     4.15511    0.01835     6.17258
      H   31    0.20603      0.00000     0.79256    0.00140     0.79397
      C   32   -0.15867      1.99913     4.14139    0.01815     6.15867
      H   33    0.20850      0.00000     0.79017    0.00133     0.79150
      C   34   -0.23291      1.99904     4.21448    0.01939     6.23291
      H   35    0.22586      0.00000     0.77290    0.00124     0.77414
      C   36   -0.21088      1.99918     4.19257    0.01913     6.21088
      H   37    0.20928      0.00000     0.78957    0.00115     0.79072
      C   38   -0.15798      1.99914     4.14083    0.01802     6.15798
      H   39    0.20891      0.00000     0.78977    0.00133     0.79109
      C   40   -0.31354      1.99899     4.28523    0.02932     6.31354
      C   41   -0.21212      1.99908     4.19309    0.01994     6.21212
      C   42   -0.21240      1.99908     4.19329    0.02004     6.21240
      C   43   -0.19522      1.99919     4.17711    0.01892     6.19522
      H   44    0.20186      0.00000     0.79597    0.00217     0.79814
      C   45   -0.19414      1.99919     4.17607    0.01888     6.19414
      H   46    0.21495      0.00000     0.78322    0.00183     0.78505
      C   47   -0.21490      1.99919     4.19612    0.01959     6.21490
      H   48    0.20847      0.00000     0.79022    0.00130     0.79153
      H   49    0.20814      0.00000     0.79055    0.00131     0.79186
      H   50    0.20810      0.00000     0.79071    0.00119     0.79190
      C   51   -0.33840      1.99901     4.30636    0.03303     6.33840
      C   52   -0.18398      1.99910     4.16427    0.02061     6.18398
      C   53   -0.19119      1.99908     4.17193    0.02018     6.19119
      C   54   -0.20612      1.99918     4.18751    0.01943     6.20612
      H   55    0.21995      0.00000     0.77848    0.00158     0.78005
      C   56   -0.20447      1.99919     4.18622    0.01906     6.20447
      H   57    0.21084      0.00000     0.78684    0.00232     0.78916
      C   58   -0.19247      1.99919     4.17435    0.01893     6.19247
      H   59    0.21094      0.00000     0.78780    0.00126     0.78906
      H   60    0.20981      0.00000     0.78883    0.00136     0.79019
      H   61    0.20985      0.00000     0.78898    0.00116     0.79015
 =======================================================================
   * Total *    0.00000     89.96581   177.15238    0.88182   268.00000

 Normal termination of Gaussian 16 at Fri Jan 24 03:46:05 2025.
