 Gaussian 16, Revision B.01,
 Gaussian 16:  ES64L-G16RevB.01 20-Dec-2017

 --------------------------------------------
 # nmr=giao b3lyp/def2TZVP pop=nbo scfcyc=200
 --------------------------------------------

 ---------------
 MB-119 SPE NoRh
 ---------------
 Symbolic Z-matrix:
 Charge =  0 Multiplicity = 1

                         Standard orientation:
 ---------------------------------------------------------------------
 Center     Atomic      Atomic             Coordinates (Angstroms)
 Number     Number       Type             X           Y           Z
 ---------------------------------------------------------------------
      1         15           0       -1.252224    0.024843   -1.256216
      2         15           0        1.166907    0.134637   -0.105050
      3          8           0       -1.832338   -1.501155   -1.347474
      4          8           0        1.476038   -1.330938    0.585090
      5          8           0       -2.570466    0.982418   -1.473390
      6          8           0        1.975400    1.220115    0.830787
      7          6           0       -0.585930    0.309906    0.458123
      8          6           0        2.587621   -2.134065    0.292188
      9          6           0        3.630725   -2.176312    1.207214
     10          6           0        4.705659   -3.027426    0.963598
     11          6           0        4.726916   -3.824342   -0.176620
     12          6           0        3.665239   -3.778585   -1.074890
     13          6           0        2.582507   -2.934261   -0.842854
     14          6           0        3.068741    1.987322    0.408517
     15          6           0        4.293379    1.393680    0.130973
     16          6           0        5.367303    2.201518   -0.234078
     17          6           0        5.216690    3.582191   -0.309710
     18          6           0        3.984601    4.160735   -0.015358
     19          6           0        2.902036    3.365289    0.344619
     20          6           0       -3.107526    1.916003   -0.572176
     21          6           0       -2.968285    3.263446   -0.875799
     22          6           0       -3.538199    4.209798   -0.030330
     23          6           0       -4.236588    3.806019    1.104104
     24          6           0       -4.369340    2.451765    1.390683
     25          6           0       -3.807015    1.493638    0.550668
     26          6           0       -2.832283   -2.057538   -0.525418
     27          6           0       -2.447930   -2.807013    0.578213
     28          6           0       -3.432665   -3.418290    1.349670
     29          6           0       -4.774592   -3.286024    1.008382
     30          6           0       -5.137082   -2.541583   -0.111082
     31          6           0       -4.164256   -1.924174   -0.890638
     32          1           0       -0.898678   -0.380330    1.241021
     33          1           0       -0.773549    1.338386    0.768466
     34          1           0        3.587245   -1.564710    2.099020
     35          1           0        5.520632   -3.071839    1.674187
     36          1           0        5.561385   -4.488889   -0.357926
     37          1           0        3.668859   -4.414021   -1.951695
     38          1           0        1.736256   -2.908492   -1.517123
     39          1           0        4.412246    0.320848    0.219061
     40          1           0        6.325667    1.746724   -0.447990
     41          1           0        6.057615    4.205081   -0.584944
     42          1           0        3.865283    5.236488   -0.059080
     43          1           0        1.941866    3.799530    0.588470
     44          1           0       -2.433425    3.560399   -1.769300
     45          1           0       -3.441662    5.262318   -0.263334
     46          1           0       -4.680245    4.544998    1.758403
     47          1           0       -4.920531    2.131992    2.265730
     48          1           0       -3.928166    0.438193    0.752824
     49          1           0       -1.397828   -2.924470    0.814165
     50          1           0       -3.145106   -4.009865    2.209553
     51          1           0       -5.536071   -3.768500    1.607132
     52          1           0       -6.179785   -2.448031   -0.386881
     53          1           0       -4.429684   -1.351721   -1.768893
 ---------------------------------------------------------------------

 SCF Done:  E(RB3LYP) =  -1950.08436803     A.U. after   14 cycles

      1  P    Isotropic =    76.5617   Anisotropy =   244.6784

      2  P    Isotropic =    61.6869   Anisotropy =   269.2141

      3  O    Isotropic =   161.4000   Anisotropy =    81.1394

      4  O    Isotropic =   132.8808   Anisotropy =    97.4089

      5  O    Isotropic =   165.8120   Anisotropy =   123.7641

      6  O    Isotropic =   126.4345   Anisotropy =   109.5700

      7  C    Isotropic =   138.4561   Anisotropy =    32.2536

      8  C    Isotropic =    17.7650   Anisotropy =   127.0279

      9  C    Isotropic =    55.5000   Anisotropy =   157.8224

     10  C    Isotropic =    48.8002   Anisotropy =   183.7462

     11  C    Isotropic =    53.9364   Anisotropy =   181.2114

     12  C    Isotropic =    47.2053   Anisotropy =   185.5890

     13  C    Isotropic =    55.3654   Anisotropy =   158.7509

     14  C    Isotropic =    17.3426   Anisotropy =   127.6520

     15  C    Isotropic =    56.9515   Anisotropy =   153.4167

     16  C    Isotropic =    48.4548   Anisotropy =   183.3829

     17  C    Isotropic =    54.7720   Anisotropy =   179.6272

     18  C    Isotropic =    49.0333   Anisotropy =   182.4037

     19  C    Isotropic =    57.1951   Anisotropy =   152.2180

     20  C    Isotropic =    19.7052   Anisotropy =   126.1484

     21  C    Isotropic =    56.8638   Anisotropy =   154.8108

     22  C    Isotropic =    48.2534   Anisotropy =   184.3780

     23  C    Isotropic =    54.5997   Anisotropy =   180.7932

     24  C    Isotropic =    48.3544   Anisotropy =   184.4124

     25  C    Isotropic =    55.1564   Anisotropy =   160.1499

     26  C    Isotropic =    19.1766   Anisotropy =   128.0369

     27  C    Isotropic =    54.9574   Anisotropy =   160.2394

     28  C    Isotropic =    48.2010   Anisotropy =   184.9296

     29  C    Isotropic =    53.9483   Anisotropy =   181.9573

     30  C    Isotropic =    47.7727   Anisotropy =   185.8848

     31  C    Isotropic =    54.4007   Anisotropy =   160.4690

     32  H    Isotropic =    28.9357   Anisotropy =     3.1733

     33  H    Isotropic =    30.4628   Anisotropy =     8.7311

     34  H    Isotropic =    24.3757   Anisotropy =     7.8078

     35  H    Isotropic =    24.2313   Anisotropy =     5.2514

     36  H    Isotropic =    24.4207   Anisotropy =     4.0466

     37  H    Isotropic =    24.1640   Anisotropy =     5.7899

     38  H    Isotropic =    24.3076   Anisotropy =     7.7102

     39  H    Isotropic =    25.0725   Anisotropy =     8.1711

     40  H    Isotropic =    24.6258   Anisotropy =     7.1478

     41  H    Isotropic =    24.7101   Anisotropy =     4.4773

     42  H    Isotropic =    24.4852   Anisotropy =     5.5795

     43  H    Isotropic =    24.9198   Anisotropy =     7.6390

     44  H    Isotropic =    24.5953   Anisotropy =     7.0587

     45  H    Isotropic =    24.3433   Anisotropy =     4.6225

     46  H    Isotropic =    24.6437   Anisotropy =     4.2600

     47  H    Isotropic =    24.6113   Anisotropy =     7.2427

     48  H    Isotropic =    25.6027   Anisotropy =     8.3761

     49  H    Isotropic =    24.4011   Anisotropy =     6.7100

     50  H    Isotropic =    24.2209   Anisotropy =     6.1703

     51  H    Isotropic =    24.4211   Anisotropy =     4.0162

     52  H    Isotropic =    24.2068   Anisotropy =     5.1327

     53  H    Isotropic =    24.2628   Anisotropy =     7.4940

 The electronic state is 1-A.
 Alpha  occ. eigenvalues --  -77.11660 -77.11508 -19.16002 -19.15732 -19.15569
 Alpha  occ. eigenvalues --  -19.15291 -10.24493 -10.24277 -10.24241 -10.24017
 Alpha  occ. eigenvalues --  -10.18699 -10.18680 -10.18675 -10.18664 -10.18428
 Alpha  occ. eigenvalues --  -10.18420 -10.18374 -10.18338 -10.18329 -10.18327
 Alpha  occ. eigenvalues --  -10.18224 -10.18218 -10.18130 -10.18130 -10.18076
 Alpha  occ. eigenvalues --  -10.18061 -10.18025 -10.17894 -10.17751 -10.17682
 Alpha  occ. eigenvalues --  -10.17510  -6.59286  -6.59152  -4.75581  -4.75461
 Alpha  occ. eigenvalues --   -4.75428  -4.75316  -4.74843  -4.74663  -1.06745
 Alpha  occ. eigenvalues --   -1.06364  -1.03960  -1.03776  -0.86761  -0.86436
 Alpha  occ. eigenvalues --   -0.86376  -0.85851  -0.77623  -0.76220  -0.76112
 Alpha  occ. eigenvalues --   -0.76009  -0.75853  -0.75498  -0.74983  -0.74475
 Alpha  occ. eigenvalues --   -0.73556  -0.65723  -0.63809  -0.62558  -0.62335
 Alpha  occ. eigenvalues --   -0.62279  -0.61768  -0.61685  -0.61214  -0.57894
 Alpha  occ. eigenvalues --   -0.57379  -0.55160  -0.54696  -0.51800  -0.51597
 Alpha  occ. eigenvalues --   -0.50291  -0.49730  -0.49248  -0.48116  -0.48021
 Alpha  occ. eigenvalues --   -0.47593  -0.47445  -0.46405  -0.45980  -0.45480
 Alpha  occ. eigenvalues --   -0.45073  -0.44811  -0.44632  -0.44068  -0.43764
 Alpha  occ. eigenvalues --   -0.43549  -0.43385  -0.43049  -0.42760  -0.41879
 Alpha  occ. eigenvalues --   -0.39212  -0.38257  -0.37978  -0.37900  -0.37673
 Alpha  occ. eigenvalues --   -0.37483  -0.37173  -0.37073  -0.36745  -0.36350
 Alpha  occ. eigenvalues --   -0.36171  -0.35883  -0.34941  -0.33955  -0.33418
 Alpha  occ. eigenvalues --   -0.32281  -0.31817  -0.27100  -0.26800  -0.26677
 Alpha  occ. eigenvalues --   -0.26260  -0.25896  -0.25737  -0.25562  -0.24970
 Alpha  occ. eigenvalues --   -0.24132  -0.20652
 Alpha virt. eigenvalues --   -0.02849  -0.02697  -0.02418  -0.02231  -0.01961
 Alpha virt. eigenvalues --   -0.01734  -0.01473  -0.01111  -0.00151   0.02328
 Alpha virt. eigenvalues --    0.03843   0.04235   0.04417   0.04552   0.05431

 Mulliken charges:
               1
     1  P    0.406502
     2  P    0.445061
     3  O   -0.342743
     4  O   -0.364341
     5  O   -0.356393
     6  O   -0.355439
     7  C   -0.365233
     8  C    0.307589
     9  C   -0.252895
    10  C   -0.068505
    11  C   -0.126429
    12  C   -0.084743
    13  C   -0.206708
    14  C    0.261435
    15  C   -0.171592
    16  C   -0.133443
    17  C   -0.106421
    18  C   -0.101120
    19  C   -0.191197
    20  C    0.158748
    21  C   -0.163668
    22  C   -0.102136
    23  C   -0.105752
    24  C   -0.130734
    25  C   -0.121679
    26  C    0.227591
    27  C   -0.196386
    28  C   -0.099365
    29  C   -0.118166
    30  C   -0.079124
    31  C   -0.200539
    32  H    0.137781
    33  H    0.154825
    34  H    0.122727
    35  H    0.113483
    36  H    0.110767
    37  H    0.114908
    38  H    0.128640
    39  H    0.163989
    40  H    0.111508
    41  H    0.108371
    42  H    0.109739
    43  H    0.110566
    44  H    0.125554
    45  H    0.113622
    46  H    0.111158
    47  H    0.113783
    48  H    0.163775
    49  H    0.154824
    50  H    0.115238
    51  H    0.111953
    52  H    0.115317
    53  H    0.125296
 Sum of Mulliken charges =  -0.00000

 Dipole moment (field-independent basis, Debye):
    X=             -0.5313    Y=              0.3780    Z=              2.1703  Tot=              2.2661
 Quadrupole moment (field-independent basis, Debye-Ang):
   XX=           -172.0509   YY=           -177.7240   ZZ=           -198.0075
   XY=             -3.6525   XZ=             -6.9375   YZ=             -1.9386

 Summary of Natural Population Analysis:

                                       Natural Population
                Natural  -----------------------------------------------
    Atom  No    Charge         Core      Valence    Rydberg      Total
 -----------------------------------------------------------------------
      P    1    1.36088      9.99840     3.56070    0.08002    13.63912
      P    2    1.33394      9.99841     3.58448    0.08318    13.66606
      O    3   -0.75977      1.99979     6.73454    0.02545     8.75977
      O    4   -0.77419      1.99976     6.74888    0.02554     8.77419
      O    5   -0.76719      1.99977     6.74347    0.02395     8.76719
      O    6   -0.77239      1.99975     6.74769    0.02494     8.77239
      C    7   -1.14694      1.99948     5.11570    0.03176     7.14694
      C    8    0.27076      1.99868     3.70409    0.02647     5.72924
      C    9   -0.25323      1.99902     4.23460    0.01960     6.25323
      C   10   -0.19272      1.99920     4.17494    0.01858     6.19272
      C   11   -0.22172      1.99919     4.20329    0.01924     6.22172
      C   12   -0.18839      1.99921     4.17011    0.01908     6.18839
      C   13   -0.24522      1.99903     4.22711    0.01909     6.24522
      C   14    0.28241      1.99868     3.69538    0.02353     5.71759
      C   15   -0.25769      1.99900     4.23802    0.02067     6.25769
      C   16   -0.18748      1.99921     4.16931    0.01896     6.18748
      C   17   -0.22357      1.99919     4.20487    0.01951     6.22357
      C   18   -0.19080      1.99920     4.17240    0.01919     6.19080
      C   19   -0.24307      1.99903     4.22426    0.01978     6.24307
      C   20    0.26805      1.99867     3.70811    0.02517     5.73195
      C   21   -0.24860      1.99903     4.23017    0.01940     6.24860
      C   22   -0.18975      1.99920     4.17152    0.01902     6.18975
      C   23   -0.22269      1.99919     4.20421    0.01929     6.22269
      C   24   -0.18844      1.99921     4.17052    0.01871     6.18844
      C   25   -0.25865      1.99901     4.24020    0.01944     6.25865
      C   26    0.25970      1.99867     3.71825    0.02338     5.74030
      C   27   -0.25297      1.99902     4.23407    0.01987     6.25297
      C   28   -0.19064      1.99921     4.17277    0.01867     6.19064
      C   29   -0.22180      1.99919     4.20338    0.01923     6.22180
      C   30   -0.19126      1.99921     4.17351    0.01855     6.19126
      C   31   -0.24978      1.99902     4.23085    0.01990     6.24978
      H   32    0.26598      0.00000     0.73165    0.00237     0.73402
      H   33    0.27274      0.00000     0.72570    0.00155     0.72726
      H   34    0.22351      0.00000     0.77477    0.00171     0.77649
      H   35    0.21041      0.00000     0.78834    0.00125     0.78959
      H   36    0.21026      0.00000     0.78861    0.00114     0.78974
      H   37    0.21149      0.00000     0.78732    0.00119     0.78851
      H   38    0.22741      0.00000     0.77112    0.00147     0.77259
      H   39    0.22343      0.00000     0.77409    0.00248     0.77657
      H   40    0.20977      0.00000     0.78894    0.00129     0.79023
      H   41    0.20921      0.00000     0.78958    0.00120     0.79079
      H   42    0.20922      0.00000     0.78957    0.00121     0.79078
      H   43    0.21841      0.00000     0.78012    0.00148     0.78159
      H   44    0.22422      0.00000     0.77446    0.00132     0.77578
      H   45    0.21108      0.00000     0.78775    0.00118     0.78892
      H   46    0.21063      0.00000     0.78824    0.00113     0.78937
      H   47    0.21089      0.00000     0.78785    0.00126     0.78911
      H   48    0.22645      0.00000     0.77179    0.00176     0.77355
      H   49    0.22561      0.00000     0.77272    0.00167     0.77439
      H   50    0.21156      0.00000     0.78724    0.00120     0.78844
      H   51    0.21086      0.00000     0.78801    0.00112     0.78914
      H   52    0.21182      0.00000     0.78697    0.00120     0.78818
      H   53    0.22821      0.00000     0.77029    0.00150     0.77179
 =======================================================================
   * Total *   -0.00000     77.97261   155.21653    0.81086   234.00000

 Normal termination of Gaussian 16 at Fri Jan 24 02:54:49 2025.
