 Gaussian 16, Revision B.01,
 Gaussian 16:  ES64L-G16RevB.01 20-Dec-2017

 --------------------------------------------
 # nmr=giao b3lyp/def2TZVP pop=nbo scfcyc=200
 --------------------------------------------

 ---------------
 MB-125 SPE NoRh
 ---------------
 Symbolic Z-matrix:
 Charge =  0 Multiplicity = 1

                         Standard orientation:
 ---------------------------------------------------------------------
 Center     Atomic      Atomic             Coordinates (Angstroms)
 Number     Number       Type             X           Y           Z
 ---------------------------------------------------------------------
      1         15           0       -1.476296   -0.559414    0.715051
      2          6           0       -2.982606   -1.635741    0.354048
      3          6           0       -2.835041   -2.984510   -0.046846
      4          6           0       -3.962038   -3.738028   -0.376199
      5          1           0       -3.818555   -4.766315   -0.689525
      6          6           0       -5.250801   -3.228641   -0.295352
      7          6           0       -5.386133   -1.938697    0.204455
      8          1           0       -6.381542   -1.537920    0.355612
      9          6           0       -4.299183   -1.137577    0.551816
     10          6           0       -1.519673   -3.720269   -0.123012
     11          1           0       -0.788935   -3.348472    0.593570
     12          1           0       -1.085765   -3.669380   -1.124333
     13          1           0       -1.679844   -4.777100    0.092642
     14          6           0       -6.448347   -4.042089   -0.705366
     15          1           0       -6.250594   -5.111668   -0.627177
     16          1           0       -6.716942   -3.832926   -1.744803
     17          1           0       -7.318173   -3.808100   -0.091125
     18          6           0       -4.650291    0.194260    1.174719
     19          1           0       -4.555207    1.025012    0.477491
     20          1           0       -4.031813    0.418441    2.041145
     21          1           0       -5.684691    0.166741    1.517104
     22          6           0       -1.942731    1.201520    0.311651
     23          6           0       -2.249080    1.557464   -1.023120
     24          6           0       -2.507872    2.894717   -1.326518
     25          1           0       -2.738467    3.154077   -2.353943
     26          6           0       -2.488812    3.896367   -0.364254
     27          6           0       -2.230356    3.519125    0.949793
     28          1           0       -2.243431    4.276073    1.727099
     29          6           0       -1.976955    2.198466    1.314457
     30          6           0       -2.359754    0.587796   -2.181879
     31          1           0       -2.500497   -0.445140   -1.876449
     32          1           0       -1.479250    0.637778   -2.828611
     33          1           0       -3.216127    0.859172   -2.800657
     34          6           0       -2.787099    5.329365   -0.719208
     35          1           0       -2.583613    5.530372   -1.770770
     36          1           0       -2.195075    6.019103   -0.117069
     37          1           0       -3.840982    5.560800   -0.538707
     38          6           0       -1.855455    1.926356    2.793099
     39          1           0       -1.183332    1.101151    3.023410
     40          1           0       -2.832772    1.676163    3.217775
     41          1           0       -1.503602    2.812952    3.319204
     42          6           0       -0.074359   -0.860842   -0.517025
     43          1           0       -0.113414   -0.210772   -1.384018
     44          1           0       -0.080789   -1.888452   -0.843446
     45         15           0        1.400601   -0.489892    0.610023
     46          6           0        1.894464    1.216917    0.006622
     47          6           0        2.332881    1.377645   -1.337289
     48          6           0        2.639100    2.652539   -1.801877
     49          1           0        2.970270    2.760545   -2.828425
     50          6           0        2.548454    3.788347   -0.998257
     51          6           0        2.151208    3.606450    0.315690
     52          1           0        2.089117    4.467757    0.972949
     53          6           0        1.831606    2.350013    0.840728
     54          6           0        2.550678    0.241048   -2.309590
     55          1           0        3.414802   -0.360915   -2.026175
     56          1           0        2.735112    0.637243   -3.307528
     57          1           0        1.700082   -0.434989   -2.384723
     58          6           0        2.865397    5.152434   -1.548164
     59          1           0        3.788377    5.140389   -2.132330
     60          1           0        2.977162    5.888565   -0.751787
     61          1           0        2.068452    5.499215   -2.211680
     62          6           0        1.502551    2.328726    2.311751
     63          1           0        2.416707    2.432298    2.904131
     64          1           0        1.002925    1.416084    2.627094
     65          1           0        0.861142    3.171576    2.568586
     66          6           0        2.938793   -1.548707    0.337302
     67          6           0        4.091654   -1.129015    1.048657
     68          6           0        5.272132   -1.866950    0.955253
     69          1           0        6.135917   -1.522605    1.512005
     70          6           0        5.376539   -3.015455    0.183982
     71          6           0        4.235504   -3.421135   -0.498462
     72          1           0        4.280182   -4.319405   -1.103841
     73          6           0        3.026206   -2.727536   -0.442137
     74          6           0        4.159827    0.111784    1.904114
     75          1           0        3.235470    0.308498    2.440362
     76          1           0        4.375351    0.996402    1.302246
     77          1           0        4.954652    0.011455    2.643512
     78          6           0        6.670115   -3.775871    0.071330
     79          1           0        7.295367   -3.631225    0.952156
     80          1           0        7.242586   -3.436225   -0.797123
     81          1           0        6.495239   -4.845000   -0.053025
     82          6           0        1.899694   -3.325183   -1.246609
     83          1           0        2.252906   -4.207636   -1.778739
     84          1           0        1.508898   -2.637515   -1.997143
     85          1           0        1.076829   -3.647058   -0.610871
 ---------------------------------------------------------------------

 SCF Done:  E(RB3LYP) =  -2120.91391814     A.U. after   14 cycles

      1  P    Isotropic =   256.2083   Anisotropy =    89.8872

      2  C    Isotropic =    33.6733   Anisotropy =   162.8321

      3  C    Isotropic =    38.9323   Anisotropy =   184.9561

      4  C    Isotropic =    48.5413   Anisotropy =   130.4227

      5  H    Isotropic =    24.8896   Anisotropy =     9.9199

      6  C    Isotropic =    41.4280   Anisotropy =   190.3596

      7  C    Isotropic =    46.9324   Anisotropy =   128.6371

      8  H    Isotropic =    25.1177   Anisotropy =    10.0537

      9  C    Isotropic =    37.4451   Anisotropy =   186.0823

     10  C    Isotropic =   152.6972   Anisotropy =    28.8858

     11  H    Isotropic =    29.3753   Anisotropy =     6.1193

     12  H    Isotropic =    28.9280   Anisotropy =     6.8661

     13  H    Isotropic =    29.2598   Anisotropy =     7.9711

     14  C    Isotropic =   160.9747   Anisotropy =    42.4085

     15  H    Isotropic =    29.8252   Anisotropy =     7.7502

     16  H    Isotropic =    29.5119   Anisotropy =     8.7927

     17  H    Isotropic =    29.7680   Anisotropy =     8.0464

     18  C    Isotropic =   157.5010   Anisotropy =    28.0666

     19  H    Isotropic =    30.9348   Anisotropy =    10.9121

     20  H    Isotropic =    30.2197   Anisotropy =     7.7151

     21  H    Isotropic =    30.3541   Anisotropy =     9.9223

     22  C    Isotropic =    39.9213   Anisotropy =   168.2367

     23  C    Isotropic =    28.8564   Anisotropy =   197.0721

     24  C    Isotropic =    48.7353   Anisotropy =   143.1696

     25  H    Isotropic =    25.1117   Anisotropy =     8.9484

     26  C    Isotropic =    36.7633   Anisotropy =   200.3167

     27  C    Isotropic =    48.9432   Anisotropy =   139.7756

     28  H    Isotropic =    24.8425   Anisotropy =     8.2887

     29  C    Isotropic =    30.7302   Anisotropy =   200.9125

     30  C    Isotropic =   158.1656   Anisotropy =    29.2029

     31  H    Isotropic =    29.9481   Anisotropy =     8.6954

     32  H    Isotropic =    29.6925   Anisotropy =     5.3941

     33  H    Isotropic =    30.0595   Anisotropy =     8.4849

     34  C    Isotropic =   161.1936   Anisotropy =    41.5740

     35  H    Isotropic =    30.0576   Anisotropy =     7.0578

     36  H    Isotropic =    29.8150   Anisotropy =     6.9233

     37  H    Isotropic =    29.4777   Anisotropy =     9.7554

     38  C    Isotropic =   155.6497   Anisotropy =    25.9894

     39  H    Isotropic =    28.0247   Anisotropy =     5.0730

     40  H    Isotropic =    29.3589   Anisotropy =     7.7086

     41  H    Isotropic =    29.5167   Anisotropy =     6.5260

     42  C    Isotropic =   146.0571   Anisotropy =    27.2730

     43  H    Isotropic =    29.1935   Anisotropy =     5.9710

     44  H    Isotropic =    27.2164   Anisotropy =     9.4743

     45  P    Isotropic =   254.5668   Anisotropy =    95.9034

     46  C    Isotropic =    38.2779   Anisotropy =   174.8712

     47  C    Isotropic =    29.5459   Anisotropy =   192.4112

     48  C    Isotropic =    48.2227   Anisotropy =   134.8448

     49  H    Isotropic =    25.1172   Anisotropy =     9.3891

     50  C    Isotropic =    37.9502   Anisotropy =   197.8136

     51  C    Isotropic =    49.8313   Anisotropy =   138.1091

     52  H    Isotropic =    25.1781   Anisotropy =     8.6874

     53  C    Isotropic =    31.3751   Anisotropy =   200.2466

     54  C    Isotropic =   158.8166   Anisotropy =    32.4293

     55  H    Isotropic =    30.1014   Anisotropy =     8.7342

     56  H    Isotropic =    30.2240   Anisotropy =     8.9875

     57  H    Isotropic =    29.2645   Anisotropy =     5.2277

     58  C    Isotropic =   160.9377   Anisotropy =    42.0898

     59  H    Isotropic =    29.7634   Anisotropy =     8.9450

     60  H    Isotropic =    30.1289   Anisotropy =     7.3366

     61  H    Isotropic =    29.6709   Anisotropy =     7.6022

     62  C    Isotropic =   157.9528   Anisotropy =    27.0669

     63  H    Isotropic =    29.4714   Anisotropy =     7.7336

     64  H    Isotropic =    28.2020   Anisotropy =     4.6101

     65  H    Isotropic =    29.6266   Anisotropy =     5.7522

     66  C    Isotropic =    37.6000   Anisotropy =   162.4155

     67  C    Isotropic =    36.2286   Anisotropy =   189.0388

     68  C    Isotropic =    47.0470   Anisotropy =   130.3835

     69  H    Isotropic =    25.0121   Anisotropy =    10.0063

     70  C    Isotropic =    40.7161   Anisotropy =   190.8328

     71  C    Isotropic =    47.7459   Anisotropy =   123.2803

     72  H    Isotropic =    24.9650   Anisotropy =     9.8029

     73  C    Isotropic =    35.9899   Anisotropy =   180.7663

     74  C    Isotropic =   159.0886   Anisotropy =    25.8327

     75  H    Isotropic =    29.4891   Anisotropy =     8.1573

     76  H    Isotropic =    30.8674   Anisotropy =     7.3798

     77  H    Isotropic =    30.0383   Anisotropy =     9.7709

     78  C    Isotropic =   161.2727   Anisotropy =    42.0957

     79  H    Isotropic =    29.8838   Anisotropy =     7.9647

     80  H    Isotropic =    29.4866   Anisotropy =     8.8559

     81  H    Isotropic =    29.7438   Anisotropy =     7.9359

     82  C    Isotropic =   155.7732   Anisotropy =    28.9893

     83  H    Isotropic =    29.6090   Anisotropy =     8.3228

     84  H    Isotropic =    28.9537   Anisotropy =     5.0554

     85  H    Isotropic =    28.7712   Anisotropy =    10.9073

 The electronic state is 1-A.
 Alpha  occ. eigenvalues --  -77.04697 -77.04684 -10.18455 -10.18420 -10.18181
 Alpha  occ. eigenvalues --  -10.18165 -10.18155 -10.18100 -10.18075 -10.18036
 Alpha  occ. eigenvalues --  -10.17991 -10.17966 -10.17905 -10.17837 -10.17807
 Alpha  occ. eigenvalues --  -10.17731 -10.17517 -10.17323 -10.17305 -10.16909
 Alpha  occ. eigenvalues --  -10.16777 -10.16726 -10.16518 -10.16474 -10.16448
 Alpha  occ. eigenvalues --  -10.16364 -10.16302 -10.16292 -10.16046 -10.16000
 Alpha  occ. eigenvalues --  -10.15985 -10.15972 -10.15927 -10.15907 -10.15843
 Alpha  occ. eigenvalues --  -10.15841 -10.15659 -10.15654 -10.15539  -6.53127
 Alpha  occ. eigenvalues --   -6.53122  -4.69282  -4.69282  -4.69255  -4.69243
 Alpha  occ. eigenvalues --   -4.68782  -4.68776  -0.86339  -0.86063  -0.85743
 Alpha  occ. eigenvalues --   -0.85634  -0.78990  -0.78472  -0.78351  -0.78193
 Alpha  occ. eigenvalues --   -0.78113  -0.77847  -0.77525  -0.77465  -0.73626
 Alpha  occ. eigenvalues --   -0.70303  -0.70221  -0.69969  -0.69828  -0.69573
 Alpha  occ. eigenvalues --   -0.68339  -0.67899  -0.67728  -0.67545  -0.67304
 Alpha  occ. eigenvalues --   -0.67143  -0.67016  -0.60321  -0.58598  -0.57458
 Alpha  occ. eigenvalues --   -0.57262  -0.57135  -0.57077  -0.56808  -0.56459
 Alpha  occ. eigenvalues --   -0.54138  -0.54047  -0.48773  -0.48565  -0.48525
 Alpha  occ. eigenvalues --   -0.47911  -0.47812  -0.47718  -0.46317  -0.45598
 Alpha  occ. eigenvalues --   -0.45089  -0.43470  -0.43414  -0.43150  -0.43016
 Alpha  occ. eigenvalues --   -0.42851  -0.42702  -0.42510  -0.42394  -0.42062
 Alpha  occ. eigenvalues --   -0.41872  -0.41637  -0.41466  -0.41415  -0.41141
 Alpha  occ. eigenvalues --   -0.40861  -0.40679  -0.40590  -0.40409  -0.40141
 Alpha  occ. eigenvalues --   -0.39840  -0.39761  -0.39621  -0.39554  -0.39356
 Alpha  occ. eigenvalues --   -0.39193  -0.39035  -0.38866  -0.38668  -0.38542
 Alpha  occ. eigenvalues --   -0.37567  -0.37388  -0.36697  -0.36302  -0.36239
 Alpha  occ. eigenvalues --   -0.36042  -0.35772  -0.34357  -0.33989  -0.33954
 Alpha  occ. eigenvalues --   -0.33784  -0.33536  -0.33462  -0.33353  -0.33111
 Alpha  occ. eigenvalues --   -0.32908  -0.31100  -0.30974  -0.30675  -0.25675
 Alpha  occ. eigenvalues --   -0.25241  -0.24390  -0.24132  -0.23812  -0.23613
 Alpha  occ. eigenvalues --   -0.23392  -0.23241  -0.20446  -0.18372
 Alpha virt. eigenvalues --   -0.02842  -0.01916  -0.01494  -0.01327  -0.00917
 Alpha virt. eigenvalues --   -0.00708  -0.00466  -0.00059   0.01691   0.02536
 Alpha virt. eigenvalues --    0.03699   0.04178   0.04542   0.04715   0.04939

 Mulliken charges:
               1
     1  P    0.109025
     2  C   -0.243943
     3  C    0.238444
     4  C   -0.303072
     5  H    0.082851
     6  C    0.202845
     7  C   -0.304949
     8  H    0.081788
     9  C    0.230993
    10  C   -0.482987
    11  H    0.155169
    12  H    0.140757
    13  H    0.125565
    14  C   -0.367946
    15  H    0.113168
    16  H    0.120090
    17  H    0.114909
    18  C   -0.336533
    19  H    0.136901
    20  H    0.103775
    21  H    0.110145
    22  C   -0.245295
    23  C    0.198787
    24  C   -0.337570
    25  H    0.084719
    26  C    0.248145
    27  C   -0.320699
    28  H    0.081248
    29  C    0.291190
    30  C   -0.393712
    31  H    0.161717
    32  H    0.127835
    33  H    0.123377
    34  C   -0.371311
    35  H    0.115993
    36  H    0.117314
    37  H    0.122662
    38  C   -0.369670
    39  H    0.148601
    40  H    0.123852
    41  H    0.108130
    42  C   -0.384018
    43  H    0.137079
    44  H    0.126155
    45  P    0.105894
    46  C   -0.181584
    47  C    0.163651
    48  C   -0.333692
    49  H    0.079245
    50  C    0.245374
    51  C   -0.340575
    52  H    0.080331
    53  C    0.314264
    54  C   -0.355486
    55  H    0.154396
    56  H    0.106987
    57  H    0.103344
    58  C   -0.371013
    59  H    0.117467
    60  H    0.113369
    61  H    0.120925
    62  C   -0.397377
    63  H    0.130190
    64  H    0.145683
    65  H    0.117533
    66  C   -0.221738
    67  C    0.213226
    68  C   -0.321792
    69  H    0.081387
    70  C    0.219152
    71  C   -0.313836
    72  H    0.078737
    73  C    0.265199
    74  C   -0.379323
    75  H    0.139551
    76  H    0.135070
    77  H    0.110413
    78  C   -0.370767
    79  H    0.115146
    80  H    0.120116
    81  H    0.115411
    82  C   -0.398782
    83  H    0.110636
    84  H    0.126707
    85  H    0.135039
 Sum of Mulliken charges =  -0.00000

 Dipole moment (field-independent basis, Debye):
    X=             -0.1912    Y=              1.2580    Z=             -2.0269  Tot=              2.3932
 Quadrupole moment (field-independent basis, Debye-Ang):
   XX=           -244.8700   YY=           -235.7218   ZZ=           -250.7946
   XY=             -1.7548   XZ=              0.8464   YZ=              6.3779

 Summary of Natural Population Analysis:

                                       Natural Population
                Natural  -----------------------------------------------
    Atom  No    Charge         Core      Valence    Rydberg      Total
 -----------------------------------------------------------------------
      P    1    0.78738      9.99812     4.18507    0.02944    14.21262
      C    2   -0.30107      1.99880     4.27529    0.02697     6.30107
      C    3   -0.02126      1.99905     4.00207    0.02013     6.02126
      C    4   -0.20631      1.99899     4.19050    0.01682     6.20631
      H    5    0.19403      0.00000     0.80420    0.00177     0.80597
      C    6   -0.01355      1.99908     3.99636    0.01811     6.01355
      C    7   -0.20500      1.99900     4.18909    0.01691     6.20500
      H    8    0.19431      0.00000     0.80394    0.00175     0.80569
      C    9   -0.00687      1.99905     3.98960    0.01821     6.00687
      C   10   -0.61775      1.99940     4.60525    0.01310     6.61775
      H   11    0.21345      0.00000     0.78506    0.00149     0.78655
      H   12    0.20906      0.00000     0.78971    0.00123     0.79094
      H   13    0.21786      0.00000     0.78105    0.00110     0.78214
      C   14   -0.60623      1.99941     4.59525    0.01157     6.60623
      H   15    0.20904      0.00000     0.78986    0.00110     0.79096
      H   16    0.21274      0.00000     0.78594    0.00132     0.78726
      H   17    0.21005      0.00000     0.78882    0.00113     0.78995
      C   18   -0.61165      1.99939     4.60043    0.01183     6.61165
      H   19    0.22214      0.00000     0.77600    0.00186     0.77786
      H   20    0.20870      0.00000     0.78882    0.00248     0.79130
      H   21    0.20751      0.00000     0.79133    0.00115     0.79249
      C   22   -0.32028      1.99882     4.29122    0.03024     6.32028
      C   23    0.00871      1.99902     3.97307    0.01919     5.99129
      C   24   -0.21627      1.99898     4.20165    0.01564     6.21627
      H   25    0.19504      0.00000     0.80282    0.00214     0.80496
      C   26    0.00849      1.99909     3.97551    0.01691     5.99151
      C   27   -0.21820      1.99897     4.20351    0.01571     6.21820
      H   28    0.19573      0.00000     0.80212    0.00215     0.80427
      C   29    0.01415      1.99902     3.96620    0.02062     5.98585
      C   30   -0.62708      1.99939     4.61438    0.01332     6.62708
      H   31    0.22528      0.00000     0.77314    0.00158     0.77472
      H   32    0.21200      0.00000     0.78664    0.00136     0.78800
      H   33    0.21720      0.00000     0.78167    0.00114     0.78280
      C   34   -0.60924      1.99941     4.59807    0.01176     6.60924
      H   35    0.21051      0.00000     0.78843    0.00106     0.78949
      H   36    0.21192      0.00000     0.78695    0.00113     0.78808
      H   37    0.21524      0.00000     0.78347    0.00129     0.78476
      C   38   -0.62261      1.99938     4.61028    0.01294     6.62261
      H   39    0.23314      0.00000     0.76574    0.00112     0.76686
      H   40    0.21181      0.00000     0.78681    0.00138     0.78819
      H   41    0.20803      0.00000     0.79069    0.00128     0.79197
      C   42   -0.98959      1.99940     4.96076    0.02943     6.98959
      H   43    0.23607      0.00000     0.76059    0.00334     0.76393
      H   44    0.25575      0.00000     0.74262    0.00163     0.74425
      P   45    0.78141      9.99814     4.19078    0.02968    14.21859
      C   46   -0.31217      1.99880     4.28347    0.02989     6.31217
      C   47    0.00310      1.99904     3.97841    0.01946     5.99690
      C   48   -0.21646      1.99899     4.20195    0.01552     6.21646
      H   49    0.19320      0.00000     0.80452    0.00227     0.80680
      C   50    0.00440      1.99908     3.97957    0.01694     5.99560
      C   51   -0.21462      1.99898     4.19987    0.01577     6.21462
      H   52    0.19494      0.00000     0.80290    0.00217     0.80506
      C   53    0.01169      1.99903     3.96812    0.02116     5.98831
      C   54   -0.61610      1.99938     4.60379    0.01293     6.61610
      H   55    0.22711      0.00000     0.77103    0.00186     0.77289
      H   56    0.20785      0.00000     0.79103    0.00113     0.79215
      H   57    0.20579      0.00000     0.79236    0.00185     0.79421
      C   58   -0.60833      1.99941     4.59724    0.01168     6.60833
      H   59    0.21222      0.00000     0.78660    0.00118     0.78778
      H   60    0.20902      0.00000     0.78994    0.00104     0.79098
      H   61    0.21436      0.00000     0.78433    0.00131     0.78564
      C   62   -0.62671      1.99939     4.61391    0.01340     6.62671
      H   63    0.21442      0.00000     0.78423    0.00135     0.78558
      H   64    0.23112      0.00000     0.76772    0.00116     0.76888
      H   65    0.21308      0.00000     0.78563    0.00129     0.78692
      C   66   -0.29919      1.99879     4.27305    0.02735     6.29919
      C   67   -0.00363      1.99907     3.98448    0.02009     6.00363
      C   68   -0.20485      1.99899     4.18886    0.01700     6.20485
      H   69    0.19547      0.00000     0.80274    0.00179     0.80453
      C   70   -0.01296      1.99908     3.99555    0.01833     6.01296
      C   71   -0.20771      1.99900     4.19170    0.01701     6.20771
      H   72    0.19264      0.00000     0.80556    0.00180     0.80736
      C   73   -0.01903      1.99905     3.99943    0.02055     6.01903
      C   74   -0.61944      1.99939     4.60775    0.01230     6.61944
      H   75    0.22177      0.00000     0.77670    0.00153     0.77823
      H   76    0.22053      0.00000     0.77800    0.00147     0.77947
      H   77    0.20951      0.00000     0.78937    0.00112     0.79049
      C   78   -0.60714      1.99941     4.59596    0.01177     6.60714
      H   79    0.21011      0.00000     0.78882    0.00107     0.78989
      H   80    0.21289      0.00000     0.78580    0.00131     0.78711
      H   81    0.21003      0.00000     0.78887    0.00110     0.78997
      C   82   -0.61086      1.99939     4.59883    0.01263     6.61086
      H   83    0.21078      0.00000     0.78819    0.00103     0.78922
      H   84    0.20733      0.00000     0.79097    0.00170     0.79267
      H   85    0.21201      0.00000     0.78669    0.00130     0.78799
 =======================================================================
   * Total *   -0.00000     93.96416   203.25472    0.78113   298.00000

 Normal termination of Gaussian 16 at Fri Jan 24 04:42:46 2025.
