 Gaussian 16, Revision B.01,
 Gaussian 16:  ES64L-G16RevB.01 20-Dec-2017

 --------------------------------------------
 # nmr=giao b3lyp/def2TZVP pop=nbo scfcyc=200
 --------------------------------------------

 ---------------
 MB-108 SPE NoRh
 ---------------
 Symbolic Z-matrix:
 Charge =  0 Multiplicity = 1

                         Standard orientation:
 ---------------------------------------------------------------------
 Center     Atomic      Atomic             Coordinates (Angstroms)
 Number     Number       Type             X           Y           Z
 ---------------------------------------------------------------------
      1         15           0       -1.415678    1.025159   -1.937970
      2         15           0        1.460528    1.234134   -1.893920
      3          6           0       -2.448721    2.383358   -2.670162
      4          1           0       -3.279445    1.935822   -3.216217
      5          1           0       -1.837955    2.951427   -3.370779
      6          1           0       -2.855167    3.051272   -1.915273
      7          6           0       -0.043259    1.901560   -0.992906
      8          1           0       -0.035324    1.635611    0.061470
      9          1           0       -0.118667    2.985697   -1.080257
     10          6           0        2.436128    2.688442   -2.501107
     11          1           0        2.831076    3.307509   -1.702737
     12          1           0        1.795137    3.292502   -3.143594
     13          1           0        3.271208    2.315088   -3.093103
     14          6           0        2.546138    0.405451   -0.616349
     15          6           0        3.051879    1.153754    0.481974
     16          6           0        3.939766    0.538104    1.361629
     17          1           0        4.330911    1.113645    2.192062
     18          6           0        4.343463   -0.784481    1.231585
     19          6           0        3.805461   -1.508308    0.176542
     20          1           0        4.080642   -2.549346    0.065300
     21          6           0        2.916200   -0.957907   -0.747503
     22          6           0        2.685050    2.600549    0.823181
     23          1           0        1.956699    2.965429    0.103732
     24          6           0        2.010798    2.698478    2.203825
     25          1           0        1.159251    2.020404    2.285610
     26          1           0        1.655723    3.715918    2.380252
     27          1           0        2.703910    2.448406    3.007957
     28          6           0        3.902933    3.539986    0.761888
     29          1           0        4.632953    3.291227    1.533662
     30          1           0        3.593428    4.575377    0.924237
     31          1           0        4.418513    3.483968   -0.199178
     32          6           0        5.320443   -1.402456    2.214960
     33          1           0        5.579130   -0.622188    2.936148
     34          6           0        4.685590   -2.562884    2.999238
     35          1           0        4.428430   -3.396245    2.341515
     36          1           0        3.775790   -2.245735    3.512748
     37          1           0        5.383902   -2.939104    3.749914
     38          6           0        6.621326   -1.844141    1.525842
     39          1           0        7.334139   -2.216249    2.264484
     40          1           0        7.090554   -1.014934    0.990871
     41          1           0        6.439701   -2.646955    0.807702
     42          6           0        2.389179   -1.914695   -1.811250
     43          1           0        1.730748   -1.358028   -2.483464
     44          6           0        3.524074   -2.513665   -2.658871
     45          1           0        4.135948   -1.737546   -3.124707
     46          1           0        3.119490   -3.150862   -3.446131
     47          1           0        4.191721   -3.132215   -2.056690
     48          6           0        1.536453   -3.028142   -1.179689
     49          1           0        2.132332   -3.669102   -0.526555
     50          1           0        1.102157   -3.660340   -1.955670
     51          1           0        0.723409   -2.612003   -0.582919
     52          6           0       -2.516892    0.197531   -0.668083
     53          6           0       -2.980599    0.910274    0.473184
     54          6           0       -3.755915    0.240119    1.416944
     55          1           0       -4.101048    0.790751    2.282407
     56          6           0       -4.115312   -1.097635    1.288462
     57          6           0       -3.687645   -1.762155    0.148003
     58          1           0       -3.980443   -2.795253    0.017733
     59          6           0       -2.907054   -1.154363   -0.835969
     60          6           0       -2.748089    2.398432    0.745132
     61          1           0       -2.072309    2.796912   -0.005894
     62          6           0       -2.086200    2.655148    2.109899
     63          1           0       -2.749087    2.394349    2.935300
     64          1           0       -1.838249    3.713971    2.214536
     65          1           0       -1.170149    2.077170    2.231041
     66          6           0       -4.063006    3.193856    0.631687
     67          1           0       -4.553620    3.034256   -0.331017
     68          1           0       -3.872303    4.262890    0.745456
     69          1           0       -4.770044    2.899145    1.409092
     70          6           0       -4.953941   -1.805172    2.337271
     71          1           0       -5.099850   -2.830442    1.984822
     72          6           0       -4.226412   -1.882724    3.690006
     73          1           0       -4.068543   -0.887763    4.114976
     74          1           0       -3.252577   -2.364341    3.591799
     75          1           0       -4.817905   -2.457177    4.406012
     76          6           0       -6.343761   -1.166786    2.488897
     77          1           0       -6.950191   -1.740922    3.191834
     78          1           0       -6.872766   -1.133258    1.534959
     79          1           0       -6.275498   -0.145528    2.871228
     80          6           0       -2.610342   -1.974214   -2.086240
     81          1           0       -1.733026   -1.537627   -2.564648
     82          6           0       -3.795018   -1.873043   -3.067185
     83          1           0       -4.701867   -2.277019   -2.613382
     84          1           0       -3.601716   -2.442933   -3.978575
     85          1           0       -4.005735   -0.838747   -3.349710
     86          6           0       -2.279107   -3.448241   -1.810090
     87          1           0       -3.155481   -4.016077   -1.495708
     88          1           0       -1.514499   -3.554158   -1.040568
     89          1           0       -1.907825   -3.920236   -2.722206
 ---------------------------------------------------------------------

 SCF Done:  E(RB3LYP) =  -1973.28110622     A.U. after   14 cycles

      1  P    Isotropic =   285.1326   Anisotropy =   103.2773

      2  P    Isotropic =   290.5126   Anisotropy =   100.3331

      3  C    Isotropic =   166.6132   Anisotropy =    22.0937

      4  H    Isotropic =    30.9191   Anisotropy =     9.0182

      5  H    Isotropic =    30.5422   Anisotropy =     8.7146

      6  H    Isotropic =    29.9077   Anisotropy =     7.7108

      7  C    Isotropic =   146.1595   Anisotropy =    33.6593

      8  H    Isotropic =    29.7437   Anisotropy =     8.0613

      9  H    Isotropic =    29.7997   Anisotropy =     4.4775

     10  C    Isotropic =   166.2112   Anisotropy =    24.4438

     11  H    Isotropic =    29.8354   Anisotropy =     8.4587

     12  H    Isotropic =    30.6872   Anisotropy =     8.4668

     13  H    Isotropic =    30.9738   Anisotropy =     9.4738

     14  C    Isotropic =    40.7759   Anisotropy =   157.3610

     15  C    Isotropic =    19.3213   Anisotropy =   197.8414

     16  C    Isotropic =    52.8482   Anisotropy =   146.6795

     17  H    Isotropic =    25.0126   Anisotropy =    12.7111

     18  C    Isotropic =    25.9660   Anisotropy =   208.7339

     19  C    Isotropic =    56.3978   Anisotropy =   179.0884

     20  H    Isotropic =    24.6710   Anisotropy =    14.7475

     21  C    Isotropic =    19.4512   Anisotropy =   205.6160

     22  C    Isotropic =   144.6916   Anisotropy =    16.2029

     23  H    Isotropic =    28.4003   Anisotropy =    11.1382

     24  C    Isotropic =   155.5487   Anisotropy =    34.7913

     25  H    Isotropic =    30.8209   Anisotropy =     9.1030

     26  H    Isotropic =    30.7340   Anisotropy =     8.8026

     27  H    Isotropic =    30.7603   Anisotropy =     6.8027

     28  C    Isotropic =   155.9294   Anisotropy =    37.9844

     29  H    Isotropic =    30.6585   Anisotropy =     7.6841

     30  H    Isotropic =    30.5981   Anisotropy =    10.0968

     31  H    Isotropic =    30.5450   Anisotropy =     7.2603

     32  C    Isotropic =   140.5932   Anisotropy =    25.4571

     33  H    Isotropic =    29.2769   Anisotropy =     6.3581

     34  C    Isotropic =   157.2947   Anisotropy =    35.3936

     35  H    Isotropic =    30.7377   Anisotropy =     5.5189

     36  H    Isotropic =    30.8441   Anisotropy =     7.0655

     37  H    Isotropic =    30.7442   Anisotropy =    10.4188

     38  C    Isotropic =   157.2777   Anisotropy =    36.4807

     39  H    Isotropic =    30.7381   Anisotropy =    10.7898

     40  H    Isotropic =    30.7776   Anisotropy =     8.0165

     41  H    Isotropic =    30.7290   Anisotropy =     5.8517

     42  C    Isotropic =   147.4376   Anisotropy =    15.5994

     43  H    Isotropic =    27.2701   Anisotropy =    10.6832

     44  C    Isotropic =   157.1272   Anisotropy =    38.1386

     45  H    Isotropic =    30.7708   Anisotropy =     8.4534

     46  H    Isotropic =    30.7155   Anisotropy =     9.9427

     47  H    Isotropic =    30.7241   Anisotropy =     7.2085

     48  C    Isotropic =   154.2106   Anisotropy =    37.1422

     49  H    Isotropic =    30.9476   Anisotropy =     6.0367

     50  H    Isotropic =    30.7222   Anisotropy =     9.1550

     51  H    Isotropic =    31.0617   Anisotropy =    10.0381

     52  C    Isotropic =    39.9675   Anisotropy =   161.3721

     53  C    Isotropic =    19.3219   Anisotropy =   198.9991

     54  C    Isotropic =    56.0013   Anisotropy =   177.4180

     55  H    Isotropic =    24.8633   Anisotropy =    14.9211

     56  C    Isotropic =    25.4803   Anisotropy =   208.8752

     57  C    Isotropic =    55.3077   Anisotropy =   148.0768

     58  H    Isotropic =    24.8012   Anisotropy =    12.6116

     59  C    Isotropic =    19.0285   Anisotropy =   205.5332

     60  C    Isotropic =   144.8929   Anisotropy =    15.4583

     61  H    Isotropic =    28.3911   Anisotropy =    11.7896

     62  C    Isotropic =   157.3510   Anisotropy =    33.4775

     63  H    Isotropic =    30.6256   Anisotropy =     7.1007

     64  H    Isotropic =    30.7242   Anisotropy =     8.6867

     65  H    Isotropic =    30.7472   Anisotropy =     9.5370

     66  C    Isotropic =   154.5524   Anisotropy =    39.8399

     67  H    Isotropic =    30.7070   Anisotropy =     6.9775

     68  H    Isotropic =    30.6751   Anisotropy =    10.2825

     69  H    Isotropic =    30.8419   Anisotropy =     7.4636

     70  C    Isotropic =   140.8778   Anisotropy =    25.1001

     71  H    Isotropic =    29.2331   Anisotropy =     6.3559

     72  C    Isotropic =   157.2477   Anisotropy =    35.4501

     73  H    Isotropic =    30.8266   Anisotropy =     5.3609

     74  H    Isotropic =    30.8927   Anisotropy =     7.1936

     75  H    Isotropic =    30.7660   Anisotropy =    10.4566

     76  C    Isotropic =   157.5214   Anisotropy =    36.3493

     77  H    Isotropic =    30.7235   Anisotropy =    10.7784

     78  H    Isotropic =    30.7779   Anisotropy =     8.0123

     79  H    Isotropic =    30.6986   Anisotropy =     5.7996

     80  C    Isotropic =   148.3711   Anisotropy =    13.0964

     81  H    Isotropic =    27.2736   Anisotropy =    10.6663

     82  C    Isotropic =   153.5502   Anisotropy =    42.4605

     83  H    Isotropic =    31.2912   Anisotropy =     7.0132

     84  H    Isotropic =    30.6829   Anisotropy =    10.5651

     85  H    Isotropic =    30.9423   Anisotropy =     6.7518

     86  C    Isotropic =   159.4156   Anisotropy =    31.3133

     87  H    Isotropic =    30.5325   Anisotropy =     7.3561

     88  H    Isotropic =    30.7217   Anisotropy =     8.2582

     89  H    Isotropic =    30.6891   Anisotropy =     8.5411

 The electronic state is 1-A.
 Alpha  occ. eigenvalues --  -77.03848 -77.03655 -10.18070 -10.18008 -10.18002
 Alpha  occ. eigenvalues --  -10.18000 -10.17981 -10.17979 -10.17950 -10.17862
 Alpha  occ. eigenvalues --  -10.17710 -10.17627 -10.17505 -10.17467 -10.17423
 Alpha  occ. eigenvalues --  -10.16866 -10.16791 -10.16514 -10.16342 -10.16235
 Alpha  occ. eigenvalues --  -10.16205 -10.16192 -10.16186 -10.16063 -10.16041
 Alpha  occ. eigenvalues --  -10.16031 -10.16028 -10.16023 -10.16012 -10.15998
 Alpha  occ. eigenvalues --  -10.15925 -10.15418 -10.15276 -10.15266 -10.15201
 Alpha  occ. eigenvalues --   -6.52360  -6.52197  -4.68517  -4.68478  -4.68353
 Alpha  occ. eigenvalues --   -4.68319  -4.67987  -4.67821  -0.86403  -0.86343
 Alpha  occ. eigenvalues --   -0.81538  -0.81404  -0.81043  -0.80946  -0.77358
 Alpha  occ. eigenvalues --   -0.77303  -0.75986  -0.73678  -0.72052  -0.71935
 Alpha  occ. eigenvalues --   -0.71671  -0.70964  -0.69283  -0.68698  -0.68614
 Alpha  occ. eigenvalues --   -0.68599  -0.68568  -0.68010  -0.67766  -0.63009
 Alpha  occ. eigenvalues --   -0.62813  -0.62146  -0.61721  -0.59766  -0.59620
 Alpha  occ. eigenvalues --   -0.56420  -0.55599  -0.54343  -0.54060  -0.53573
 Alpha  occ. eigenvalues --   -0.53235  -0.48904  -0.48826  -0.47836  -0.47691
 Alpha  occ. eigenvalues --   -0.45532  -0.45103  -0.44799  -0.44606  -0.44404
 Alpha  occ. eigenvalues --   -0.44162  -0.43915  -0.43417  -0.43125  -0.43003
 Alpha  occ. eigenvalues --   -0.42823  -0.42343  -0.42236  -0.41985  -0.41729
 Alpha  occ. eigenvalues --   -0.41573  -0.41501  -0.41359  -0.41172  -0.40558
 Alpha  occ. eigenvalues --   -0.40547  -0.40223  -0.40109  -0.39155  -0.38977
 Alpha  occ. eigenvalues --   -0.38891  -0.38759  -0.38542  -0.38111  -0.37812
 Alpha  occ. eigenvalues --   -0.37321  -0.37050  -0.36436  -0.36329  -0.35994
 Alpha  occ. eigenvalues --   -0.35908  -0.35034  -0.34896  -0.34604  -0.34512
 Alpha  occ. eigenvalues --   -0.34375  -0.34301  -0.33980  -0.33975  -0.33836
 Alpha  occ. eigenvalues --   -0.33470  -0.32991  -0.32691  -0.32504  -0.32278
 Alpha  occ. eigenvalues --   -0.31631  -0.31252  -0.31225  -0.30480  -0.29577
 Alpha  occ. eigenvalues --   -0.24220  -0.23836  -0.23660  -0.23657  -0.21323
 Alpha  occ. eigenvalues --   -0.18677
 Alpha virt. eigenvalues --   -0.02404  -0.01697  -0.00852  -0.00734   0.01620
 Alpha virt. eigenvalues --    0.02270   0.02763   0.03213   0.03637   0.04227
 Alpha virt. eigenvalues --    0.04479   0.04668   0.05145   0.05359   0.06459

 Mulliken charges:
               1
     1  P    0.127142
     2  P    0.127256
     3  C   -0.431760
     4  H    0.128427
     5  H    0.123441
     6  H    0.121895
     7  C   -0.407705
     8  H    0.138888
     9  H    0.127907
    10  C   -0.424199
    11  H    0.119138
    12  H    0.121151
    13  H    0.129155
    14  C   -0.165593
    15  C    0.206779
    16  C   -0.323284
    17  H    0.092641
    18  C    0.213157
    19  C   -0.351492
    20  H    0.107124
    21  C    0.260380
    22  C   -0.064476
    23  H    0.080030
    24  C   -0.340925
    25  H    0.113297
    26  H    0.108866
    27  H    0.104956
    28  C   -0.344636
    29  H    0.104180
    30  H    0.109171
    31  H    0.118034
    32  C   -0.042720
    33  H    0.056014
    34  C   -0.343852
    35  H    0.102703
    36  H    0.114236
    37  H    0.106883
    38  C   -0.343164
    39  H    0.106899
    40  H    0.113892
    41  H    0.103059
    42  C   -0.038604
    43  H    0.105328
    44  C   -0.347351
    45  H    0.111119
    46  H    0.107462
    47  H    0.095713
    48  C   -0.367987
    49  H    0.100005
    50  H    0.112443
    51  H    0.117607
    52  C   -0.148351
    53  C    0.185497
    54  C   -0.369771
    55  H    0.104132
    56  C    0.229871
    57  C   -0.319634
    58  H    0.090215
    59  C    0.241775
    60  C   -0.048623
    61  H    0.068304
    62  C   -0.337933
    63  H    0.104791
    64  H    0.107446
    65  H    0.111436
    66  C   -0.348105
    67  H    0.118670
    68  H    0.107921
    69  H    0.104868
    70  C   -0.044447
    71  H    0.057950
    72  C   -0.343695
    73  H    0.100661
    74  H    0.115787
    75  H    0.106764
    76  C   -0.343413
    77  H    0.107529
    78  H    0.114436
    79  H    0.100073
    80  C   -0.012247
    81  H    0.102279
    82  C   -0.351473
    83  H    0.102795
    84  H    0.104841
    85  H    0.107304
    86  C   -0.365032
    87  H    0.100030
    88  H    0.128022
    89  H    0.110697
 Sum of Mulliken charges =  -0.00000

 Dipole moment (field-independent basis, Debye):
    X=             -0.0859    Y=              1.2166    Z=              1.6438  Tot=              2.0468
 Quadrupole moment (field-independent basis, Debye-Ang):
   XX=           -234.4569   YY=           -228.9773   ZZ=           -239.7482
   XY=              0.6958   XZ=              1.4292   YZ=             -1.3443

 Summary of Natural Population Analysis:

                                       Natural Population
                Natural  -----------------------------------------------
    Atom  No    Charge         Core      Valence    Rydberg      Total
 -----------------------------------------------------------------------
      P    1    0.78094      9.99850     4.18561    0.03495    14.21906
      P    2    0.77532      9.99848     4.19063    0.03558    14.22468
      C    3   -0.90603      1.99943     4.88786    0.01875     6.90603
      H    4    0.22986      0.00000     0.76902    0.00111     0.77014
      H    5    0.22300      0.00000     0.77597    0.00103     0.77700
      H    6    0.20544      0.00000     0.79197    0.00259     0.79456
      C    7   -1.02460      1.99945     4.99580    0.02935     7.02460
      H    8    0.25114      0.00000     0.74665    0.00220     0.74886
      H    9    0.23716      0.00000     0.76069    0.00215     0.76284
      C   10   -0.90643      1.99943     4.88865    0.01835     6.90643
      H   11    0.20548      0.00000     0.79193    0.00258     0.79452
      H   12    0.22296      0.00000     0.77603    0.00101     0.77704
      H   13    0.23153      0.00000     0.76763    0.00084     0.76847
      C   14   -0.32689      1.99884     4.29942    0.02862     6.32689
      C   15    0.02105      1.99899     3.95702    0.02293     5.97895
      C   16   -0.22279      1.99898     4.20750    0.01631     6.22279
      H   17    0.19281      0.00000     0.80442    0.00277     0.80719
      C   18    0.01535      1.99903     3.96416    0.02146     5.98465
      C   19   -0.22439      1.99894     4.20915    0.01630     6.22439
      H   20    0.19686      0.00000     0.79993    0.00320     0.80314
      C   21    0.02894      1.99902     3.94854    0.02350     5.97106
      C   22   -0.23928      1.99936     4.22497    0.01495     6.23928
      H   23    0.20714      0.00000     0.78944    0.00342     0.79286
      C   24   -0.57816      1.99942     4.56729    0.01145     6.57816
      H   25    0.20360      0.00000     0.79510    0.00130     0.79640
      H   26    0.20123      0.00000     0.79756    0.00121     0.79877
      H   27    0.19769      0.00000     0.80112    0.00119     0.80231
      C   28   -0.58447      1.99942     4.57331    0.01174     6.58447
      H   29    0.19889      0.00000     0.79990    0.00121     0.80111
      H   30    0.20137      0.00000     0.79747    0.00117     0.79863
      H   31    0.20635      0.00000     0.79243    0.00122     0.79365
      C   32   -0.22153      1.99937     4.20797    0.01419     6.22153
      H   33    0.19247      0.00000     0.80527    0.00226     0.80753
      C   34   -0.57945      1.99943     4.56902    0.01100     6.57945
      H   35    0.19700      0.00000     0.80183    0.00116     0.80300
      H   36    0.20682      0.00000     0.79221    0.00097     0.79318
      H   37    0.20074      0.00000     0.79813    0.00112     0.79926
      C   38   -0.57939      1.99943     4.56896    0.01100     6.57939
      H   39    0.20077      0.00000     0.79811    0.00113     0.79923
      H   40    0.20677      0.00000     0.79226    0.00097     0.79323
      H   41    0.19728      0.00000     0.80155    0.00116     0.80272
      C   42   -0.24796      1.99936     4.23397    0.01464     6.24796
      H   43    0.22866      0.00000     0.76866    0.00268     0.77134
      C   44   -0.57812      1.99943     4.56768    0.01100     6.57812
      H   45    0.20538      0.00000     0.79360    0.00102     0.79462
      H   46    0.20175      0.00000     0.79713    0.00111     0.79825
      H   47    0.19124      0.00000     0.80758    0.00118     0.80876
      C   48   -0.57776      1.99943     4.56707    0.01126     6.57776
      H   49    0.19221      0.00000     0.80658    0.00121     0.80779
      H   50    0.20229      0.00000     0.79648    0.00123     0.79771
      H   51    0.20688      0.00000     0.79205    0.00107     0.79312
      C   52   -0.32832      1.99884     4.30090    0.02858     6.32832
      C   53    0.01942      1.99900     3.95857    0.02301     5.98058
      C   54   -0.22870      1.99895     4.21333    0.01642     6.22870
      H   55    0.19347      0.00000     0.80327    0.00327     0.80653
      C   56    0.01665      1.99903     3.96288    0.02143     5.98335
      C   57   -0.22399      1.99898     4.20850    0.01652     6.22399
      H   58    0.19885      0.00000     0.79848    0.00267     0.80115
      C   59    0.02863      1.99902     3.94930    0.02306     5.97137
      C   60   -0.23903      1.99936     4.22477    0.01490     6.23903
      H   61    0.20732      0.00000     0.78907    0.00361     0.79268
      C   62   -0.58005      1.99942     4.56911    0.01152     6.58005
      H   63    0.19681      0.00000     0.80203    0.00116     0.80319
      H   64    0.20134      0.00000     0.79747    0.00119     0.79866
      H   65    0.20392      0.00000     0.79476    0.00132     0.79608
      C   66   -0.58210      1.99942     4.57106    0.01161     6.58210
      H   67    0.20643      0.00000     0.79239    0.00118     0.79357
      H   68    0.20034      0.00000     0.79847    0.00119     0.79966
      H   69    0.19888      0.00000     0.79991    0.00121     0.80112
      C   70   -0.22190      1.99937     4.20828    0.01425     6.22190
      H   71    0.19345      0.00000     0.80431    0.00224     0.80655
      C   72   -0.57931      1.99943     4.56891    0.01097     6.57931
      H   73    0.19619      0.00000     0.80264    0.00117     0.80381
      H   74    0.20740      0.00000     0.79163    0.00097     0.79260
      H   75    0.20062      0.00000     0.79825    0.00113     0.79938
      C   76   -0.57961      1.99943     4.56917    0.01101     6.57961
      H   77    0.20108      0.00000     0.79780    0.00112     0.79892
      H   78    0.20682      0.00000     0.79220    0.00097     0.79318
      H   79    0.19577      0.00000     0.80305    0.00118     0.80423
      C   80   -0.24777      1.99935     4.23383    0.01459     6.24777
      H   81    0.22750      0.00000     0.76998    0.00252     0.77250
      C   82   -0.57565      1.99942     4.56510    0.01112     6.57565
      H   83    0.19557      0.00000     0.80317    0.00127     0.80443
      H   84    0.20084      0.00000     0.79797    0.00118     0.79916
      H   85    0.20250      0.00000     0.79633    0.00117     0.79750
      C   86   -0.58390      1.99943     4.57305    0.01142     6.58390
      H   87    0.19051      0.00000     0.80825    0.00124     0.80949
      H   88    0.20859      0.00000     0.79028    0.00114     0.79141
      H   89    0.20428      0.00000     0.79460    0.00113     0.79572
 =======================================================================
   * Total *    0.00000     85.97223   195.32631    0.70146   282.00000

 Normal termination of Gaussian 16 at Fri Jan 24 02:50:14 2025.
