 Gaussian 16, Revision B.01,
 Gaussian 16:  ES64L-G16RevB.01 20-Dec-2017

 --------------------------------------------
 # nmr=giao b3lyp/def2TZVP pop=nbo scfcyc=200
 --------------------------------------------

 -----------------
 Ligand 2 SPE NoRh
 -----------------
 Symbolic Z-matrix:
 Charge =  0 Multiplicity = 1

                         Standard orientation:
 ---------------------------------------------------------------------
 Center     Atomic      Atomic             Coordinates (Angstroms)
 Number     Number       Type             X           Y           Z
 ---------------------------------------------------------------------
      1          6           0        0.000687    0.001249    0.775380
      2          1           0       -0.312533   -0.822538    1.415453
      3          1           0        0.314369    0.826112    1.414322
      4          6           0       -1.533814    2.334205   -0.139660
      5          1           0       -1.863258    2.519245    0.883050
      6          1           0       -2.262581    2.750636   -0.833538
      7          1           0       -0.583344    2.840215   -0.306185
      8          6           0       -2.937814   -0.308395    0.028409
      9          6           0       -4.050969    0.231266   -0.886053
     10          1           0       -4.987767   -0.279867   -0.650471
     11          1           0       -3.841336    0.054895   -1.942277
     12          1           0       -4.221840    1.299099   -0.743049
     13          6           0       -3.282590   -0.012591    1.496133
     14          1           0       -3.450659    1.049199    1.677146
     15          1           0       -2.511438   -0.362244    2.184242
     16          1           0       -4.207550   -0.533806    1.756760
     17          6           0       -2.781058   -1.822110   -0.180968
     18          1           0       -3.726741   -2.319189    0.045585
     19          1           0       -2.027240   -2.254653    0.481007
     20          1           0       -2.511904   -2.065822   -1.209980
     21          6           0        1.531116   -2.333366   -0.140616
     22          1           0        1.860689   -2.518881    0.882694
     23          1           0        2.260894   -2.749802   -0.833747
     24          1           0        0.580095   -2.838133   -0.307096
     25          6           0        2.938648    0.307972    0.028333
     26          6           0        3.282696    0.011058    1.495633
     27          1           0        4.208386    0.530893    1.757014
     28          1           0        3.449189   -1.050985    1.677616
     29          1           0        2.512581    0.361714    2.184543
     30          6           0        4.050722   -0.233365   -0.886229
     31          1           0        4.988466    0.276423   -0.649803
     32          1           0        3.842246   -0.056479   -1.942020
     33          1           0        4.221348   -1.301403   -0.742232
     34          6           0        2.783709    1.821980   -0.181286
     35          1           0        2.030152    2.254567    0.480753
     36          1           0        2.514479    2.066175   -1.210294
     37          1           0        3.730421    2.317726    0.045169
     38         15           0       -1.304130    0.527177   -0.465926
     39         15           0        1.303256   -0.525878   -0.465348
 ---------------------------------------------------------------------

 SCF Done:  E(RB3LYP) =  -1117.75050342     A.U. after   13 cycles

      1  C    Isotropic =   163.3781   Anisotropy =    21.6696

      2  H    Isotropic =    30.9673   Anisotropy =     5.3237

      3  H    Isotropic =    30.9630   Anisotropy =     5.3263

      4  C    Isotropic =   175.6531   Anisotropy =    18.3602

      5  H    Isotropic =    30.7905   Anisotropy =     7.7819

      6  H    Isotropic =    31.1994   Anisotropy =    10.2153

      7  H    Isotropic =    30.8294   Anisotropy =     8.1306

      8  C    Isotropic =   147.5165   Anisotropy =    11.8658

      9  C    Isotropic =   156.1086   Anisotropy =    43.6651

     10  H    Isotropic =    31.2495   Anisotropy =     9.5768

     11  H    Isotropic =    30.8878   Anisotropy =     9.0445

     12  H    Isotropic =    31.0961   Anisotropy =     8.3912

     13  C    Isotropic =   158.8062   Anisotropy =    38.6916

     14  H    Isotropic =    30.6697   Anisotropy =     7.6801

     15  H    Isotropic =    30.9642   Anisotropy =     6.5187

     16  H    Isotropic =    31.1118   Anisotropy =     9.7741

     17  C    Isotropic =   154.2453   Anisotropy =    43.0178

     18  H    Isotropic =    31.1438   Anisotropy =     9.2148

     19  H    Isotropic =    30.9883   Anisotropy =     6.8496

     20  H    Isotropic =    30.7433   Anisotropy =     7.9130

     21  C    Isotropic =   175.6120   Anisotropy =    18.2878

     22  H    Isotropic =    30.7778   Anisotropy =     7.7718

     23  H    Isotropic =    31.1923   Anisotropy =    10.2085

     24  H    Isotropic =    30.8283   Anisotropy =     8.1369

     25  C    Isotropic =   147.5157   Anisotropy =    11.8757

     26  C    Isotropic =   158.8536   Anisotropy =    38.6740

     27  H    Isotropic =    31.1115   Anisotropy =     9.7810

     28  H    Isotropic =    30.6676   Anisotropy =     7.6845

     29  H    Isotropic =    30.9640   Anisotropy =     6.5257

     30  C    Isotropic =   156.0977   Anisotropy =    43.6843

     31  H    Isotropic =    31.2438   Anisotropy =     9.5726

     32  H    Isotropic =    30.8976   Anisotropy =     9.0525

     33  H    Isotropic =    31.0904   Anisotropy =     8.3898

     34  C    Isotropic =   154.2336   Anisotropy =    42.9876

     35  H    Isotropic =    30.9900   Anisotropy =     6.8467

     36  H    Isotropic =    30.7399   Anisotropy =     7.9124

     37  H    Isotropic =    31.1385   Anisotropy =     9.2164

     38  P    Isotropic =   241.6574   Anisotropy =    93.1935

     39  P    Isotropic =   242.0589   Anisotropy =    92.6342

 The electronic state is 1-A.
 Alpha  occ. eigenvalues --  -77.03247 -77.03234 -10.18625 -10.18624 -10.17508
 Alpha  occ. eigenvalues --  -10.16489 -10.16482 -10.16234 -10.16231 -10.16131
 Alpha  occ. eigenvalues --  -10.16127 -10.15988 -10.15988  -6.51827  -6.51816
 Alpha  occ. eigenvalues --   -4.67991  -4.67980  -4.67928  -4.67917  -4.67438
 Alpha  occ. eigenvalues --   -4.67427  -0.81545  -0.81216  -0.74680  -0.71848
 Alpha  occ. eigenvalues --   -0.69520  -0.68858  -0.68844  -0.68813  -0.68152
 Alpha  occ. eigenvalues --   -0.58828  -0.57532  -0.51102  -0.50809  -0.46189
 Alpha  occ. eigenvalues --   -0.46057  -0.44647  -0.44197  -0.44142  -0.43904
 Alpha  occ. eigenvalues --   -0.42277  -0.41673  -0.40910  -0.40907  -0.40175
 Alpha  occ. eigenvalues --   -0.39243  -0.38865  -0.38519  -0.38277  -0.37191
 Alpha  occ. eigenvalues --   -0.37059  -0.37002  -0.34235  -0.33799  -0.33757
 Alpha  occ. eigenvalues --   -0.33521  -0.31214  -0.30192  -0.28758  -0.21700
 Alpha  occ. eigenvalues --   -0.17895
 Alpha virt. eigenvalues --    0.01469   0.02111   0.03504   0.04223   0.04497
 Alpha virt. eigenvalues --    0.05721   0.06878   0.07367   0.07808   0.07871
 Alpha virt. eigenvalues --    0.08060   0.08226   0.08286   0.09432   0.09930

 Mulliken charges:
               1
     1  C   -0.383770
     2  H    0.116707
     3  H    0.116784
     4  C   -0.455059
     5  H    0.112365
     6  H    0.130310
     7  H    0.135671
     8  C    0.093623
     9  C   -0.376075
    10  H    0.105547
    11  H    0.122187
    12  H    0.112863
    13  C   -0.357799
    14  H    0.111178
    15  H    0.106181
    16  H    0.098646
    17  C   -0.369843
    18  H    0.106407
    19  H    0.102020
    20  H    0.126421
    21  C   -0.454978
    22  H    0.112170
    23  H    0.130321
    24  H    0.135735
    25  C    0.093668
    26  C   -0.358172
    27  H    0.098636
    28  H    0.111267
    29  H    0.106212
    30  C   -0.376049
    31  H    0.105454
    32  H    0.122264
    33  H    0.112777
    34  C   -0.369482
    35  H    0.101940
    36  H    0.126392
    37  H    0.106330
    38  P    0.170717
    39  P    0.170434
 Sum of Mulliken charges =  -0.00000

 Dipole moment (field-independent basis, Debye):
    X=             -0.0036    Y=              0.0004    Z=              1.7908  Tot=              1.7908
 Quadrupole moment (field-independent basis, Debye-Ang):
   XX=            -98.6779   YY=            -99.8620   ZZ=           -107.1319
   XY=             -0.1392   XZ=              0.0026   YZ=             -0.0009

 Summary of Natural Population Analysis:

                                       Natural Population
                Natural  -----------------------------------------------
    Atom  No    Charge         Core      Valence    Rydberg      Total
 -----------------------------------------------------------------------
      C    1   -1.03432      1.99947     5.00256    0.03230     7.03432
      H    2    0.23892      0.00000     0.75841    0.00266     0.76108
      H    3    0.23905      0.00000     0.75829    0.00266     0.76095
      C    4   -0.92267      1.99945     4.90408    0.01913     6.92267
      H    5    0.20344      0.00000     0.79314    0.00342     0.79656
      H    6    0.22885      0.00000     0.77004    0.00111     0.77115
      H    7    0.22940      0.00000     0.76931    0.00129     0.77060
      C    8   -0.28372      1.99948     4.25853    0.02570     6.28372
      C    9   -0.60096      1.99937     4.58962    0.01197     6.60096
      H   10    0.20224      0.00000     0.79581    0.00195     0.79776
      H   11    0.21284      0.00000     0.78560    0.00156     0.78716
      H   12    0.20253      0.00000     0.79618    0.00129     0.79747
      C   13   -0.60180      1.99938     4.59040    0.01203     6.60180
      H   14    0.20051      0.00000     0.79789    0.00160     0.79949
      H   15    0.19989      0.00000     0.79856    0.00154     0.80011
      H   16    0.19617      0.00000     0.80153    0.00229     0.80383
      C   17   -0.60173      1.99937     4.59015    0.01221     6.60173
      H   18    0.20256      0.00000     0.79546    0.00198     0.79744
      H   19    0.19804      0.00000     0.80046    0.00150     0.80196
      H   20    0.21412      0.00000     0.78440    0.00149     0.78588
      C   21   -0.92265      1.99945     4.90407    0.01913     6.92265
      H   22    0.20338      0.00000     0.79319    0.00343     0.79662
      H   23    0.22892      0.00000     0.76997    0.00111     0.77108
      H   24    0.22942      0.00000     0.76929    0.00129     0.77058
      C   25   -0.28336      1.99948     4.25817    0.02571     6.28336
      C   26   -0.60193      1.99937     4.59053    0.01203     6.60193
      H   27    0.19616      0.00000     0.80155    0.00230     0.80384
      H   28    0.20056      0.00000     0.79784    0.00160     0.79944
      H   29    0.19990      0.00000     0.79856    0.00154     0.80010
      C   30   -0.60097      1.99937     4.58962    0.01197     6.60097
      H   31    0.20217      0.00000     0.79588    0.00196     0.79783
      H   32    0.21286      0.00000     0.78557    0.00156     0.78714
      H   33    0.20252      0.00000     0.79619    0.00129     0.79748
      C   34   -0.60169      1.99937     4.59011    0.01221     6.60169
      H   35    0.19802      0.00000     0.80048    0.00150     0.80198
      H   36    0.21415      0.00000     0.78436    0.00149     0.78585
      H   37    0.20256      0.00000     0.79546    0.00199     0.79744
      P   38    0.79838      9.99862     4.16681    0.03619    14.20162
      P   39    0.79828      9.99862     4.16688    0.03623    14.20172
 =======================================================================
   * Total *   -0.00000     41.99081    79.69495    0.31423   122.00000

 Normal termination of Gaussian 16 at Wed Nov  6 15:11:00 2024.
