 Gaussian 16, Revision B.01,
 Gaussian 16:  ES64L-G16RevB.01 20-Dec-2017

 --------------------------------------------
 # nmr=giao b3lyp/def2TZVP pop=nbo scfcyc=200
 --------------------------------------------

 --------------
 MB-13 SPE NoRh
 --------------
 Symbolic Z-matrix:
 Charge =  0 Multiplicity = 1

                         Standard orientation:
 ---------------------------------------------------------------------
 Center     Atomic      Atomic             Coordinates (Angstroms)
 Number     Number       Type             X           Y           Z
 ---------------------------------------------------------------------
      1         15           0       -1.387234   -0.059926   -0.680573
      2         15           0        1.399757   -0.084334   -0.680924
      3          6           0        0.001002   -0.733998    0.380433
      4          6           0       -3.292805    2.054353   -0.307335
      5          6           0       -3.814146    3.189915    0.576232
      6          6           0       -3.319701   -1.800863    0.587608
      7          6           0       -4.334951   -2.933044    0.411531
      8          6           0        3.282286    2.050476   -0.377561
      9          6           0        3.786210    3.233301    0.452641
     10          6           0        3.316639   -1.790580    0.654263
     11          6           0        4.338947   -2.921550    0.520635
     12          1           0       -0.008584   -1.824352    0.338786
     13          1           0        0.002956   -0.422760    1.425911
     14          1           0       -4.100007    1.338621   -0.488232
     15          1           0       -3.007507    2.456320   -1.282686
     16          1           0       -4.666868    3.684965    0.108649
     17          1           0       -3.043543    3.945512    0.746822
     18          1           0       -4.139094    2.818101    1.549957
     19          1           0       -3.809655   -0.949970    1.067469
     20          1           0       -2.528250   -2.126231    1.269202
     21          1           0       -4.760035   -3.225070    1.373094
     22          1           0       -5.159424   -2.629924   -0.237790
     23          1           0       -3.870103   -3.817679   -0.028971
     24          1           0        2.990762    2.401477   -1.371183
     25          1           0        4.100581    1.340410   -0.525427
     26          1           0        4.633380    3.718112   -0.035646
     27          1           0        3.004310    3.984128    0.587018
     28          1           0        4.114073    2.911803    1.443082
     29          1           0        2.515009   -2.104686    1.329351
     30          1           0        3.794860   -0.926600    1.123252
     31          1           0        4.749340   -3.189661    1.494749
     32          1           0        3.885643   -3.817957    0.091162
     33          1           0        5.172576   -2.628560   -0.122140
     34          6           0       -2.708782   -1.364849   -0.749649
     35          1           0       -2.252088   -2.216727   -1.260844
     36          1           0       -3.485549   -0.989240   -1.422175
     37          6           0       -2.092446    1.339212    0.323694
     38          1           0       -1.276517    2.048369    0.479800
     39          1           0       -2.357648    0.939889    1.306991
     40          6           0        2.092772    1.346276    0.284650
     41          1           0        2.366107    0.979973    1.278146
     42          1           0        1.270335    2.052677    0.420049
     43          6           0        2.725891   -1.387083   -0.701608
     44          1           0        3.512171   -1.023745   -1.369866
     45          1           0        2.279429   -2.252699   -1.199280
 ---------------------------------------------------------------------

 SCF Done:  E(RB3LYP) =  -1196.40947299     A.U. after   13 cycles

      1  P    Isotropic =   258.3405   Anisotropy =   113.4537

      2  P    Isotropic =   258.2275   Anisotropy =   112.5883

      3  C    Isotropic =   160.6285   Anisotropy =    16.6938

      4  C    Isotropic =   159.7161   Anisotropy =    16.1361

      5  C    Isotropic =   164.5343   Anisotropy =    32.0156

      6  C    Isotropic =   161.4656   Anisotropy =    12.5732

      7  C    Isotropic =   164.9188   Anisotropy =    32.3073

      8  C    Isotropic =   159.5615   Anisotropy =    16.3721

      9  C    Isotropic =   164.5674   Anisotropy =    32.0039

     10  C    Isotropic =   161.2686   Anisotropy =    12.7020

     11  C    Isotropic =   164.8948   Anisotropy =    32.3195

     12  H    Isotropic =    31.0332   Anisotropy =     5.8088

     13  H    Isotropic =    30.6360   Anisotropy =     3.2452

     14  H    Isotropic =    30.7668   Anisotropy =     6.1323

     15  H    Isotropic =    30.4945   Anisotropy =     6.7872

     16  H    Isotropic =    30.6679   Anisotropy =    11.0951

     17  H    Isotropic =    31.0118   Anisotropy =     7.9718

     18  H    Isotropic =    31.0308   Anisotropy =     7.8033

     19  H    Isotropic =    30.3993   Anisotropy =     5.9733

     20  H    Isotropic =    30.6751   Anisotropy =     5.6928

     21  H    Isotropic =    30.7163   Anisotropy =    10.8293

     22  H    Isotropic =    31.1424   Anisotropy =     8.5588

     23  H    Isotropic =    31.1400   Anisotropy =     8.2698

     24  H    Isotropic =    30.4805   Anisotropy =     6.7455

     25  H    Isotropic =    30.7620   Anisotropy =     6.1469

     26  H    Isotropic =    30.6651   Anisotropy =    11.0895

     27  H    Isotropic =    31.0162   Anisotropy =     7.9515

     28  H    Isotropic =    31.0261   Anisotropy =     7.8259

     29  H    Isotropic =    30.6804   Anisotropy =     5.7223

     30  H    Isotropic =    30.3859   Anisotropy =     5.9034

     31  H    Isotropic =    30.7314   Anisotropy =    10.8253

     32  H    Isotropic =    31.1365   Anisotropy =     8.2571

     33  H    Isotropic =    31.1444   Anisotropy =     8.5431

     34  C    Isotropic =   148.1547   Anisotropy =    38.8590

     35  H    Isotropic =    30.4819   Anisotropy =     5.1299

     36  H    Isotropic =    30.4637   Anisotropy =     5.5820

     37  C    Isotropic =   152.0597   Anisotropy =    48.4540

     38  H    Isotropic =    30.8066   Anisotropy =     7.5416

     39  H    Isotropic =    29.9642   Anisotropy =     3.3689

     40  C    Isotropic =   152.7042   Anisotropy =    48.0141

     41  H    Isotropic =    29.9885   Anisotropy =     3.2822

     42  H    Isotropic =    30.8034   Anisotropy =     7.6222

     43  C    Isotropic =   147.6893   Anisotropy =    39.1782

     44  H    Isotropic =    30.4726   Anisotropy =     5.4758

     45  H    Isotropic =    30.4781   Anisotropy =     5.0775

 The electronic state is 1-A.
 Alpha  occ. eigenvalues --  -77.03033 -77.02994 -10.17476 -10.17086 -10.17068
 Alpha  occ. eigenvalues --  -10.16921 -10.16877 -10.16808 -10.16785 -10.16678
 Alpha  occ. eigenvalues --  -10.16615 -10.16015 -10.16001 -10.15936 -10.15905
 Alpha  occ. eigenvalues --   -6.51627  -6.51589  -4.67793  -4.67756  -4.67732
 Alpha  occ. eigenvalues --   -4.67693  -4.67237  -4.67199  -0.79993  -0.79477
 Alpha  occ. eigenvalues --   -0.78256  -0.78227  -0.74162  -0.70662  -0.67944
 Alpha  occ. eigenvalues --   -0.67915  -0.67801  -0.60127  -0.59685  -0.59379
 Alpha  occ. eigenvalues --   -0.59337  -0.52686  -0.52046  -0.47550  -0.47344
 Alpha  occ. eigenvalues --   -0.46388  -0.46166  -0.44124  -0.42961  -0.42886
 Alpha  occ. eigenvalues --   -0.41504  -0.41406  -0.41157  -0.40761  -0.40077
 Alpha  occ. eigenvalues --   -0.39750  -0.38594  -0.38334  -0.38114  -0.37700
 Alpha  occ. eigenvalues --   -0.35349  -0.34926  -0.34890  -0.34780  -0.34153
 Alpha  occ. eigenvalues --   -0.33948  -0.33906  -0.33467  -0.33291  -0.30632
 Alpha  occ. eigenvalues --   -0.30332  -0.29371  -0.21594  -0.17645
 Alpha virt. eigenvalues --    0.01653   0.02195   0.02586   0.03498   0.04475
 Alpha virt. eigenvalues --    0.04910   0.05351   0.06285   0.06362   0.06434
 Alpha virt. eigenvalues --    0.07125   0.07652   0.07877   0.08436   0.09714

 Mulliken charges:
               1
     1  P    0.205194
     2  P    0.206149
     3  C   -0.375108
     4  C   -0.162491
     5  C   -0.323001
     6  C   -0.162382
     7  C   -0.318691
     8  C   -0.162574
     9  C   -0.322989
    10  C   -0.161566
    11  C   -0.318543
    12  H    0.120425
    13  H    0.114242
    14  H    0.090790
    15  H    0.097558
    16  H    0.111020
    17  H    0.101547
    18  H    0.100550
    19  H    0.091937
    20  H    0.090182
    21  H    0.107603
    22  H    0.101510
    23  H    0.100987
    24  H    0.097981
    25  H    0.090701
    26  H    0.111085
    27  H    0.101563
    28  H    0.100435
    29  H    0.089952
    30  H    0.091180
    31  H    0.107494
    32  H    0.100743
    33  H    0.101246
    34  C   -0.304744
    35  H    0.108823
    36  H    0.115123
    37  C   -0.288088
    38  H    0.105781
    39  H    0.100743
    40  C   -0.287934
    41  H    0.100785
    42  H    0.105158
    43  C   -0.302591
    44  H    0.114472
    45  H    0.107742
 Sum of Mulliken charges =  -0.00000

 Dipole moment (field-independent basis, Debye):
    X=             -0.0327    Y=             -0.4684    Z=              1.9456  Tot=              2.0014
 Quadrupole moment (field-independent basis, Debye-Ang):
   XX=           -111.2666   YY=           -113.3871   ZZ=           -121.2156
   XY=              0.1030   XZ=              0.0615   YZ=              0.5558

 Summary of Natural Population Analysis:

                                       Natural Population
                Natural  -----------------------------------------------
    Atom  No    Charge         Core      Valence    Rydberg      Total
 -----------------------------------------------------------------------
      P    1    0.79861      9.99874     4.16520    0.03746    14.20139
      P    2    0.79861      9.99874     4.16513    0.03752    14.20139
      C    3   -1.02233      1.99947     4.99102    0.03184     7.02233
      C    4   -0.38629      1.99945     4.37169    0.01516     6.38629
      C    5   -0.58212      1.99947     4.57613    0.00653     6.58212
      C    6   -0.38909      1.99946     4.37575    0.01389     6.38909
      C    7   -0.58509      1.99947     4.57877    0.00685     6.58509
      C    8   -0.38639      1.99945     4.37176    0.01518     6.38639
      C    9   -0.58215      1.99947     4.57617    0.00652     6.58215
      C   10   -0.38904      1.99946     4.37568    0.01390     6.38904
      C   11   -0.58507      1.99947     4.57875    0.00685     6.58507
      H   12    0.24343      0.00000     0.75485    0.00172     0.75657
      H   13    0.23124      0.00000     0.76599    0.00277     0.76876
      H   14    0.18778      0.00000     0.81014    0.00209     0.81222
      H   15    0.20104      0.00000     0.79674    0.00222     0.79896
      H   16    0.20272      0.00000     0.79609    0.00119     0.79728
      H   17    0.19528      0.00000     0.80317    0.00155     0.80472
      H   18    0.19476      0.00000     0.80376    0.00148     0.80524
      H   19    0.18781      0.00000     0.81029    0.00190     0.81219
      H   20    0.18782      0.00000     0.81004    0.00214     0.81218
      H   21    0.20060      0.00000     0.79808    0.00132     0.79940
      H   22    0.19506      0.00000     0.80340    0.00154     0.80494
      H   23    0.19422      0.00000     0.80422    0.00156     0.80578
      H   24    0.20148      0.00000     0.79629    0.00224     0.79852
      H   25    0.18781      0.00000     0.81011    0.00208     0.81219
      H   26    0.20280      0.00000     0.79601    0.00118     0.79720
      H   27    0.19525      0.00000     0.80320    0.00155     0.80475
      H   28    0.19472      0.00000     0.80380    0.00148     0.80528
      H   29    0.18768      0.00000     0.81017    0.00214     0.81232
      H   30    0.18752      0.00000     0.81059    0.00190     0.81248
      H   31    0.20051      0.00000     0.79816    0.00133     0.79949
      H   32    0.19414      0.00000     0.80430    0.00156     0.80586
      H   33    0.19492      0.00000     0.80354    0.00154     0.80508
      C   34   -0.69000      1.99942     4.66811    0.02246     6.69000
      H   35    0.21743      0.00000     0.78104    0.00152     0.78257
      H   36    0.22068      0.00000     0.77780    0.00152     0.77932
      C   37   -0.68699      1.99942     4.66410    0.02348     6.68699
      H   38    0.21483      0.00000     0.78314    0.00203     0.78517
      H   39    0.19534      0.00000     0.80108    0.00358     0.80466
      C   40   -0.68732      1.99942     4.66442    0.02349     6.68732
      H   41    0.19571      0.00000     0.80069    0.00360     0.80429
      H   42    0.21515      0.00000     0.78280    0.00205     0.78485
      C   43   -0.69045      1.99942     4.66852    0.02251     6.69045
      H   44    0.22033      0.00000     0.77814    0.00153     0.77967
      H   45    0.21707      0.00000     0.78142    0.00152     0.78293
 =======================================================================
   * Total *    0.00000     45.99033    91.67022    0.33945   138.00000

 Normal termination of Gaussian 16 at Thu Jan 23 19:44:56 2025.
