 Gaussian 16, Revision B.01,
 Gaussian 16:  ES64L-G16RevB.01 20-Dec-2017

 --------------------------------------------
 # nmr=giao b3lyp/def2TZVP pop=nbo scfcyc=200
 --------------------------------------------

 ---------------
 MB-102 SPE NoRh
 ---------------
 Symbolic Z-matrix:
 Charge =  0 Multiplicity = 1

                         Standard orientation:
 ---------------------------------------------------------------------
 Center     Atomic      Atomic             Coordinates (Angstroms)
 Number     Number       Type             X           Y           Z
 ---------------------------------------------------------------------
      1         15           0        1.141395   -0.273234   -0.656119
      2          6           0        2.735916   -1.218354   -0.402728
      3          6           0        2.723429   -2.593243   -0.067286
      4          6           0        3.934820   -3.254603    0.138899
      5          6           0        5.165664   -2.627352   -0.009580
      6          6           0        5.156254   -1.306807   -0.446256
      7          6           0        3.979546   -0.592184   -0.667574
      8          1           0        6.100634   -0.812962   -0.645699
      9          1           0        3.907506   -4.305676    0.405839
     10          6           0        1.396273    1.493417   -0.104224
     11          6           0        1.137554    2.573858   -0.977855
     12          6           0        1.261849    3.878464   -0.497806
     13          6           0        1.654573    4.161207    0.805910
     14          6           0        1.916335    3.084280    1.645623
     15          6           0        1.791302    1.759297    1.229145
     16          1           0        2.227574    3.274487    2.666855
     17          1           0        1.053839    4.698684   -1.174428
     18          6           0       -0.218858   -0.771068    0.554081
     19         15           0       -1.641850   -0.683436   -0.661432
     20          1           0       -0.102557   -1.786528    0.911483
     21          1           0       -0.309900   -0.109036    1.411072
     22          6           0       -2.791737   -2.118560   -0.245423
     23          6           0       -3.022896   -2.400322    1.251756
     24          6           0       -4.133470   -2.041121   -0.998298
     25          1           0       -2.231961   -2.967784   -0.654476
     26          6           0       -3.831288   -3.694517    1.436808
     27          1           0       -3.567884   -1.572181    1.708777
     28          1           0       -2.073175   -2.484541    1.783891
     29          6           0       -4.944147   -3.330856   -0.806621
     30          1           0       -4.716293   -1.196816   -0.616824
     31          1           0       -3.974829   -1.855220   -2.063532
     32          6           0       -5.159257   -3.648201    0.675517
     33          1           0       -4.008222   -3.861916    2.501845
     34          1           0       -3.236217   -4.544807    1.081700
     35          1           0       -5.904629   -3.237348   -1.319889
     36          1           0       -4.415406   -4.163345   -1.285185
     37          1           0       -5.687328   -4.598396    0.783670
     38          1           0       -5.804930   -2.882932    1.120056
     39          6           0       -2.427681    0.992232   -0.312122
     40          6           0       -3.312908    1.502545   -1.465312
     41          6           0       -3.150874    1.124615    1.039102
     42          1           0       -1.541261    1.637132   -0.277163
     43          6           0       -3.761881    2.949179   -1.211394
     44          1           0       -4.197273    0.866846   -1.568243
     45          1           0       -2.768151    1.445230   -2.409528
     46          6           0       -3.584648    2.578609    1.283648
     47          1           0       -4.039734    0.488755    1.044309
     48          1           0       -2.513714    0.786047    1.859379
     49          6           0       -4.460501    3.102974    0.143251
     50          1           0       -4.423224    3.273101   -2.019437
     51          1           0       -2.885483    3.605779   -1.243462
     52          1           0       -4.118733    2.642821    2.234902
     53          1           0       -2.694016    3.208126    1.381430
     54          1           0       -4.717532    4.150211    0.316352
     55          1           0       -5.407052    2.549799    0.128908
     56          6           0        2.092266    0.701978    2.270531
     57          1           0        2.893294    1.046137    2.924624
     58          1           0        1.222842    0.521590    2.910027
     59          1           0        2.400846   -0.250009    1.850050
     60          6           0        0.775712    2.424822   -2.434419
     61          1           0        1.668598    2.255907   -3.043544
     62          1           0        0.098377    1.588083   -2.623154
     63          1           0        0.305131    3.337272   -2.802559
     64          6           0        1.821252    5.579614    1.282091
     65          1           0        1.598283    5.672705    2.345806
     66          1           0        2.851480    5.917066    1.133295
     67          1           0        1.171895    6.263737    0.734741
     68          6           0        4.141042    0.803502   -1.226896
     69          1           0        3.409128    1.028490   -2.002047
     70          1           0        4.050282    1.573476   -0.461476
     71          1           0        5.128720    0.900462   -1.677085
     72          6           0        1.477324   -3.443599    0.041498
     73          1           0        1.054315   -3.432948    1.049298
     74          1           0        0.702876   -3.138529   -0.663662
     75          1           0        1.727692   -4.481697   -0.177485
     76          6           0        6.454756   -3.350789    0.268202
     77          1           0        6.767040   -3.196296    1.305228
     78          1           0        6.350279   -4.425899    0.117030
     79          1           0        7.261379   -2.991125   -0.372039
 ---------------------------------------------------------------------

 SCF Done:  E(RB3LYP) =  -1892.20597699     A.U. after   14 cycles

      1  P    Isotropic =   255.4385   Anisotropy =    98.3269

      2  C    Isotropic =    34.4069   Anisotropy =   165.6934

      3  C    Isotropic =    39.0151   Anisotropy =   182.6922

      4  C    Isotropic =    48.0584   Anisotropy =   130.9980

      5  C    Isotropic =    41.8409   Anisotropy =   189.2530

      6  C    Isotropic =    47.3252   Anisotropy =   130.5944

      7  C    Isotropic =    38.9144   Anisotropy =   185.0307

      8  H    Isotropic =    25.0854   Anisotropy =     9.6790

      9  H    Isotropic =    24.9085   Anisotropy =     9.6632

     10  C    Isotropic =    36.8765   Anisotropy =   171.9790

     11  C    Isotropic =    31.1095   Anisotropy =   197.9612

     12  C    Isotropic =    48.7808   Anisotropy =   134.0537

     13  C    Isotropic =    36.8368   Anisotropy =   198.3869

     14  C    Isotropic =    48.7626   Anisotropy =   141.6468

     15  C    Isotropic =    28.4128   Anisotropy =   195.4374

     16  H    Isotropic =    24.7641   Anisotropy =     9.4399

     17  H    Isotropic =    24.7468   Anisotropy =     8.4212

     18  C    Isotropic =   158.0078   Anisotropy =    25.7153

     19  P    Isotropic =   228.9514   Anisotropy =    97.5115

     20  H    Isotropic =    29.0105   Anisotropy =     9.0179

     21  H    Isotropic =    30.1463   Anisotropy =     5.7684

     22  C    Isotropic =   134.2497   Anisotropy =    26.5818

     23  C    Isotropic =   149.1141   Anisotropy =    13.2198

     24  C    Isotropic =   149.5982   Anisotropy =     9.6163

     25  H    Isotropic =    30.0966   Anisotropy =     4.2281

     26  C    Isotropic =   150.3216   Anisotropy =     9.1160

     27  H    Isotropic =    30.5368   Anisotropy =     6.6584

     28  H    Isotropic =    30.0064   Anisotropy =     7.4017

     29  C    Isotropic =   150.4187   Anisotropy =     7.8479

     30  H    Isotropic =    30.7066   Anisotropy =     7.4349

     31  H    Isotropic =    29.8838   Anisotropy =     5.3478

     32  C    Isotropic =   152.1870   Anisotropy =     3.3146

     33  H    Isotropic =    30.1590   Anisotropy =     9.4643

     34  H    Isotropic =    30.7818   Anisotropy =     7.8357

     35  H    Isotropic =    30.0794   Anisotropy =     9.9520

     36  H    Isotropic =    30.6421   Anisotropy =     8.2696

     37  H    Isotropic =    30.2211   Anisotropy =    10.8243

     38  H    Isotropic =    30.6799   Anisotropy =     7.8115

     39  C    Isotropic =   137.0179   Anisotropy =    22.9301

     40  C    Isotropic =   146.3252   Anisotropy =    16.9062

     41  C    Isotropic =   148.1323   Anisotropy =    11.3781

     42  H    Isotropic =    31.2109   Anisotropy =    11.8641

     43  C    Isotropic =   150.6917   Anisotropy =     7.1296

     44  H    Isotropic =    30.6361   Anisotropy =     6.7313

     45  H    Isotropic =    29.8640   Anisotropy =     4.6061

     46  C    Isotropic =   150.8279   Anisotropy =     8.4104

     47  H    Isotropic =    30.6717   Anisotropy =     7.9911

     48  H    Isotropic =    30.2960   Anisotropy =     4.1574

     49  C    Isotropic =   152.7596   Anisotropy =     3.1152

     50  H    Isotropic =    30.2234   Anisotropy =    10.0342

     51  H    Isotropic =    30.8430   Anisotropy =     7.0703

     52  H    Isotropic =    30.4178   Anisotropy =     9.5262

     53  H    Isotropic =    31.3966   Anisotropy =     6.8514

     54  H    Isotropic =    30.4372   Anisotropy =    10.4607

     55  H    Isotropic =    30.8248   Anisotropy =     8.9251

     56  C    Isotropic =   158.6559   Anisotropy =    30.8261

     57  H    Isotropic =    29.9557   Anisotropy =     8.3157

     58  H    Isotropic =    29.5434   Anisotropy =     5.8784

     59  H    Isotropic =    29.6928   Anisotropy =    10.5288

     60  C    Isotropic =   157.4185   Anisotropy =    32.2246

     61  H    Isotropic =    29.2681   Anisotropy =     7.4541

     62  H    Isotropic =    28.3781   Anisotropy =     6.1643

     63  H    Isotropic =    29.7068   Anisotropy =     6.9241

     64  C    Isotropic =   160.7357   Anisotropy =    42.0195

     65  H    Isotropic =    29.7126   Anisotropy =     7.5285

     66  H    Isotropic =    29.3476   Anisotropy =     9.3075

     67  H    Isotropic =    29.7316   Anisotropy =     7.3041

     68  C    Isotropic =   157.9599   Anisotropy =    25.9583

     69  H    Isotropic =    30.3552   Anisotropy =     6.6690

     70  H    Isotropic =    30.8054   Anisotropy =     9.5218

     71  H    Isotropic =    30.2912   Anisotropy =     9.6720

     72  C    Isotropic =   155.2070   Anisotropy =    23.6991

     73  H    Isotropic =    29.0978   Anisotropy =     5.4255

     74  H    Isotropic =    29.5196   Anisotropy =     7.3025

     75  H    Isotropic =    29.5446   Anisotropy =     8.2906

     76  C    Isotropic =   160.8837   Anisotropy =    42.3867

     77  H    Isotropic =    29.4888   Anisotropy =     8.8157

     78  H    Isotropic =    29.7947   Anisotropy =     7.7203

     79  H    Isotropic =    29.7675   Anisotropy =     7.8986

 The electronic state is 1-A.
 Alpha  occ. eigenvalues --  -77.04342 -77.02837 -10.18539 -10.18511 -10.18267
 Alpha  occ. eigenvalues --  -10.18057 -10.17890 -10.17772 -10.17716 -10.17367
 Alpha  occ. eigenvalues --  -10.17301 -10.17241 -10.17122 -10.17004 -10.16741
 Alpha  occ. eigenvalues --  -10.16609 -10.16444 -10.16415 -10.16395 -10.16327
 Alpha  occ. eigenvalues --  -10.16287 -10.16287 -10.16246 -10.16240 -10.16219
 Alpha  occ. eigenvalues --  -10.16130 -10.16067 -10.16044 -10.15988 -10.15968
 Alpha  occ. eigenvalues --  -10.15936 -10.15830 -10.15717  -6.52823  -6.51427
 Alpha  occ. eigenvalues --   -4.68986  -4.68940  -4.68466  -4.67594  -4.67527
 Alpha  occ. eigenvalues --   -4.67049  -0.86391  -0.85689  -0.83367  -0.82726
 Alpha  occ. eigenvalues --   -0.78876  -0.78263  -0.78053  -0.77525  -0.75851
 Alpha  occ. eigenvalues --   -0.74206  -0.73882  -0.73523  -0.72458  -0.70143
 Alpha  occ. eigenvalues --   -0.69992  -0.68710  -0.67922  -0.67539  -0.67197
 Alpha  occ. eigenvalues --   -0.62499  -0.61117  -0.60476  -0.60288  -0.59213
 Alpha  occ. eigenvalues --   -0.57495  -0.57142  -0.56775  -0.56131  -0.55011
 Alpha  occ. eigenvalues --   -0.54079  -0.52586  -0.48767  -0.48412  -0.47908
 Alpha  occ. eigenvalues --   -0.47753  -0.46741  -0.45832  -0.44547  -0.44462
 Alpha  occ. eigenvalues --   -0.44130  -0.43922  -0.43650  -0.43178  -0.42913
 Alpha  occ. eigenvalues --   -0.42723  -0.42664  -0.42139  -0.41856  -0.41678
 Alpha  occ. eigenvalues --   -0.41444  -0.41319  -0.40572  -0.40390  -0.40004
 Alpha  occ. eigenvalues --   -0.39816  -0.39517  -0.39387  -0.38998  -0.38601
 Alpha  occ. eigenvalues --   -0.38311  -0.38031  -0.37772  -0.37672  -0.37272
 Alpha  occ. eigenvalues --   -0.36595  -0.36355  -0.35932  -0.35121  -0.35090
 Alpha  occ. eigenvalues --   -0.34805  -0.34201  -0.33920  -0.33873  -0.33697
 Alpha  occ. eigenvalues --   -0.33459  -0.33172  -0.32556  -0.31967  -0.31331
 Alpha  occ. eigenvalues --   -0.30993  -0.30622  -0.30098  -0.29114  -0.27495
 Alpha  occ. eigenvalues --   -0.25460  -0.24169  -0.24007  -0.23560  -0.20685
 Alpha  occ. eigenvalues --   -0.17503
 Alpha virt. eigenvalues --   -0.02443  -0.01476  -0.01110  -0.00485   0.01723
 Alpha virt. eigenvalues --    0.02254   0.02790   0.03168   0.04051   0.04427
 Alpha virt. eigenvalues --    0.04574   0.05328   0.05418   0.05814   0.06029

 Mulliken charges:
               1
     1  P    0.113402
     2  C   -0.222161
     3  C    0.202985
     4  C   -0.303047
     5  C    0.208371
     6  C   -0.306024
     7  C    0.214616
     8  H    0.081449
     9  H    0.081187
    10  C   -0.240691
    11  C    0.263295
    12  C   -0.315074
    13  C    0.234090
    14  C   -0.334873
    15  C    0.165839
    16  H    0.084637
    17  H    0.084472
    18  C   -0.346239
    19  P    0.137503
    20  H    0.124925
    21  H    0.111521
    22  C   -0.074409
    23  C   -0.203281
    24  C   -0.218612
    25  H    0.067633
    26  C   -0.160061
    27  H    0.091207
    28  H    0.093466
    29  C   -0.158520
    30  H    0.079335
    31  H    0.107047
    32  C   -0.155180
    33  H    0.089568
    34  H    0.078516
    35  H    0.091427
    36  H    0.082127
    37  H    0.091664
    38  H    0.074945
    39  C   -0.084829
    40  C   -0.191073
    41  C   -0.220286
    42  H    0.083394
    43  C   -0.172644
    44  H    0.090163
    45  H    0.101267
    46  C   -0.162941
    47  H    0.074652
    48  H    0.101045
    49  C   -0.154863
    50  H    0.090516
    51  H    0.085711
    52  H    0.086417
    53  H    0.090311
    54  H    0.090477
    55  H    0.073618
    56  C   -0.361943
    57  H    0.119225
    58  H    0.117447
    59  H    0.159060
    60  C   -0.353036
    61  H    0.118661
    62  H    0.149804
    63  H    0.107631
    64  C   -0.368124
    65  H    0.117148
    66  H    0.123754
    67  H    0.116349
    68  C   -0.343671
    69  H    0.113859
    70  H    0.134645
    71  H    0.111727
    72  C   -0.435913
    73  H    0.123240
    74  H    0.150123
    75  H    0.121979
    76  C   -0.366801
    77  H    0.119549
    78  H    0.112974
    79  H    0.114320
 Sum of Mulliken charges =  -0.00000

 Dipole moment (field-independent basis, Debye):
    X=             -0.3477    Y=              0.6531    Z=              1.9462  Tot=              2.0821
 Quadrupole moment (field-independent basis, Debye-Ang):
   XX=           -215.0640   YY=           -209.5688   ZZ=           -223.8829
   XY=              1.9651   XZ=              1.5193   YZ=             -2.6706

 Summary of Natural Population Analysis:

                                       Natural Population
                Natural  -----------------------------------------------
    Atom  No    Charge         Core      Valence    Rydberg      Total
 -----------------------------------------------------------------------
      P    1    0.79970      9.99812     4.17163    0.03055    14.20030
      C    2   -0.31300      1.99882     4.28676    0.02743     6.31300
      C    3   -0.01939      1.99905     4.00048    0.01986     6.01939
      C    4   -0.20531      1.99899     4.18955    0.01677     6.20531
      C    5   -0.01646      1.99909     3.99924    0.01814     6.01646
      C    6   -0.20375      1.99900     4.18783    0.01692     6.20375
      C    7   -0.00803      1.99904     3.99068    0.01831     6.00803
      H    8    0.19472      0.00000     0.80353    0.00175     0.80528
      H    9    0.19395      0.00000     0.80429    0.00176     0.80605
      C   10   -0.31801      1.99882     4.28933    0.02987     6.31801
      C   11    0.00441      1.99904     3.97525    0.02131     5.99559
      C   12   -0.21958      1.99899     4.20511    0.01549     6.21958
      C   13    0.00436      1.99909     3.97842    0.01813     5.99564
      C   14   -0.21725      1.99898     4.20108    0.01718     6.21725
      C   15    0.00428      1.99903     3.97548    0.02121     5.99572
      H   16    0.19550      0.00000     0.80271    0.00179     0.80450
      H   17    0.19660      0.00000     0.80116    0.00225     0.80340
      C   18   -1.00113      1.99944     4.97081    0.03089     7.00113
      P   19    0.80260      9.99852     4.16504    0.03384    14.19740
      H   20    0.24746      0.00000     0.75049    0.00205     0.75254
      H   21    0.23063      0.00000     0.76601    0.00336     0.76937
      C   22   -0.47927      1.99937     4.45562    0.02428     6.47927
      C   23   -0.39303      1.99938     4.37964    0.01401     6.39303
      C   24   -0.39229      1.99938     4.37797    0.01493     6.39229
      H   25    0.20693      0.00000     0.79047    0.00260     0.79307
      C   26   -0.38311      1.99943     4.37016    0.01352     6.38311
      H   27    0.19072      0.00000     0.80717    0.00210     0.80928
      H   28    0.19502      0.00000     0.80289    0.00210     0.80498
      C   29   -0.38075      1.99943     4.36777    0.01355     6.38075
      H   30    0.18572      0.00000     0.81194    0.00233     0.81428
      H   31    0.21190      0.00000     0.78609    0.00201     0.78810
      C   32   -0.38630      1.99942     4.37349    0.01339     6.38630
      H   33    0.19982      0.00000     0.79873    0.00145     0.80018
      H   34    0.18576      0.00000     0.81240    0.00185     0.81424
      H   35    0.20147      0.00000     0.79716    0.00137     0.79853
      H   36    0.18812      0.00000     0.81006    0.00181     0.81188
      H   37    0.20144      0.00000     0.79721    0.00134     0.79856
      H   38    0.18646      0.00000     0.81171    0.00183     0.81354
      C   39   -0.48828      1.99937     4.46346    0.02544     6.48828
      C   40   -0.39154      1.99938     4.37583    0.01633     6.39154
      C   41   -0.39199      1.99938     4.37792    0.01469     6.39199
      H   42    0.22169      0.00000     0.77516    0.00314     0.77831
      C   43   -0.38237      1.99943     4.36936    0.01359     6.38237
      H   44    0.18766      0.00000     0.81010    0.00223     0.81234
      H   45    0.21218      0.00000     0.78584    0.00197     0.78782
      C   46   -0.38296      1.99942     4.37025    0.01329     6.38296
      H   47    0.18431      0.00000     0.81329    0.00240     0.81569
      H   48    0.19813      0.00000     0.80022    0.00165     0.80187
      C   49   -0.38565      1.99943     4.37299    0.01323     6.38565
      H   50    0.20090      0.00000     0.79773    0.00137     0.79910
      H   51    0.18868      0.00000     0.80963    0.00169     0.81132
      H   52    0.19833      0.00000     0.80016    0.00151     0.80167
      H   53    0.18745      0.00000     0.81070    0.00185     0.81255
      H   54    0.20086      0.00000     0.79779    0.00135     0.79914
      H   55    0.18578      0.00000     0.81245    0.00177     0.81422
      C   56   -0.62533      1.99938     4.61334    0.01261     6.62533
      H   57    0.21457      0.00000     0.78436    0.00107     0.78543
      H   58    0.21104      0.00000     0.78754    0.00141     0.78896
      H   59    0.22889      0.00000     0.76946    0.00165     0.77111
      C   60   -0.62201      1.99939     4.61064    0.01198     6.62201
      H   61    0.21474      0.00000     0.78386    0.00140     0.78526
      H   62    0.23438      0.00000     0.76409    0.00153     0.76562
      H   63    0.20637      0.00000     0.79250    0.00113     0.79363
      C   64   -0.60957      1.99941     4.59828    0.01187     6.60957
      H   65    0.21136      0.00000     0.78756    0.00107     0.78864
      H   66    0.21598      0.00000     0.78274    0.00128     0.78402
      H   67    0.21105      0.00000     0.78785    0.00110     0.78895
      C   68   -0.61353      1.99939     4.60206    0.01208     6.61353
      H   69    0.21070      0.00000     0.78687    0.00243     0.78930
      H   70    0.22112      0.00000     0.77678    0.00209     0.77888
      H   71    0.20875      0.00000     0.79007    0.00118     0.79125
      C   72   -0.61319      1.99940     4.60160    0.01219     6.61319
      H   73    0.20600      0.00000     0.79261    0.00140     0.79400
      H   74    0.21460      0.00000     0.78389    0.00151     0.78540
      H   75    0.21497      0.00000     0.78395    0.00109     0.78503
      C   76   -0.60591      1.99941     4.59493    0.01157     6.60591
      H   77    0.21230      0.00000     0.78637    0.00133     0.78770
      H   78    0.20890      0.00000     0.78999    0.00111     0.79110
      H   79    0.20971      0.00000     0.78918    0.00112     0.79029
 =======================================================================
   * Total *    0.00000     81.97321   179.34878    0.67801   262.00000

 Normal termination of Gaussian 16 at Fri Jan 24 02:21:51 2025.
