 Gaussian 16, Revision B.01,
 Gaussian 16:  ES64L-G16RevB.01 20-Dec-2017

 --------------------------------------------
 # nmr=giao b3lyp/def2TZVP pop=nbo scfcyc=200
 --------------------------------------------

 ------------------
 Ligand 87 SPE NoRh
 ------------------
 Symbolic Z-matrix:
 Charge =  0 Multiplicity = 1

                         Standard orientation:
 ---------------------------------------------------------------------
 Center     Atomic      Atomic             Coordinates (Angstroms)
 Number     Number       Type             X           Y           Z
 ---------------------------------------------------------------------
      1         15           0       -3.419389    0.977625   -0.259980
      2         15           0       -0.733202    0.388154   -0.620841
      3          6           0        2.654071   -1.949465    1.279834
      4          8           0        0.020359   -0.990112   -1.130813
      5          6           0        1.950854   -1.232589    0.256563
      6          6           0       -2.514442    3.090107    1.297779
      7          1           0       -2.727991    3.967620    1.912670
      8          1           0       -2.010626    3.437141    0.395287
      9          1           0       -1.817134    2.467259    1.856748
     10          8           0        0.403976    1.086962    0.373483
     11          6           0       -4.386610   -1.226387   -1.645817
     12          1           0       -3.496669   -1.795241   -1.373668
     13          1           0       -4.174238   -0.695256   -2.573291
     14          1           0       -5.180267   -1.951482   -1.843601
     15          6           0       -4.852261   -0.275977   -0.528256
     16          6           0       -3.840455    2.374733    0.986068
     17          6           0       -2.056022   -0.032888    0.585447
     18          1           0       -1.836201    0.236217    1.616080
     19          1           0       -2.270672   -1.100313    0.535984
     20          6           0        2.157046   -3.224688    1.687884
     21          6           0        0.768617   -1.756136   -0.220214
     22          6           0        3.959343   -3.428727    3.296965
     23          1           0        4.474906   -3.986985    4.068221
     24          6           0        5.718168   -0.849601   -1.893919
     25          1           0        6.295572   -1.731678   -2.140062
     26          6           0        4.514732   -0.982811   -1.247404
     27          1           0        4.152537   -1.967300   -0.989403
     28          6           0       -4.458267    1.852109    2.290831
     29          1           0       -4.500788    2.673319    3.011627
     30          1           0       -3.869150    1.054124    2.746754
     31          1           0       -5.476159    1.493465    2.151918
     32          6           0       -5.171693   -1.108452    0.723981
     33          1           0       -5.935956   -1.845216    0.463008
     34          1           0       -5.563827   -0.510449    1.542489
     35          1           0       -4.308280   -1.666412    1.088236
     36          6           0        0.273136   -3.036888    0.141403
     37          6           0        1.710068    1.215160   -0.124813
     38          6           0       -4.789934    3.394490    0.334385
     39          1           0       -5.751128    2.969458    0.054659
     40          1           0       -4.343481    3.854507   -0.547050
     41          1           0       -4.984801    4.195762    1.051410
     42          6           0        2.844795   -3.949559    2.693867
     43          1           0        2.466168   -4.922824    2.983884
     44          6           0        3.734071    0.154942   -0.922021
     45          6           0        3.799682   -1.434033    1.936596
     46          1           0        4.175457   -0.458528    1.664352
     47          6           0        2.464429    0.067366   -0.265891
     48          6           0        4.431790   -2.154346    2.919511
     49          1           0        5.301382   -1.738869    3.413229
     50          6           0        4.219593    1.441989   -1.306793
     51          6           0        5.475144    1.545229   -1.956750
     52          1           0        5.840600    2.527831   -2.229407
     53          6           0        0.992017   -3.742158    1.081716
     54          1           0        0.661962   -4.734914    1.360831
     55          6           0        2.199480    2.512848   -0.438447
     56          6           0        6.210580    0.425459   -2.245183
     57          1           0        7.165919    0.514157   -2.746308
     58          6           0        3.446751    2.587592   -1.017662
     59          1           0        3.862995    3.562097   -1.243108
     60          6           0       -6.118341    0.462378   -0.991714
     61          1           0       -6.853054   -0.274645   -1.327137
     62          1           0       -5.929171    1.137267   -1.828104
     63          1           0       -6.580601    1.034095   -0.187678
     64          6           0       -0.932634   -3.646494   -0.480454
     65          6           0       -1.903341   -4.260923    0.319962
     66          6           0       -1.078389   -3.709108   -1.871504
     67          6           0       -2.981947   -4.929181   -0.251915
     68          1           0       -1.808565   -4.220991    1.398686
     69          6           0       -2.151876   -4.382957   -2.442136
     70          1           0       -0.330983   -3.255527   -2.508278
     71          6           0       -3.106423   -4.997166   -1.634877
     72          1           0       -3.716637   -5.405723    0.384506
     73          1           0       -2.235614   -4.443706   -3.519952
     74          1           0       -3.936838   -5.529848   -2.082603
     75          6           0        1.466875    3.761972   -0.102114
     76          6           0        1.331179    4.783384   -1.049366
     77          6           0        1.001202    3.991440    1.196806
     78          6           0        0.747301    5.999102   -0.709815
     79          1           0        1.696847    4.626938   -2.057485
     80          6           0        0.427996    5.210452    1.539400
     81          1           0        1.116271    3.222787    1.949362
     82          6           0        0.295565    6.218321    0.587795
     83          1           0        0.658905    6.779926   -1.454728
     84          1           0        0.096936    5.379962    2.556267
     85          1           0       -0.144537    7.169266    0.858215
 ---------------------------------------------------------------------

 SCF Done:  E(RB3LYP) =  -2420.33734692     A.U. after   15 cycles

      1  P    Isotropic =   221.8737   Anisotropy =    32.8930

      2  P    Isotropic =    22.1944   Anisotropy =   304.1032

      3  C    Isotropic =    42.4156   Anisotropy =   203.7420

      4  O    Isotropic =   160.7355   Anisotropy =    75.9632

      5  C    Isotropic =    48.9847   Anisotropy =   138.5620

      6  C    Isotropic =   149.9059   Anisotropy =    49.3625

      7  H    Isotropic =    31.7998   Anisotropy =     8.1304

      8  H    Isotropic =    31.9503   Anisotropy =    14.1278

      9  H    Isotropic =    31.2838   Anisotropy =     7.0803

     10  O    Isotropic =   157.0610   Anisotropy =    76.3338

     11  C    Isotropic =   152.0141   Anisotropy =    44.9371

     12  H    Isotropic =    32.5798   Anisotropy =    15.3302

     13  H    Isotropic =    31.3183   Anisotropy =     5.7065

     14  H    Isotropic =    32.0966   Anisotropy =     7.4283

     15  C    Isotropic =   140.9929   Anisotropy =    18.9382

     16  C    Isotropic =   141.1961   Anisotropy =    18.2023

     17  C    Isotropic =   152.6149   Anisotropy =    30.1402

     18  H    Isotropic =    30.4123   Anisotropy =     4.8350

     19  H    Isotropic =    30.6777   Anisotropy =    10.8334

     20  C    Isotropic =    45.0994   Anisotropy =   210.2941

     21  C    Isotropic =    25.6718   Anisotropy =   126.2688

     22  C    Isotropic =    53.9606   Anisotropy =   177.7544

     23  H    Isotropic =    24.2189   Anisotropy =     4.5590

     24  C    Isotropic =    52.5126   Anisotropy =   179.6790

     25  H    Isotropic =    24.4304   Anisotropy =     7.8650

     26  C    Isotropic =    50.6360   Anisotropy =   177.0821

     27  H    Isotropic =    24.4750   Anisotropy =    15.0278

     28  C    Isotropic =   153.7248   Anisotropy =    35.2944

     29  H    Isotropic =    31.2427   Anisotropy =     9.3902

     30  H    Isotropic =    30.8946   Anisotropy =     4.1344

     31  H    Isotropic =    30.7844   Anisotropy =     7.2209

     32  C    Isotropic =   155.4145   Anisotropy =    36.6183

     33  H    Isotropic =    31.4777   Anisotropy =     8.7194

     34  H    Isotropic =    30.7458   Anisotropy =     6.5447

     35  H    Isotropic =    31.1700   Anisotropy =     6.4182

     36  C    Isotropic =    40.5281   Anisotropy =   163.0369

     37  C    Isotropic =    24.5948   Anisotropy =   114.5094

     38  C    Isotropic =   153.0104   Anisotropy =    44.2238

     39  H    Isotropic =    30.7552   Anisotropy =     7.7923

     40  H    Isotropic =    31.0361   Anisotropy =     7.2366

     41  H    Isotropic =    31.4601   Anisotropy =     9.4421

     42  C    Isotropic =    49.2919   Anisotropy =   160.7719

     43  H    Isotropic =    23.6580   Anisotropy =     8.1295

     44  C    Isotropic =    42.8375   Anisotropy =   202.9544

     45  C    Isotropic =    50.3424   Anisotropy =   178.5510

     46  H    Isotropic =    24.4811   Anisotropy =    14.7793

     47  C    Isotropic =    49.0237   Anisotropy =   135.2345

     48  C    Isotropic =    52.4159   Anisotropy =   180.2961

     49  H    Isotropic =    24.4223   Anisotropy =     7.8135

     50  C    Isotropic =    45.0175   Anisotropy =   210.1636

     51  C    Isotropic =    49.4496   Anisotropy =   161.3271

     52  H    Isotropic =    23.6702   Anisotropy =     8.0866

     53  C    Isotropic =    46.2030   Anisotropy =   141.8858

     54  H    Isotropic =    23.7158   Anisotropy =    11.0171

     55  C    Isotropic =    39.5326   Anisotropy =   163.6415

     56  C    Isotropic =    53.9607   Anisotropy =   177.4480

     57  H    Isotropic =    24.2301   Anisotropy =     4.5612

     58  C    Isotropic =    45.5639   Anisotropy =   141.4907

     59  H    Isotropic =    23.7398   Anisotropy =    11.0228

     60  C    Isotropic =   153.2333   Anisotropy =    39.3430

     61  H    Isotropic =    31.2822   Anisotropy =     9.5623

     62  H    Isotropic =    30.8202   Anisotropy =     7.8058

     63  H    Isotropic =    30.9166   Anisotropy =     7.8986

     64  C    Isotropic =    34.6069   Anisotropy =   193.0536

     65  C    Isotropic =    48.6972   Anisotropy =   171.2295

     66  C    Isotropic =    44.7252   Anisotropy =   184.9982

     67  C    Isotropic =    49.1396   Anisotropy =   187.0047

     68  H    Isotropic =    23.8830   Anisotropy =     8.1349

     69  C    Isotropic =    49.5405   Anisotropy =   187.0436

     70  H    Isotropic =    23.8453   Anisotropy =    10.4456

     71  C    Isotropic =    50.4227   Anisotropy =   187.7997

     72  H    Isotropic =    24.1090   Anisotropy =     4.5451

     73  H    Isotropic =    24.2833   Anisotropy =     5.0848

     74  H    Isotropic =    24.3174   Anisotropy =     3.0395

     75  C    Isotropic =    34.8769   Anisotropy =   191.4334

     76  C    Isotropic =    48.6029   Anisotropy =   170.4634

     77  C    Isotropic =    45.4109   Anisotropy =   182.9680

     78  C    Isotropic =    49.5425   Anisotropy =   185.0031

     79  H    Isotropic =    23.8778   Anisotropy =     8.7786

     80  C    Isotropic =    50.2668   Anisotropy =   186.1321

     81  H    Isotropic =    24.1638   Anisotropy =     9.7465

     82  C    Isotropic =    51.4159   Anisotropy =   185.5951

     83  H    Isotropic =    24.1203   Anisotropy =     4.6872

     84  H    Isotropic =    24.4474   Anisotropy =     5.6238

     85  H    Isotropic =    24.3624   Anisotropy =     4.0405

 The electronic state is 1-A.
 Alpha  occ. eigenvalues --  -77.10464 -77.03677 -19.15183 -19.14949 -10.24341
 Alpha  occ. eigenvalues --  -10.24188 -10.19573 -10.19477 -10.19415 -10.19363
 Alpha  occ. eigenvalues --  -10.19316 -10.19299 -10.19138 -10.19078 -10.19047
 Alpha  occ. eigenvalues --  -10.18960 -10.18885 -10.18719 -10.18376 -10.18205
 Alpha  occ. eigenvalues --  -10.18108 -10.18078 -10.18051 -10.18012 -10.17959
 Alpha  occ. eigenvalues --  -10.17895 -10.17867 -10.17819 -10.17796 -10.17674
 Alpha  occ. eigenvalues --  -10.17673 -10.17607 -10.17588 -10.17567 -10.17541
 Alpha  occ. eigenvalues --  -10.17506 -10.17498 -10.17466 -10.17460 -10.16192
 Alpha  occ. eigenvalues --  -10.15996 -10.15824 -10.15731 -10.15654 -10.15597
 Alpha  occ. eigenvalues --   -6.58129  -6.52221  -4.74486  -4.74250  -4.73618
 Alpha  occ. eigenvalues --   -4.68408  -4.68297  -4.67843  -1.06632  -1.03120
 Alpha  occ. eigenvalues --   -0.89197  -0.88060  -0.86710  -0.86228  -0.83413
 Alpha  occ. eigenvalues --   -0.82689  -0.81919  -0.80897  -0.80348  -0.77338
 Alpha  occ. eigenvalues --   -0.76927  -0.76482  -0.75407  -0.75086  -0.74842
 Alpha  occ. eigenvalues --   -0.73239  -0.72993  -0.72502  -0.71008  -0.69183
 Alpha  occ. eigenvalues --   -0.68788  -0.68321  -0.68245  -0.65928  -0.64122
 Alpha  occ. eigenvalues --   -0.63878  -0.62406  -0.62022  -0.61119  -0.60736
 Alpha  occ. eigenvalues --   -0.60420  -0.59577  -0.59123  -0.57968  -0.57692
 Alpha  occ. eigenvalues --   -0.54853  -0.54254  -0.53860  -0.53176  -0.52722
 Alpha  occ. eigenvalues --   -0.51757  -0.50900  -0.50138  -0.48727  -0.48560
 Alpha  occ. eigenvalues --   -0.47326  -0.47202  -0.46546  -0.46316  -0.46089
 Alpha  occ. eigenvalues --   -0.45851  -0.45721  -0.45246  -0.44827  -0.44426
 Alpha  occ. eigenvalues --   -0.44376  -0.44128  -0.43956  -0.43553  -0.43203
 Alpha  occ. eigenvalues --   -0.42962  -0.42904  -0.42742  -0.42617  -0.42296
 Alpha  occ. eigenvalues --   -0.42167  -0.42049  -0.40892  -0.40531  -0.40153
 Alpha  occ. eigenvalues --   -0.39810  -0.39790  -0.39051  -0.38768  -0.38559
 Alpha  occ. eigenvalues --   -0.38203  -0.38106  -0.37767  -0.37375  -0.36994
 Alpha  occ. eigenvalues --   -0.36635  -0.36348  -0.36246  -0.35678  -0.35314
 Alpha  occ. eigenvalues --   -0.35135  -0.35026  -0.34644  -0.34571  -0.34333
 Alpha  occ. eigenvalues --   -0.33979  -0.33245  -0.33156  -0.33103  -0.32895
 Alpha  occ. eigenvalues --   -0.32126  -0.31961  -0.30288  -0.29767  -0.28752
 Alpha  occ. eigenvalues --   -0.28391  -0.27088  -0.26669  -0.26313  -0.25749
 Alpha  occ. eigenvalues --   -0.24192  -0.23781  -0.22740  -0.22269  -0.21557
 Alpha  occ. eigenvalues --   -0.18999
 Alpha virt. eigenvalues --   -0.06105  -0.05195  -0.03421  -0.03240  -0.01964
 Alpha virt. eigenvalues --   -0.01352  -0.00685  -0.00211   0.00079   0.00930
 Alpha virt. eigenvalues --    0.02014   0.02582   0.03564   0.03811   0.04208

 Mulliken charges:
               1
     1  P    0.098453
     2  P    0.440525
     3  C   -0.061049
     4  O   -0.363459
     5  C    0.084736
     6  C   -0.420186
     7  H    0.102212
     8  H    0.152119
     9  H    0.113800
    10  O   -0.383923
    11  C   -0.373708
    12  H    0.148264
    13  H    0.123312
    14  H    0.096351
    15  C    0.078514
    16  C    0.126257
    17  C   -0.372090
    18  H    0.120046
    19  H    0.139185
    20  C    0.168041
    21  C    0.188476
    22  C   -0.106467
    23  H    0.106948
    24  C   -0.103055
    25  H    0.108352
    26  C   -0.169060
    27  H    0.131760
    28  C   -0.361757
    29  H    0.102208
    30  H    0.115759
    31  H    0.105602
    32  C   -0.339877
    33  H    0.096248
    34  H    0.111470
    35  H    0.113012
    36  C    0.093850
    37  C    0.257587
    38  C   -0.361259
    39  H    0.114150
    40  H    0.121847
    41  H    0.103583
    42  C   -0.184028
    43  H    0.100754
    44  C   -0.067937
    45  C   -0.170791
    46  H    0.135477
    47  C    0.096560
    48  C   -0.101608
    49  H    0.109379
    50  C    0.176145
    51  C   -0.184816
    52  H    0.100998
    53  C   -0.280670
    54  H    0.116589
    55  C    0.037228
    56  C   -0.105085
    57  H    0.106411
    58  C   -0.279407
    59  H    0.117581
    60  C   -0.386506
    61  H    0.108263
    62  H    0.128851
    63  H    0.106866
    64  C    0.038999
    65  C   -0.209297
    66  C   -0.159683
    67  C   -0.101509
    68  H    0.124282
    69  C   -0.115351
    70  H    0.117663
    71  C   -0.105113
    72  H    0.108623
    73  H    0.110432
    74  H    0.109195
    75  C    0.123532
    76  C   -0.203072
    77  C   -0.205292
    78  C   -0.112741
    79  H    0.122948
    80  C   -0.104522
    81  H    0.112553
    82  C   -0.099558
    83  H    0.107275
    84  H    0.105331
    85  H    0.108273
 Sum of Mulliken charges =  -0.00000

 Dipole moment (field-independent basis, Debye):
    X=             -0.6499    Y=             -0.8344    Z=              1.6491  Tot=              1.9592
 Quadrupole moment (field-independent basis, Debye-Ang):
   XX=           -263.6961   YY=           -264.0884   ZZ=           -277.2972
   XY=              4.1136   XZ=             -3.5587   YZ=             -1.8290

 Summary of Natural Population Analysis:

                                       Natural Population
                Natural  -----------------------------------------------
    Atom  No    Charge         Core      Valence    Rydberg      Total
 -----------------------------------------------------------------------
      P    1    0.77360      9.99843     4.19792    0.03005    14.22640
      P    2    1.38977      9.99839     3.53713    0.07471    13.61023
      C    3   -0.03168      1.99901     4.01416    0.01852     6.03168
      O    4   -0.76571      1.99980     6.74135    0.02456     8.76571
      C    5   -0.06261      1.99885     4.04189    0.02187     6.06261
      C    6   -0.60780      1.99937     4.59455    0.01389     6.60780
      H    7    0.20502      0.00000     0.79286    0.00212     0.79498
      H    8    0.22223      0.00000     0.77617    0.00161     0.77777
      H    9    0.20430      0.00000     0.79390    0.00180     0.79570
      O   10   -0.77642      1.99979     6.75143    0.02521     8.77642
      C   11   -0.60504      1.99937     4.59209    0.01358     6.60504
      H   12    0.21087      0.00000     0.78781    0.00132     0.78913
      H   13    0.21459      0.00000     0.78406    0.00134     0.78541
      H   14    0.20219      0.00000     0.79574    0.00207     0.79781
      C   15   -0.26857      1.99945     4.24487    0.02425     6.26857
      C   16   -0.27291      1.99945     4.24898    0.02448     6.27291
      C   17   -1.10927      1.99947     5.07753    0.03228     7.10927
      H   18    0.25431      0.00000     0.74308    0.00261     0.74569
      H   19    0.26054      0.00000     0.73719    0.00227     0.73946
      C   20   -0.06559      1.99907     4.04845    0.01806     6.06559
      C   21    0.29822      1.99855     3.68100    0.02223     5.70178
      C   22   -0.21043      1.99918     4.19222    0.01903     6.21043
      H   23    0.20927      0.00000     0.78958    0.00116     0.79073
      C   24   -0.19764      1.99919     4.18011    0.01833     6.19764
      H   25    0.20892      0.00000     0.78989    0.00120     0.79108
      C   26   -0.18746      1.99911     4.17040    0.01794     6.18746
      H   27    0.21727      0.00000     0.78127    0.00146     0.78273
      C   28   -0.60256      1.99937     4.59103    0.01216     6.60256
      H   29    0.19686      0.00000     0.80083    0.00232     0.80314
      H   30    0.20175      0.00000     0.79667    0.00158     0.79825
      H   31    0.19894      0.00000     0.79952    0.00154     0.80106
      C   32   -0.60297      1.99936     4.59137    0.01224     6.60297
      H   33    0.19599      0.00000     0.80176    0.00225     0.80401
      H   34    0.20298      0.00000     0.79563    0.00139     0.79702
      H   35    0.20181      0.00000     0.79683    0.00136     0.79819
      C   36   -0.08084      1.99891     4.06129    0.02064     6.08084
      C   37    0.31035      1.99857     3.66820    0.02288     5.68965
      C   38   -0.60040      1.99937     4.58875    0.01229     6.60040
      H   39    0.20393      0.00000     0.79477    0.00131     0.79607
      H   40    0.21400      0.00000     0.78468    0.00132     0.78600
      H   41    0.20010      0.00000     0.79792    0.00198     0.79990
      C   42   -0.17268      1.99913     4.15545    0.01810     6.17268
      H   43    0.20612      0.00000     0.79257    0.00131     0.79388
      C   44   -0.03340      1.99900     4.01589    0.01851     6.03340
      C   45   -0.18709      1.99911     4.17003    0.01794     6.18709
      H   46    0.21889      0.00000     0.77966    0.00146     0.78111
      C   47   -0.06226      1.99885     4.04223    0.02117     6.06226
      C   48   -0.19684      1.99919     4.17931    0.01834     6.19684
      H   49    0.20934      0.00000     0.78947    0.00119     0.79066
      C   50   -0.06416      1.99907     4.04706    0.01802     6.06416
      C   51   -0.17231      1.99913     4.15510    0.01807     6.17231
      H   52    0.20630      0.00000     0.79239    0.00131     0.79370
      C   53   -0.14781      1.99905     4.13385    0.01491     6.14781
      H   54    0.20821      0.00000     0.78987    0.00193     0.79179
      C   55   -0.07323      1.99891     4.05377    0.02055     6.07323
      C   56   -0.21051      1.99918     4.19230    0.01902     6.21051
      H   57    0.20893      0.00000     0.78991    0.00116     0.79107
      C   58   -0.14718      1.99905     4.13321    0.01492     6.14718
      H   59    0.20885      0.00000     0.78920    0.00195     0.79115
      C   60   -0.60146      1.99937     4.59009    0.01200     6.60146
      H   61    0.20312      0.00000     0.79481    0.00207     0.79688
      H   62    0.21264      0.00000     0.78582    0.00153     0.78736
      H   63    0.19933      0.00000     0.79916    0.00151     0.80067
      C   64   -0.04644      1.99903     4.02670    0.02071     6.04644
      C   65   -0.20370      1.99910     4.18635    0.01825     6.20370
      C   66   -0.17932      1.99909     4.16239    0.01784     6.17932
      C   67   -0.20440      1.99919     4.18627    0.01893     6.20440
      H   68    0.20938      0.00000     0.78911    0.00151     0.79062
      C   69   -0.20008      1.99920     4.18238    0.01850     6.20008
      H   70    0.21867      0.00000     0.77992    0.00142     0.78133
      C   71   -0.20679      1.99919     4.18840    0.01921     6.20679
      H   72    0.20948      0.00000     0.78930    0.00122     0.79052
      H   73    0.21108      0.00000     0.78772    0.00120     0.78892
      H   74    0.20928      0.00000     0.78956    0.00116     0.79072
      C   75   -0.04155      1.99903     4.02190    0.02062     6.04155
      C   76   -0.19190      1.99910     4.17491    0.01789     6.19190
      C   77   -0.18038      1.99908     4.16335    0.01795     6.18038
      C   78   -0.20247      1.99919     4.18459    0.01868     6.20247
      H   79    0.20995      0.00000     0.78861    0.00143     0.79005
      C   80   -0.20244      1.99919     4.18460    0.01864     6.20244
      H   81    0.21277      0.00000     0.78562    0.00161     0.78723
      C   82   -0.20828      1.99919     4.19006    0.01903     6.20828
      H   83    0.20865      0.00000     0.79014    0.00121     0.79135
      H   84    0.20809      0.00000     0.79068    0.00124     0.79191
      H   85    0.20772      0.00000     0.79111    0.00116     0.79228
 =======================================================================
   * Total *    0.00000    105.96071   225.05973    0.97956   332.00000

 Normal termination of Gaussian 16 at Wed Nov 20 17:50:18 2024.
