 Gaussian 16, Revision B.01,
 Gaussian 16:  ES64L-G16RevB.01 20-Dec-2017

 --------------------------------------------
 # nmr=giao b3lyp/def2TZVP pop=nbo scfcyc=200
 --------------------------------------------

 --------------
 MB-22 SPE NoRh
 --------------
 Symbolic Z-matrix:
 Charge =  0 Multiplicity = 1

                         Standard orientation:
 ---------------------------------------------------------------------
 Center     Atomic      Atomic             Coordinates (Angstroms)
 Number     Number       Type             X           Y           Z
 ---------------------------------------------------------------------
      1         15           0       -2.450790   -0.655141   -0.525630
      2         15           0        0.287634   -0.179429   -0.580829
      3          6           0       -3.604963   -2.032533   -0.044526
      4          1           0       -3.964788   -1.835166    0.967981
      5          1           0       -4.467502   -1.941928   -0.710304
      6          6           0       -3.402914    0.910319   -0.196258
      7          1           0       -4.173886    0.960922   -0.969551
      8          1           0       -2.707235    1.725634   -0.406795
      9          6           0       -1.017315   -0.661782    0.678479
     10          1           0       -0.833471   -1.679366    1.025394
     11          1           0       -1.099735   -0.006086    1.545001
     12          6           0        1.840373   -1.084200   -0.176798
     13          6           0        3.079518   -0.437935   -0.188645
     14          1           0        3.140502    0.627122   -0.367125
     15          6           0        4.246400   -1.159807    0.044020
     16          1           0        5.200757   -0.648551    0.039052
     17          6           0        4.188433   -2.527953    0.284713
     18          1           0        5.097445   -3.085864    0.469651
     19          6           0        2.957999   -3.179250    0.284402
     20          1           0        2.907472   -4.246006    0.467212
     21          6           0        1.791669   -2.465002    0.046487
     22          1           0        0.844677   -2.993263    0.029305
     23          6           0        0.620814    1.599273   -0.259279
     24          6           0        0.444775    2.532989   -1.282648
     25          1           0        0.121784    2.202106   -2.261266
     26          6           0        0.675330    3.885441   -1.045421
     27          1           0        0.537762    4.603014   -1.844922
     28          6           0        1.078914    4.312630    0.213059
     29          1           0        1.259280    5.364177    0.397060
     30          6           0        1.255030    3.386764    1.239322
     31          1           0        1.571369    3.718254    2.221312
     32          6           0        1.027148    2.036062    1.007644
     33          1           0        1.177503    1.326295    1.812583
     34          6           0       -4.019391    1.065838    1.195187
     35          1           0       -4.482527    2.049872    1.283063
     36          1           0       -4.794073    0.323677    1.387360
     37          1           0       -3.271558    0.988669    1.986914
     38          6           0       -3.002867   -3.435805   -0.135780
     39          1           0       -2.610366   -3.644991   -1.130922
     40          1           0       -2.193824   -3.577599    0.582525
     41          1           0       -3.765957   -4.182675    0.089597
 ---------------------------------------------------------------------

 SCF Done:  E(RB3LYP) =  -1344.04656990     A.U. after   16 cycles

      1  P    Isotropic =   247.0711   Anisotropy =    92.7758

      2  P    Isotropic =   239.2684   Anisotropy =   109.4387

      3  C    Isotropic =   160.6834   Anisotropy =    25.2767

      4  H    Isotropic =    29.6949   Anisotropy =     5.9297

      5  H    Isotropic =    31.0519   Anisotropy =     9.2551

      6  C    Isotropic =   159.2456   Anisotropy =    15.6289

      7  H    Isotropic =    30.4464   Anisotropy =     8.6420

      8  H    Isotropic =    30.7074   Anisotropy =     9.4202

      9  C    Isotropic =   158.8721   Anisotropy =    30.7547

     10  H    Isotropic =    30.1309   Anisotropy =     7.3345

     11  H    Isotropic =    29.6641   Anisotropy =     4.7847

     12  C    Isotropic =    28.2788   Anisotropy =   198.3300

     13  C    Isotropic =    51.0587   Anisotropy =   181.1525

     14  H    Isotropic =    25.1401   Anisotropy =    12.9273

     15  C    Isotropic =    49.8074   Anisotropy =   183.0657

     16  H    Isotropic =    24.6227   Anisotropy =     6.3026

     17  C    Isotropic =    53.9293   Anisotropy =   179.5851

     18  H    Isotropic =    24.6601   Anisotropy =     4.2122

     19  C    Isotropic =    50.4826   Anisotropy =   182.4367

     20  H    Isotropic =    24.3599   Anisotropy =     5.9070

     21  C    Isotropic =    50.4103   Anisotropy =   180.9756

     22  H    Isotropic =    24.2103   Anisotropy =    10.1983

     23  C    Isotropic =    34.7664   Anisotropy =   207.7917

     24  C    Isotropic =    39.4849   Anisotropy =   182.1649

     25  H    Isotropic =    23.7009   Anisotropy =     8.0912

     26  C    Isotropic =    50.1647   Anisotropy =   183.6013

     27  H    Isotropic =    24.2004   Anisotropy =     5.1227

     28  C    Isotropic =    48.2782   Anisotropy =   189.5316

     29  H    Isotropic =    24.2054   Anisotropy =     4.3265

     30  C    Isotropic =    48.2315   Anisotropy =   186.2253

     31  H    Isotropic =    24.1817   Anisotropy =     5.7933

     32  C    Isotropic =    39.2999   Anisotropy =   187.8886

     33  H    Isotropic =    23.8783   Anisotropy =    10.5299

     34  C    Isotropic =   176.3247   Anisotropy =    13.5904

     35  H    Isotropic =    31.0734   Anisotropy =    11.2400

     36  H    Isotropic =    30.9268   Anisotropy =     8.9050

     37  H    Isotropic =    31.2936   Anisotropy =     5.6427

     38  C    Isotropic =   172.2919   Anisotropy =    19.7997

     39  H    Isotropic =    30.5444   Anisotropy =     7.8114

     40  H    Isotropic =    30.8176   Anisotropy =     7.1616

     41  H    Isotropic =    30.3947   Anisotropy =    11.2033

 The electronic state is 1-A.
 Alpha  occ. eigenvalues --  -77.04605 -77.03371 -10.18621 -10.18492 -10.18410
 Alpha  occ. eigenvalues --  -10.18394 -10.18273 -10.18255 -10.18170 -10.18048
 Alpha  occ. eigenvalues --  -10.17519 -10.17416 -10.17317 -10.17310 -10.17188
 Alpha  occ. eigenvalues --  -10.17099 -10.17046 -10.16632 -10.16427  -6.53169
 Alpha  occ. eigenvalues --   -6.51971  -4.69320  -4.69291  -4.68800  -4.68143
 Alpha  occ. eigenvalues --   -4.68067  -4.67585  -0.86613  -0.85542  -0.78634
 Alpha  occ. eigenvalues --   -0.76919  -0.75654  -0.75625  -0.74827  -0.74495
 Alpha  occ. eigenvalues --   -0.72112  -0.64886  -0.62793  -0.61944  -0.61403
 Alpha  occ. eigenvalues --   -0.60538  -0.60059  -0.55862  -0.52408  -0.52091
 Alpha  occ. eigenvalues --   -0.50333  -0.46283  -0.46123  -0.45766  -0.45290
 Alpha  occ. eigenvalues --   -0.45143  -0.44904  -0.44383  -0.43160  -0.42448
 Alpha  occ. eigenvalues --   -0.42316  -0.41847  -0.39733  -0.39484  -0.38474
 Alpha  occ. eigenvalues --   -0.37915  -0.37580  -0.37275  -0.36616  -0.35519
 Alpha  occ. eigenvalues --   -0.35466  -0.35043  -0.34597  -0.32505  -0.31243
 Alpha  occ. eigenvalues --   -0.30640  -0.27205  -0.26679  -0.26110  -0.25614
 Alpha  occ. eigenvalues --   -0.21869  -0.18268
 Alpha virt. eigenvalues --   -0.03694  -0.02403  -0.01731  -0.01212   0.01493
 Alpha virt. eigenvalues --    0.03195   0.03863   0.04637   0.04747   0.05377
 Alpha virt. eigenvalues --    0.06701   0.06826   0.07361   0.07624   0.07847

 Mulliken charges:
               1
     1  P    0.156855
     2  P    0.170648
     3  C   -0.239994
     4  H    0.096601
     5  H    0.104853
     6  C   -0.252809
     7  H    0.110756
     8  H    0.127864
     9  C   -0.371128
    10  H    0.122823
    11  H    0.122554
    12  C    0.068220
    13  C   -0.162625
    14  H    0.136625
    15  C   -0.125567
    16  H    0.105699
    17  C   -0.107546
    18  H    0.105752
    19  C   -0.122778
    20  H    0.104272
    21  C   -0.200563
    22  H    0.118751
    23  C    0.017816
    24  C   -0.154807
    25  H    0.119345
    26  C   -0.100443
    27  H    0.112200
    28  C   -0.099473
    29  H    0.113322
    30  C   -0.095487
    31  H    0.110396
    32  C   -0.199217
    33  H    0.127701
    34  C   -0.341064
    35  H    0.110147
    36  H    0.111660
    37  H    0.105506
    38  C   -0.339648
    39  H    0.119715
    40  H    0.098236
    41  H    0.114832
 Sum of Mulliken charges =  -0.00000

 Dipole moment (field-independent basis, Debye):
    X=             -0.6485    Y=              1.0408    Z=              1.9592  Tot=              2.3113
 Quadrupole moment (field-independent basis, Debye-Ang):
   XX=           -125.0089   YY=           -119.0625   ZZ=           -134.2920
   XY=              2.1739   XZ=              0.8749   YZ=             -3.1031

 Summary of Natural Population Analysis:

                                       Natural Population
                Natural  -----------------------------------------------
    Atom  No    Charge         Core      Valence    Rydberg      Total
 -----------------------------------------------------------------------
      P    1    0.77985      9.99874     4.18325    0.03816    14.22015
      P    2    0.83226      9.99817     4.13533    0.03425    14.16774
      C    3   -0.68619      1.99944     4.66611    0.02064     6.68619
      H    4    0.19678      0.00000     0.79991    0.00331     0.80322
      H    5    0.21924      0.00000     0.77942    0.00134     0.78076
      C    6   -0.68165      1.99943     4.66104    0.02118     6.68165
      H    7    0.22105      0.00000     0.77775    0.00119     0.77895
      H    8    0.22544      0.00000     0.77328    0.00128     0.77456
      C    9   -1.00981      1.99945     4.97737    0.03299     7.00981
      H   10    0.24640      0.00000     0.75166    0.00195     0.75360
      H   11    0.23516      0.00000     0.76209    0.00276     0.76484
      C   12   -0.31570      1.99899     4.28689    0.02982     6.31570
      C   13   -0.21361      1.99908     4.19440    0.02013     6.21361
      H   14    0.21298      0.00000     0.78516    0.00186     0.78702
      C   15   -0.19519      1.99919     4.17702    0.01899     6.19519
      H   16    0.20668      0.00000     0.79199    0.00133     0.79332
      C   17   -0.21833      1.99919     4.19940    0.01975     6.21833
      H   18    0.20693      0.00000     0.79187    0.00121     0.79307
      C   19   -0.19650      1.99918     4.17826    0.01906     6.19650
      H   20    0.20699      0.00000     0.79169    0.00132     0.79301
      C   21   -0.21381      1.99908     4.19456    0.02017     6.21381
      H   22    0.20007      0.00000     0.79722    0.00272     0.79993
      C   23   -0.33856      1.99901     4.30542    0.03412     6.33856
      C   24   -0.19011      1.99910     4.17003    0.02098     6.19011
      H   25    0.22092      0.00000     0.77747    0.00161     0.77908
      C   26   -0.20709      1.99918     4.18835    0.01956     6.20709
      H   27    0.21059      0.00000     0.78814    0.00127     0.78941
      C   28   -0.19627      1.99919     4.17804    0.01904     6.19627
      H   29    0.20939      0.00000     0.78944    0.00117     0.79061
      C   30   -0.20590      1.99919     4.18757    0.01914     6.20590
      H   31    0.20880      0.00000     0.78981    0.00139     0.79120
      C   32   -0.19473      1.99908     4.17531    0.02034     6.19473
      H   33    0.21031      0.00000     0.78725    0.00244     0.78969
      C   34   -0.59853      1.99947     4.59067    0.00839     6.59853
      H   35    0.20306      0.00000     0.79518    0.00176     0.79694
      H   36    0.19795      0.00000     0.80056    0.00149     0.80205
      H   37    0.19613      0.00000     0.80203    0.00184     0.80387
      C   38   -0.59072      1.99946     4.58287    0.00839     6.59072
      H   39    0.20625      0.00000     0.79174    0.00201     0.79375
      H   40    0.19292      0.00000     0.80548    0.00160     0.80708
      H   41    0.20657      0.00000     0.79199    0.00144     0.79343
 =======================================================================
   * Total *   -0.00000     53.98365    99.55300    0.46336   154.00000

 Normal termination of Gaussian 16 at Thu Jan 23 20:16:33 2025.
