 Gaussian 16, Revision B.01,
 Gaussian 16:  ES64L-G16RevB.01 20-Dec-2017

 --------------------------------------------
 # nmr=giao b3lyp/def2TZVP pop=nbo scfcyc=200
 --------------------------------------------

 --------------
 MB-24 SPE NoRh
 --------------
 Symbolic Z-matrix:
 Charge =  0 Multiplicity = 1

                         Standard orientation:
 ---------------------------------------------------------------------
 Center     Atomic      Atomic             Coordinates (Angstroms)
 Number     Number       Type             X           Y           Z
 ---------------------------------------------------------------------
      1         15           0       -1.383205    0.009339   -0.849940
      2         15           0        1.403715   -0.020032   -0.849466
      3          6           0        0.002307   -0.801999    0.114420
      4          6           0       -3.289331    2.053448   -0.202542
      5          6           0       -3.826849    3.060103    0.822565
      6          6           0       -3.316552   -1.891822    0.160481
      7          6           0       -4.330595   -2.996245   -0.163419
      8          6           0        3.295482    2.043869   -0.266465
      9          6           0        3.822058    3.100590    0.713269
     10          6           0        3.307004   -1.909881    0.232031
     11          6           0        4.321200   -3.024946   -0.052868
     12          1           0       -0.008687   -1.878056   -0.068705
     13          1           0        0.002753   -0.629463    1.191464
     14          1           0       -4.096426    1.372365   -0.489367
     15          1           0       -2.997215    2.589671   -1.110448
     16          1           0       -3.021736    3.743315    1.110126
     17          1           0       -4.114939    2.525245    1.733287
     18          1           0       -3.813107   -1.115790    0.751305
     19          1           0       -2.527451   -2.306135    0.795122
     20          1           0       -5.117748   -2.584724   -0.803752
     21          1           0       -3.835052   -3.777251   -0.750745
     22          1           0        2.998142    2.534613   -1.198196
     23          1           0        4.110609    1.359079   -0.521763
     24          1           0        3.008949    3.788909    0.967878
     25          1           0        4.112414    2.609867    1.647869
     26          1           0        2.503094   -2.309568    0.859112
     27          1           0        3.795504   -1.125325    0.816480
     28          1           0        3.834688   -3.815208   -0.633134
     29          1           0        5.122058   -2.628733   -0.684911
     30          6           0       -2.702998   -1.276165   -1.101482
     31          1           0       -2.242604   -2.048158   -1.723883
     32          1           0       -3.476671   -0.811185   -1.718807
     33          6           0       -2.095253    1.256912    0.333116
     34          1           0       -1.278340    1.936059    0.590874
     35          1           0       -2.367292    0.725444    1.248724
     36          6           0        2.108738    1.258937    0.302264
     37          1           0        2.386988    0.755600    1.232584
     38          1           0        1.290502    1.941764    0.541299
     39          6           0        2.720230   -1.316654   -1.053534
     40          1           0        3.508543   -0.868205   -1.665256
     41          1           0        2.267565   -2.099773   -1.667880
     42          6           0        5.007894    3.888248    0.157298
     43          1           0        5.356916    4.630116    0.877965
     44          1           0        5.848344    3.230661   -0.073164
     45          1           0        4.737901    4.418281   -0.758699
     46          6           0        4.920897   -3.620287    1.221997
     47          1           0        4.147824   -4.054910    1.859205
     48          1           0        5.636466   -4.409256    0.986186
     49          1           0        5.446231   -2.861423    1.806011
     50          6           0       -4.956224   -3.612429    1.086588
     51          1           0       -5.489959   -2.862302    1.675286
     52          1           0       -5.670824   -4.393306    0.822412
     53          1           0       -4.197311   -4.064102    1.730278
     54          6           0       -5.018826    3.860760    0.299659
     55          1           0       -5.853614    3.206530    0.035854
     56          1           0       -5.376886    4.565931    1.051004
     57          1           0       -4.752363    4.435185   -0.590798
 ---------------------------------------------------------------------

 SCF Done:  E(RB3LYP) =  -1353.72204336     A.U. after   13 cycles

      1  P    Isotropic =   258.6878   Anisotropy =   115.2576

      2  P    Isotropic =   258.4993   Anisotropy =   113.8139

      3  C    Isotropic =   160.6618   Anisotropy =    17.4717

      4  C    Isotropic =   150.3771   Anisotropy =    32.0793

      5  C    Isotropic =   151.2353   Anisotropy =    27.7473

      6  C    Isotropic =   152.1936   Anisotropy =    28.9376

      7  C    Isotropic =   151.3169   Anisotropy =    27.7218

      8  C    Isotropic =   150.1412   Anisotropy =    32.2679

      9  C    Isotropic =   151.1996   Anisotropy =    27.5858

     10  C    Isotropic =   152.0176   Anisotropy =    29.0933

     11  C    Isotropic =   151.3557   Anisotropy =    27.8871

     12  H    Isotropic =    31.0054   Anisotropy =     5.6298

     13  H    Isotropic =    30.6349   Anisotropy =     2.8543

     14  H    Isotropic =    30.8862   Anisotropy =     5.1960

     15  H    Isotropic =    30.5785   Anisotropy =     5.0386

     16  H    Isotropic =    30.5462   Anisotropy =     5.6709

     17  H    Isotropic =    30.5275   Anisotropy =     5.1652

     18  H    Isotropic =    30.4960   Anisotropy =     6.1566

     19  H    Isotropic =    30.7929   Anisotropy =     5.8062

     20  H    Isotropic =    30.6541   Anisotropy =     6.0869

     21  H    Isotropic =    30.6344   Anisotropy =     5.9770

     22  H    Isotropic =    30.5653   Anisotropy =     4.9832

     23  H    Isotropic =    30.8661   Anisotropy =     5.1380

     24  H    Isotropic =    30.5211   Anisotropy =     5.6680

     25  H    Isotropic =    30.5125   Anisotropy =     5.1893

     26  H    Isotropic =    30.7780   Anisotropy =     5.8645

     27  H    Isotropic =    30.5003   Anisotropy =     6.1176

     28  H    Isotropic =    30.6602   Anisotropy =     5.9509

     29  H    Isotropic =    30.6718   Anisotropy =     6.0869

     30  C    Isotropic =   149.6526   Anisotropy =    36.8682

     31  H    Isotropic =    30.4518   Anisotropy =     5.1545

     32  H    Isotropic =    30.4290   Anisotropy =     5.4589

     33  C    Isotropic =   153.6870   Anisotropy =    46.5671

     34  H    Isotropic =    30.7545   Anisotropy =     7.9785

     35  H    Isotropic =    29.9315   Anisotropy =     3.1061

     36  C    Isotropic =   154.2847   Anisotropy =    46.2473

     37  H    Isotropic =    29.9360   Anisotropy =     2.9841

     38  H    Isotropic =    30.7768   Anisotropy =     8.0364

     39  C    Isotropic =   149.2245   Anisotropy =    37.1820

     40  H    Isotropic =    30.4262   Anisotropy =     5.3589

     41  H    Isotropic =    30.4475   Anisotropy =     5.0935

     42  C    Isotropic =   166.9072   Anisotropy =    29.1794

     43  H    Isotropic =    30.7581   Anisotropy =    10.8112

     44  H    Isotropic =    31.0956   Anisotropy =     8.0177

     45  H    Isotropic =    31.0247   Anisotropy =     8.2424

     46  C    Isotropic =   166.9563   Anisotropy =    28.7698

     47  H    Isotropic =    31.0982   Anisotropy =     7.6315

     48  H    Isotropic =    30.7726   Anisotropy =    11.0423

     49  H    Isotropic =    31.0975   Anisotropy =     7.7071

     50  C    Isotropic =   166.9250   Anisotropy =    28.6213

     51  H    Isotropic =    31.0811   Anisotropy =     7.7057

     52  H    Isotropic =    30.7649   Anisotropy =    11.0328

     53  H    Isotropic =    31.0741   Anisotropy =     7.6456

     54  C    Isotropic =   166.8662   Anisotropy =    29.2404

     55  H    Isotropic =    31.0735   Anisotropy =     7.9943

     56  H    Isotropic =    30.7757   Anisotropy =    10.8156

     57  H    Isotropic =    31.0211   Anisotropy =     8.2622

 The electronic state is 1-A.
 Alpha  occ. eigenvalues --  -77.02974 -77.02934 -10.17407 -10.16814 -10.16807
 Alpha  occ. eigenvalues --  -10.16750 -10.16725 -10.16657 -10.16634 -10.16632
 Alpha  occ. eigenvalues --  -10.16625 -10.16615 -10.16584 -10.16566 -10.16553
 Alpha  occ. eigenvalues --  -10.15887 -10.15861 -10.15835 -10.15818  -6.51566
 Alpha  occ. eigenvalues --   -6.51528  -4.67732  -4.67695  -4.67671  -4.67632
 Alpha  occ. eigenvalues --   -4.67176  -4.67138  -0.80629  -0.80336  -0.79628
 Alpha  occ. eigenvalues --   -0.79600  -0.75875  -0.74215  -0.72313  -0.72249
 Alpha  occ. eigenvalues --   -0.70904  -0.65303  -0.63843  -0.63196  -0.63056
 Alpha  occ. eigenvalues --   -0.58468  -0.58423  -0.58342  -0.58226  -0.52328
 Alpha  occ. eigenvalues --   -0.51780  -0.48165  -0.48054  -0.47287  -0.47215
 Alpha  occ. eigenvalues --   -0.44084  -0.43753  -0.43394  -0.43109  -0.43079
 Alpha  occ. eigenvalues --   -0.42441  -0.42317  -0.41882  -0.41076  -0.40727
 Alpha  occ. eigenvalues --   -0.40301  -0.39417  -0.38853  -0.38182  -0.37032
 Alpha  occ. eigenvalues --   -0.36649  -0.36096  -0.35611  -0.35492  -0.35442
 Alpha  occ. eigenvalues --   -0.34999  -0.34399  -0.34259  -0.34011  -0.33939
 Alpha  occ. eigenvalues --   -0.33161  -0.33084  -0.33030  -0.32846  -0.32684
 Alpha  occ. eigenvalues --   -0.30127  -0.29883  -0.29179  -0.21516  -0.17555
 Alpha virt. eigenvalues --    0.01632   0.02257   0.02383   0.03337   0.04202
 Alpha virt. eigenvalues --    0.04329   0.04752   0.05233   0.05422   0.05506
 Alpha virt. eigenvalues --    0.05936   0.06773   0.07294   0.07908   0.08055

 Mulliken charges:
               1
     1  P    0.205783
     2  P    0.206555
     3  C   -0.374779
     4  C   -0.197400
     5  C   -0.138490
     6  C   -0.195842
     7  C   -0.133358
     8  C   -0.197056
     9  C   -0.138715
    10  C   -0.194635
    11  C   -0.133689
    12  H    0.119696
    13  H    0.113629
    14  H    0.087911
    15  H    0.096128
    16  H    0.082690
    17  H    0.081806
    18  H    0.089444
    19  H    0.087948
    20  H    0.082686
    21  H    0.081734
    22  H    0.096663
    23  H    0.087534
    24  H    0.082458
    25  H    0.081748
    26  H    0.087699
    27  H    0.088993
    28  H    0.081839
    29  H    0.082602
    30  C   -0.294745
    31  H    0.109506
    32  H    0.115978
    33  C   -0.274394
    34  H    0.106411
    35  H    0.102077
    36  C   -0.274610
    37  H    0.101930
    38  H    0.105988
    39  C   -0.293026
    40  H    0.115446
    41  H    0.108666
    42  C   -0.325726
    43  H    0.110429
    44  H    0.100772
    45  H    0.103551
    46  C   -0.325213
    47  H    0.099993
    48  H    0.110545
    49  H    0.100348
    50  C   -0.324985
    51  H    0.100358
    52  H    0.110692
    53  H    0.099964
    54  C   -0.326365
    55  H    0.100763
    56  H    0.110636
    57  H    0.103430
 Sum of Mulliken charges =  -0.00000

 Dipole moment (field-independent basis, Debye):
    X=             -0.0305    Y=             -0.7437    Z=              1.8379  Tot=              1.9829
 Quadrupole moment (field-independent basis, Debye-Ang):
   XX=           -138.4366   YY=           -139.5933   ZZ=           -149.3290
   XY=              0.0777   XZ=              0.0993   YZ=              3.2844

 Summary of Natural Population Analysis:

                                       Natural Population
                Natural  -----------------------------------------------
    Atom  No    Charge         Core      Valence    Rydberg      Total
 -----------------------------------------------------------------------
      P    1    0.79952      9.99873     4.16462    0.03712    14.20048
      P    2    0.79961      9.99873     4.16445    0.03721    14.20039
      C    3   -1.02269      1.99947     4.99164    0.03158     7.02269
      C    4   -0.38556      1.99942     4.36999    0.01615     6.38556
      C    5   -0.37452      1.99946     4.36172    0.01334     6.37452
      C    6   -0.39065      1.99943     4.37514    0.01608     6.39065
      C    7   -0.37679      1.99946     4.36390    0.01343     6.37679
      C    8   -0.38566      1.99942     4.37005    0.01618     6.38566
      C    9   -0.37446      1.99946     4.36168    0.01333     6.37446
      C   10   -0.39052      1.99943     4.37504    0.01606     6.39052
      C   11   -0.37666      1.99946     4.36382    0.01338     6.37666
      H   12    0.24330      0.00000     0.75497    0.00173     0.75670
      H   13    0.23156      0.00000     0.76569    0.00275     0.76844
      H   14    0.18646      0.00000     0.81118    0.00236     0.81354
      H   15    0.19665      0.00000     0.80090    0.00245     0.80335
      H   16    0.18869      0.00000     0.80961    0.00170     0.81131
      H   17    0.18824      0.00000     0.81015    0.00161     0.81176
      H   18    0.18650      0.00000     0.81128    0.00222     0.81350
      H   19    0.18657      0.00000     0.81101    0.00242     0.81343
      H   20    0.18842      0.00000     0.80989    0.00169     0.81158
      H   21    0.18750      0.00000     0.81079    0.00172     0.81250
      H   22    0.19718      0.00000     0.80035    0.00247     0.80282
      H   23    0.18640      0.00000     0.81125    0.00235     0.81360
      H   24    0.18854      0.00000     0.80975    0.00170     0.81146
      H   25    0.18826      0.00000     0.81014    0.00161     0.81174
      H   26    0.18645      0.00000     0.81112    0.00243     0.81355
      H   27    0.18639      0.00000     0.81141    0.00220     0.81361
      H   28    0.18749      0.00000     0.81079    0.00172     0.81251
      H   29    0.18830      0.00000     0.81001    0.00169     0.81170
      C   30   -0.68665      1.99942     4.66521    0.02202     6.68665
      H   31    0.21760      0.00000     0.78078    0.00162     0.78240
      H   32    0.22091      0.00000     0.77749    0.00160     0.77909
      C   33   -0.68387      1.99941     4.66181    0.02264     6.68387
      H   34    0.21515      0.00000     0.78271    0.00214     0.78485
      H   35    0.19602      0.00000     0.80034    0.00364     0.80398
      C   36   -0.68413      1.99941     4.66207    0.02265     6.68413
      H   37    0.19634      0.00000     0.80001    0.00365     0.80366
      H   38    0.21547      0.00000     0.78237    0.00216     0.78453
      C   39   -0.68751      1.99942     4.66604    0.02206     6.68751
      H   40    0.22070      0.00000     0.77769    0.00161     0.77930
      H   41    0.21739      0.00000     0.78100    0.00161     0.78261
      C   42   -0.58540      1.99947     4.57981    0.00613     6.58540
      H   43    0.20250      0.00000     0.79632    0.00118     0.79750
      H   44    0.19487      0.00000     0.80367    0.00145     0.80513
      H   45    0.19648      0.00000     0.80207    0.00146     0.80352
      C   46   -0.58557      1.99947     4.57995    0.00615     6.58557
      H   47    0.19431      0.00000     0.80424    0.00146     0.80569
      H   48    0.20220      0.00000     0.79657    0.00122     0.79780
      H   49    0.19453      0.00000     0.80402    0.00145     0.80547
      C   50   -0.58561      1.99947     4.57996    0.00617     6.58561
      H   51    0.19463      0.00000     0.80391    0.00145     0.80537
      H   52    0.20239      0.00000     0.79639    0.00122     0.79761
      H   53    0.19440      0.00000     0.80415    0.00145     0.80560
      C   54   -0.58544      1.99947     4.57984    0.00613     6.58544
      H   55    0.19488      0.00000     0.80367    0.00145     0.80512
      H   56    0.20254      0.00000     0.79628    0.00118     0.79746
      H   57    0.19637      0.00000     0.80217    0.00146     0.80363
 =======================================================================
   * Total *    0.00000     53.98803   115.60289    0.40908   170.00000

 Normal termination of Gaussian 16 at Thu Jan 23 20:30:57 2025.
