 Gaussian 16, Revision B.01,
 Gaussian 16:  ES64L-G16RevB.01 20-Dec-2017

 --------------------------------------------
 # nmr=giao b3lyp/def2TZVP pop=nbo scfcyc=200
 --------------------------------------------

 --------------
 MB-25 SPE NoRh
 --------------
 Symbolic Z-matrix:
 Charge =  0 Multiplicity = 1

                         Standard orientation:
 ---------------------------------------------------------------------
 Center     Atomic      Atomic             Coordinates (Angstroms)
 Number     Number       Type             X           Y           Z
 ---------------------------------------------------------------------
      1         15           0        1.397181   -0.036457    0.608866
      2         15           0       -1.396716   -0.059344    0.625959
      3          6           0        0.002062   -0.999406   -0.196050
      4          6           0       -2.133493    3.420400    0.071068
      5          1           0        0.012173   -2.027055    0.166639
      6          1           0       -0.003769   -1.013890   -1.286861
      7          1           0       -2.757959    4.204629    0.498475
      8          1           0       -1.317491    3.204193    0.769043
      9          1           0       -1.674068    3.813602   -0.841222
     10          6           0        2.727891   -1.250030    1.141555
     11          1           0        2.208776   -1.945134    1.808101
     12          1           0        3.408975   -0.664870    1.763101
     13          6           0        2.163878    0.964235   -0.779073
     14          1           0        1.342709    1.245785   -1.442572
     15          1           0        2.817640    0.282763   -1.326712
     16          6           0       -2.144403    0.993188   -0.733756
     17          1           0       -2.769809    0.328094   -1.332884
     18          1           0       -1.310674    1.322778   -1.357386
     19          6           0       -2.738143   -1.281402    1.106507
     20          1           0       -3.436249   -0.706320    1.718151
     21          1           0       -2.236539   -1.988765    1.774894
     22          6           0       -2.732929   -3.049997   -0.774513
     23          1           0       -1.950962   -2.609866   -1.399754
     24          1           0       -2.244933   -3.770297   -0.110967
     25          1           0       -3.404307   -3.601277   -1.431667
     26          6           0        2.767327   -3.040349   -0.717697
     27          1           0        2.261779   -3.753282   -0.058575
     28          1           0        2.002034   -2.602889   -1.364979
     29          1           0        3.453359   -3.598037   -1.353040
     30          6           0        2.090287    3.441482   -0.155076
     31          1           0        1.692858    3.767059   -1.120908
     32          1           0        1.231226    3.266755    0.497701
     33          1           0        2.680722    4.259959    0.257219
     34          6           0        4.230483    2.170267   -0.121709
     35          1           0        4.767726    3.056188    0.192117
     36          1           0        4.818682    1.277534   -0.291905
     37          6           0        2.912406    2.193686   -0.321423
     38          6           0        3.499167   -1.992870    0.079390
     39          6           0        4.799602   -1.757576   -0.099516
     40          1           0        5.336413   -1.025883    0.492576
     41          1           0        5.377896   -2.308745   -0.830337
     42          6           0       -2.930186    2.182243   -0.233316
     43          6           0       -4.256428    2.136381   -0.115479
     44          1           0       -4.821428    2.994727    0.228049
     45          1           0       -4.824513    1.254616   -0.382227
     46          6           0       -3.482429   -2.008852    0.013414
     47          6           0       -4.775787   -1.767229   -0.196927
     48          1           0       -5.327191   -1.041848    0.388934
     49          1           0       -5.335891   -2.308526   -0.949782
 ---------------------------------------------------------------------

 SCF Done:  E(RB3LYP) =  -1348.80142667     A.U. after   14 cycles

      1  P    Isotropic =   261.9492   Anisotropy =   121.4370

      2  P    Isotropic =   263.0007   Anisotropy =   117.9805

      3  C    Isotropic =   153.4841   Anisotropy =    23.0532

      4  C    Isotropic =   156.7270   Anisotropy =    39.2892

      5  H    Isotropic =    30.4514   Anisotropy =     5.6806

      6  H    Isotropic =    30.4116   Anisotropy =     2.4501

      7  H    Isotropic =    30.1138   Anisotropy =     7.6391

      8  H    Isotropic =    29.5568   Anisotropy =     5.4591

      9  H    Isotropic =    30.2031   Anisotropy =     6.5866

     10  C    Isotropic =   138.6377   Anisotropy =    37.8406

     11  H    Isotropic =    29.4265   Anisotropy =     5.1409

     12  H    Isotropic =    29.1276   Anisotropy =     5.8551

     13  C    Isotropic =   148.2232   Anisotropy =    51.3792

     14  H    Isotropic =    30.4357   Anisotropy =     4.3008

     15  H    Isotropic =    28.8041   Anisotropy =     3.4592

     16  C    Isotropic =   148.3656   Anisotropy =    52.3319

     17  H    Isotropic =    28.8208   Anisotropy =     3.4519

     18  H    Isotropic =    30.3778   Anisotropy =     4.7112

     19  C    Isotropic =   138.0942   Anisotropy =    38.8072

     20  H    Isotropic =    29.1451   Anisotropy =     5.6882

     21  H    Isotropic =    29.4196   Anisotropy =     5.1197

     22  C    Isotropic =   157.8717   Anisotropy =    35.8281

     23  H    Isotropic =    30.0686   Anisotropy =     5.8054

     24  H    Isotropic =    30.4308   Anisotropy =     6.7553

     25  H    Isotropic =    30.1209   Anisotropy =     7.7221

     26  C    Isotropic =   157.9059   Anisotropy =    35.7312

     27  H    Isotropic =    30.4118   Anisotropy =     6.7606

     28  H    Isotropic =    30.0800   Anisotropy =     5.6874

     29  H    Isotropic =    30.1243   Anisotropy =     7.7324

     30  C    Isotropic =   156.7223   Anisotropy =    39.8588

     31  H    Isotropic =    30.2063   Anisotropy =     6.5584

     32  H    Isotropic =    29.6584   Anisotropy =     6.2531

     33  H    Isotropic =    30.1121   Anisotropy =     7.6355

     34  C    Isotropic =    67.6388   Anisotropy =   112.0206

     35  H    Isotropic =    26.9706   Anisotropy =     5.9082

     36  H    Isotropic =    27.0177   Anisotropy =     6.7145

     37  C    Isotropic =    27.7384   Anisotropy =   187.4152

     38  C    Isotropic =    30.7358   Anisotropy =   181.0284

     39  C    Isotropic =    66.3228   Anisotropy =   104.7981

     40  H    Isotropic =    27.0540   Anisotropy =     7.1363

     41  H    Isotropic =    26.8281   Anisotropy =     6.3940

     42  C    Isotropic =    28.2388   Anisotropy =   186.5431

     43  C    Isotropic =    67.4927   Anisotropy =   111.4003

     44  H    Isotropic =    26.9573   Anisotropy =     5.9234

     45  H    Isotropic =    26.9882   Anisotropy =     6.6357

     46  C    Isotropic =    30.9558   Anisotropy =   180.8168

     47  C    Isotropic =    66.7104   Anisotropy =   104.4070

     48  H    Isotropic =    27.0779   Anisotropy =     7.0691

     49  H    Isotropic =    26.8441   Anisotropy =     6.3607

 The electronic state is 1-A.
 Alpha  occ. eigenvalues --  -77.04599 -77.04547 -10.18803 -10.18718 -10.18581
 Alpha  occ. eigenvalues --  -10.18560 -10.18560 -10.17920 -10.17828 -10.17738
 Alpha  occ. eigenvalues --  -10.17691 -10.17247 -10.17198 -10.16487 -10.16462
 Alpha  occ. eigenvalues --  -10.15863 -10.15771 -10.15463 -10.15451  -6.53131
 Alpha  occ. eigenvalues --   -6.53081  -4.69288  -4.69239  -4.69238  -4.69188
 Alpha  occ. eigenvalues --   -4.68749  -4.68699  -0.82227  -0.81941  -0.81045
 Alpha  occ. eigenvalues --   -0.80999  -0.75706  -0.72197  -0.70281  -0.69680
 Alpha  occ. eigenvalues --   -0.69328  -0.68832  -0.68301  -0.68156  -0.68103
 Alpha  occ. eigenvalues --   -0.56381  -0.55171  -0.53359  -0.53223  -0.51734
 Alpha  occ. eigenvalues --   -0.51181  -0.46869  -0.46595  -0.46555  -0.45936
 Alpha  occ. eigenvalues --   -0.45759  -0.45576  -0.45514  -0.45165  -0.43587
 Alpha  occ. eigenvalues --   -0.43260  -0.42658  -0.42157  -0.41632  -0.40338
 Alpha  occ. eigenvalues --   -0.39465  -0.38140  -0.38020  -0.37825  -0.37780
 Alpha  occ. eigenvalues --   -0.37674  -0.36976  -0.36764  -0.35999  -0.35773
 Alpha  occ. eigenvalues --   -0.35399  -0.35324  -0.33826  -0.33340  -0.31343
 Alpha  occ. eigenvalues --   -0.26343  -0.25785  -0.24734  -0.24624  -0.22590
 Alpha  occ. eigenvalues --   -0.18838
 Alpha virt. eigenvalues --   -0.01067  -0.00401   0.00399   0.00568   0.00957
 Alpha virt. eigenvalues --    0.01707   0.03451   0.03788   0.04707   0.05937
 Alpha virt. eigenvalues --    0.06485   0.06581   0.07096   0.07210   0.07541

 Mulliken charges:
               1
     1  P    0.169493
     2  P    0.167883
     3  C   -0.427412
     4  C   -0.371479
     5  H    0.140720
     6  H    0.124567
     7  H    0.109741
     8  H    0.128796
     9  H    0.112666
    10  C   -0.278995
    11  H    0.120044
    12  H    0.128811
    13  C   -0.258944
    14  H    0.105075
    15  H    0.135058
    16  C   -0.254084
    17  H    0.133292
    18  H    0.104773
    19  C   -0.274786
    20  H    0.128227
    21  H    0.118761
    22  C   -0.358512
    23  H    0.119946
    24  H    0.112776
    25  H    0.114429
    26  C   -0.358815
    27  H    0.112859
    28  H    0.121073
    29  H    0.114698
    30  C   -0.370501
    31  H    0.112110
    32  H    0.126224
    33  H    0.109573
    34  C   -0.295747
    35  H    0.100530
    36  H    0.113604
    37  C    0.091913
    38  C    0.057979
    39  C   -0.285157
    40  H    0.109305
    41  H    0.100908
    42  C    0.086069
    43  C   -0.296301
    44  H    0.100318
    45  H    0.115948
    46  C    0.060643
    47  C   -0.288959
    48  H    0.110576
    49  H    0.100306
 Sum of Mulliken charges =  -0.00000

 Dipole moment (field-independent basis, Debye):
    X=              0.0355    Y=             -1.3596    Z=             -1.3809  Tot=              1.9382
 Quadrupole moment (field-independent basis, Debye-Ang):
   XX=           -141.9819   YY=           -131.6574   ZZ=           -140.7647
   XY=             -0.2393   XZ=              0.0324   YZ=              0.1253

 Summary of Natural Population Analysis:

                                       Natural Population
                Natural  -----------------------------------------------
    Atom  No    Charge         Core      Valence    Rydberg      Total
 -----------------------------------------------------------------------
      P    1    0.80595      9.99867     4.15997    0.03541    14.19405
      P    2    0.80582      9.99867     4.16004    0.03547    14.19418
      C    3   -1.03341      1.99946     5.00274    0.03121     7.03341
      C    4   -0.62624      1.99938     4.61451    0.01236     6.62624
      H    5    0.24781      0.00000     0.75020    0.00199     0.75219
      H    6    0.23261      0.00000     0.76457    0.00282     0.76739
      H    7    0.21164      0.00000     0.78714    0.00123     0.78836
      H    8    0.21905      0.00000     0.77904    0.00192     0.78095
      H    9    0.20719      0.00000     0.79125    0.00156     0.79281
      C   10   -0.71240      1.99929     4.69008    0.02303     6.71240
      H   11    0.22650      0.00000     0.77169    0.00181     0.77350
      H   12    0.23877      0.00000     0.75980    0.00143     0.76123
      C   13   -0.72496      1.99931     4.70187    0.02379     6.72496
      H   14    0.21753      0.00000     0.77932    0.00315     0.78247
      H   15    0.22895      0.00000     0.76703    0.00402     0.77105
      C   16   -0.72331      1.99931     4.70021    0.02380     6.72331
      H   17    0.22797      0.00000     0.76798    0.00405     0.77203
      H   18    0.21810      0.00000     0.77875    0.00316     0.78190
      C   19   -0.71418      1.99929     4.69178    0.02310     6.71418
      H   20    0.23893      0.00000     0.75963    0.00144     0.76107
      H   21    0.22621      0.00000     0.77200    0.00179     0.77379
      C   22   -0.62678      1.99937     4.61468    0.01273     6.62678
      H   23    0.20985      0.00000     0.78839    0.00177     0.79015
      H   24    0.20626      0.00000     0.79207    0.00167     0.79374
      H   25    0.21308      0.00000     0.78564    0.00128     0.78692
      C   26   -0.62700      1.99937     4.61493    0.01270     6.62700
      H   27    0.20636      0.00000     0.79197    0.00168     0.79364
      H   28    0.21007      0.00000     0.78818    0.00175     0.78993
      H   29    0.21325      0.00000     0.78546    0.00128     0.78675
      C   30   -0.62548      1.99938     4.61372    0.01238     6.62548
      H   31    0.20694      0.00000     0.79151    0.00155     0.79306
      H   32    0.21768      0.00000     0.78043    0.00189     0.78232
      H   33    0.21172      0.00000     0.78706    0.00122     0.78828
      C   34   -0.40234      1.99902     4.38764    0.01569     6.40234
      H   35    0.19082      0.00000     0.80758    0.00161     0.80918
      H   36    0.19296      0.00000     0.80519    0.00185     0.80704
      C   37    0.02097      1.99915     3.95827    0.02161     5.97903
      C   38    0.00843      1.99914     3.97061    0.02182     5.99157
      C   39   -0.40825      1.99902     4.39256    0.01666     6.40825
      H   40    0.19050      0.00000     0.80771    0.00179     0.80950
      H   41    0.19033      0.00000     0.80780    0.00188     0.80967
      C   42    0.01976      1.99915     3.95945    0.02164     5.98024
      C   43   -0.40160      1.99901     4.38686    0.01573     6.40160
      H   44    0.19080      0.00000     0.80758    0.00161     0.80920
      H   45    0.19333      0.00000     0.80483    0.00183     0.80667
      C   46    0.00831      1.99914     3.97070    0.02185     5.99169
      C   47   -0.40914      1.99902     4.39342    0.01670     6.40914
      H   48    0.19072      0.00000     0.80750    0.00178     0.80928
      H   49    0.18993      0.00000     0.80819    0.00189     0.81007
 =======================================================================
   * Total *    0.00000     53.98415   107.55948    0.45637   162.00000

 Normal termination of Gaussian 16 at Thu Jan 23 20:40:55 2025.
