 Gaussian 16, Revision B.01,
 Gaussian 16:  ES64L-G16RevB.01 20-Dec-2017

 --------------------------------------------
 # nmr=giao b3lyp/def2TZVP pop=nbo scfcyc=200
 --------------------------------------------

 --------------
 MB-39 SPE NoRh
 --------------
 Symbolic Z-matrix:
 Charge =  0 Multiplicity = 1

                         Standard orientation:
 ---------------------------------------------------------------------
 Center     Atomic      Atomic             Coordinates (Angstroms)
 Number     Number       Type             X           Y           Z
 ---------------------------------------------------------------------
      1         15           0       -0.911009    0.117986   -0.572950
      2         15           0        1.694736   -0.865698   -0.575122
      3          6           0        0.510124   -0.063777    0.637969
      4          6           0       -1.803359    1.684077   -0.191938
      5          6           0       -3.199131    1.739276   -0.234265
      6          6           0       -3.858629    2.946584   -0.025915
      7          6           0       -3.134100    4.107360    0.221948
      8          6           0       -1.742285    4.060732    0.253888
      9          6           0       -1.079818    2.859233    0.039668
     10          6           0       -2.069188   -1.247872   -0.159206
     11          6           0       -2.405477   -2.189658   -1.134444
     12          6           0       -3.264150   -3.241983   -0.827825
     13          6           0       -3.788446   -3.359608    0.454401
     14          6           0       -3.456671   -2.425205    1.432487
     15          6           0       -2.601233   -1.373460    1.130472
     16          6           0        3.384353   -0.256017   -0.186092
     17          6           0        4.348312   -1.052478    0.437655
     18          6           0        5.608654   -0.534416    0.717712
     19          6           0        5.917005    0.779520    0.384093
     20          6           0        4.962133    1.578881   -0.239855
     21          6           0        3.706732    1.061395   -0.532006
     22          6           0        1.673809   -2.657397   -0.137147
     23          1           0        0.896435    0.919151    0.907281
     24          1           0        0.296409   -0.623063    1.548446
     25          1           0        0.661571   -3.032169   -0.279573
     26          1           0        1.969465   -2.818909    0.899841
     27          1           0        2.342967   -3.209769   -0.797396
     28          1           0       -3.777959    0.842715   -0.417705
     29          1           0       -4.939881    2.976298   -0.054648
     30          1           0       -3.648694    5.044317    0.388564
     31          1           0       -1.173320    4.961476    0.444825
     32          1           0        0.003819    2.847605    0.054112
     33          1           0       -1.990216   -2.102620   -2.130514
     34          1           0       -3.521010   -3.967381   -1.588807
     35          1           0       -4.456822   -4.177663    0.693150
     36          1           0       -3.866342   -2.514738    2.431301
     37          1           0       -2.359577   -0.647603    1.897337
     38          1           0        4.132734   -2.076041    0.711461
     39          1           0        6.349028   -1.160157    1.200688
     40          1           0        6.898475    1.179269    0.605352
     41          1           0        5.200296    2.600093   -0.506778
     42          1           0        2.974905    1.683760   -1.035464
 ---------------------------------------------------------------------

 SCF Done:  E(RB3LYP) =  -1457.19804530     A.U. after   15 cycles

      1  P    Isotropic =   233.5617   Anisotropy =   112.3658

      2  P    Isotropic =   269.8903   Anisotropy =    72.2913

      3  C    Isotropic =   144.1636   Anisotropy =    23.9455

      4  C    Isotropic =    28.8984   Anisotropy =   198.2557

      5  C    Isotropic =    50.8755   Anisotropy =   181.6167

      6  C    Isotropic =    49.6156   Anisotropy =   183.4320

      7  C    Isotropic =    53.4829   Anisotropy =   179.6455

      8  C    Isotropic =    50.3209   Anisotropy =   182.7128

      9  C    Isotropic =    50.7600   Anisotropy =   181.5088

     10  C    Isotropic =    34.6423   Anisotropy =   206.7846

     11  C    Isotropic =    39.2853   Anisotropy =   182.6422

     12  C    Isotropic =    50.0676   Anisotropy =   183.8951

     13  C    Isotropic =    48.0565   Anisotropy =   190.3816

     14  C    Isotropic =    48.1518   Anisotropy =   186.2212

     15  C    Isotropic =    39.4219   Anisotropy =   187.7693

     16  C    Isotropic =    31.8511   Anisotropy =   208.2304

     17  C    Isotropic =    52.0805   Anisotropy =   184.9381

     18  C    Isotropic =    49.8416   Anisotropy =   183.1143

     19  C    Isotropic =    51.2496   Anisotropy =   183.2187

     20  C    Isotropic =    49.6074   Anisotropy =   184.1933

     21  C    Isotropic =    45.1601   Anisotropy =   179.7996

     22  C    Isotropic =   173.7935   Anisotropy =    17.1848

     23  H    Isotropic =    29.8100   Anisotropy =     5.7928

     24  H    Isotropic =    29.4858   Anisotropy =     4.0621

     25  H    Isotropic =    31.0801   Anisotropy =    10.2778

     26  H    Isotropic =    30.5424   Anisotropy =     8.4318

     27  H    Isotropic =    30.9009   Anisotropy =    10.5474

     28  H    Isotropic =    25.0927   Anisotropy =    12.8835

     29  H    Isotropic =    24.5948   Anisotropy =     6.3251

     30  H    Isotropic =    24.6309   Anisotropy =     4.2921

     31  H    Isotropic =    24.3330   Anisotropy =     5.9656

     32  H    Isotropic =    24.0995   Anisotropy =    10.3944

     33  H    Isotropic =    23.5756   Anisotropy =     8.0815

     34  H    Isotropic =    24.1405   Anisotropy =     5.1806

     35  H    Isotropic =    24.1631   Anisotropy =     4.2845

     36  H    Isotropic =    24.1791   Anisotropy =     5.7925

     37  H    Isotropic =    23.9401   Anisotropy =    10.7144

     38  H    Isotropic =    24.3904   Anisotropy =    11.6324

     39  H    Isotropic =    24.3634   Anisotropy =     5.7792

     40  H    Isotropic =    24.4127   Anisotropy =     4.6005

     41  H    Isotropic =    24.2136   Anisotropy =     5.8358

     42  H    Isotropic =    23.8365   Anisotropy =     9.8632

 The electronic state is 1-A.
 Alpha  occ. eigenvalues --  -77.04917 -77.04512 -10.18834 -10.18661 -10.18591
 Alpha  occ. eigenvalues --  -10.18574 -10.18483 -10.18431 -10.18418 -10.18400
 Alpha  occ. eigenvalues --  -10.18222 -10.17878 -10.17796 -10.17781 -10.17725
 Alpha  occ. eigenvalues --  -10.17702 -10.17669 -10.17575 -10.17475 -10.17385
 Alpha  occ. eigenvalues --  -10.17260 -10.17065  -6.53483  -6.53078  -4.69635
 Alpha  occ. eigenvalues --   -4.69604  -4.69231  -4.69200  -4.69117  -4.68702
 Alpha  occ. eigenvalues --   -0.86780  -0.85997  -0.85712  -0.77929  -0.76337
 Alpha  occ. eigenvalues --   -0.75806  -0.75148  -0.74985  -0.74666  -0.73281
 Alpha  occ. eigenvalues --   -0.70496  -0.63460  -0.61600  -0.61365  -0.60798
 Alpha  occ. eigenvalues --   -0.60636  -0.60246  -0.56166  -0.54862  -0.52547
 Alpha  occ. eigenvalues --   -0.51088  -0.50355  -0.46426  -0.46274  -0.45832
 Alpha  occ. eigenvalues --   -0.45545  -0.45467  -0.45048  -0.44403  -0.43413
 Alpha  occ. eigenvalues --   -0.43184  -0.42538  -0.42223  -0.41988  -0.40695
 Alpha  occ. eigenvalues --   -0.40081  -0.38916  -0.37851  -0.37617  -0.37440
 Alpha  occ. eigenvalues --   -0.36030  -0.35674  -0.35077  -0.34859  -0.33384
 Alpha  occ. eigenvalues --   -0.32622  -0.31926  -0.27617  -0.27101  -0.26844
 Alpha  occ. eigenvalues --   -0.26113  -0.25878  -0.25698  -0.22107  -0.18842
 Alpha virt. eigenvalues --   -0.03897  -0.02866  -0.02570  -0.01736  -0.01529
 Alpha virt. eigenvalues --   -0.01380   0.01629   0.03407   0.04184   0.04951
 Alpha virt. eigenvalues --    0.05249   0.05606   0.06430   0.07075   0.07537

 Mulliken charges:
               1
     1  P    0.172380
     2  P    0.182104
     3  C   -0.362727
     4  C    0.076581
     5  C   -0.165152
     6  C   -0.123761
     7  C   -0.109617
     8  C   -0.118982
     9  C   -0.199571
    10  C    0.002372
    11  C   -0.153780
    12  C   -0.101784
    13  C   -0.096533
    14  C   -0.101354
    15  C   -0.186049
    16  C    0.082544
    17  C   -0.172566
    18  C   -0.120934
    19  C   -0.105126
    20  C   -0.106684
    21  C   -0.201028
    22  C   -0.464233
    23  H    0.138767
    24  H    0.125126
    25  H    0.157481
    26  H    0.117615
    27  H    0.135642
    28  H    0.135419
    29  H    0.106592
    30  H    0.106618
    31  H    0.105493
    32  H    0.105428
    33  H    0.120100
    34  H    0.113340
    35  H    0.114001
    36  H    0.111289
    37  H    0.128268
    38  H    0.113566
    39  H    0.106497
    40  H    0.108923
    41  H    0.108700
    42  H    0.115034
 Sum of Mulliken charges =  -0.00000

 Dipole moment (field-independent basis, Debye):
    X=             -0.3836    Y=             -1.0311    Z=              2.0778  Tot=              2.3511
 Quadrupole moment (field-independent basis, Debye-Ang):
   XX=           -134.0403   YY=           -132.4924   ZZ=           -150.1094
   XY=              5.5640   XZ=              1.5140   YZ=              0.3242

 Summary of Natural Population Analysis:

                                       Natural Population
                Natural  -----------------------------------------------
    Atom  No    Charge         Core      Valence    Rydberg      Total
 -----------------------------------------------------------------------
      P    1    0.82593      9.99816     4.14154    0.03438    14.17407
      P    2    0.81151      9.99851     4.15203    0.03795    14.18849
      C    3   -0.99063      1.99944     4.95840    0.03278     6.99063
      C    4   -0.31527      1.99899     4.28652    0.02976     6.31527
      C    5   -0.21274      1.99908     4.19352    0.02013     6.21274
      C    6   -0.19472      1.99919     4.17660    0.01893     6.19472
      C    7   -0.21737      1.99919     4.19850    0.01968     6.21737
      C    8   -0.19560      1.99919     4.17743    0.01898     6.19560
      C    9   -0.21346      1.99908     4.19436    0.02002     6.21346
      C   10   -0.33906      1.99902     4.30618    0.03387     6.33906
      C   11   -0.19144      1.99910     4.17143    0.02091     6.19144
      C   12   -0.20713      1.99918     4.18844    0.01951     6.20713
      C   13   -0.19519      1.99919     4.17698    0.01902     6.19519
      C   14   -0.20550      1.99919     4.18718    0.01913     6.20550
      C   15   -0.19327      1.99909     4.17385    0.02034     6.19327
      C   16   -0.32321      1.99901     4.29489    0.02931     6.32321
      C   17   -0.20751      1.99908     4.18790    0.02053     6.20751
      C   18   -0.19887      1.99919     4.18038    0.01930     6.19887
      C   19   -0.20922      1.99919     4.19037    0.01966     6.20922
      C   20   -0.19989      1.99919     4.18155    0.01916     6.19989
      C   21   -0.20287      1.99909     4.18287    0.02092     6.20287
      C   22   -0.92053      1.99945     4.90240    0.01868     6.92053
      H   23    0.25104      0.00000     0.74740    0.00156     0.74896
      H   24    0.23638      0.00000     0.76096    0.00266     0.76362
      H   25    0.23830      0.00000     0.76078    0.00092     0.76170
      H   26    0.20860      0.00000     0.78847    0.00293     0.79140
      H   27    0.23291      0.00000     0.76618    0.00091     0.76709
      H   28    0.21300      0.00000     0.78516    0.00184     0.78700
      H   29    0.20717      0.00000     0.79151    0.00132     0.79283
      H   30    0.20728      0.00000     0.79151    0.00121     0.79272
      H   31    0.20729      0.00000     0.79139    0.00132     0.79271
      H   32    0.19929      0.00000     0.79836    0.00235     0.80071
      H   33    0.22089      0.00000     0.77749    0.00162     0.77911
      H   34    0.21110      0.00000     0.78764    0.00126     0.78890
      H   35    0.20969      0.00000     0.78915    0.00116     0.79031
      H   36    0.20941      0.00000     0.78921    0.00138     0.79059
      H   37    0.21062      0.00000     0.78694    0.00244     0.78938
      H   38    0.20265      0.00000     0.79464    0.00271     0.79735
      H   39    0.20654      0.00000     0.79210    0.00136     0.79346
      H   40    0.20783      0.00000     0.79094    0.00124     0.79217
      H   41    0.20840      0.00000     0.79028    0.00132     0.79160
      H   42    0.20767      0.00000     0.79037    0.00197     0.79233
 =======================================================================
   * Total *   -0.00000     59.97979   109.47378    0.54643   170.00000

 Normal termination of Gaussian 16 at Thu Jan 23 21:34:13 2025.
