 Gaussian 16, Revision B.01,
 Gaussian 16:  ES64L-G16RevB.01 20-Dec-2017

 --------------------------------------------
 # nmr=giao b3lyp/def2TZVP pop=nbo scfcyc=200
 --------------------------------------------

 -----------------
 Ligand 1 SPE NoRh
 -----------------
 Symbolic Z-matrix:
 Charge =  0 Multiplicity = 1

                         Standard orientation:
 ---------------------------------------------------------------------
 Center     Atomic      Atomic             Coordinates (Angstroms)
 Number     Number       Type             X           Y           Z
 ---------------------------------------------------------------------
      1         15           0        0.621523    0.996560    1.229994
      2         15           0       -1.641556   -0.432579    0.475439
      3          6           0       -0.693645    1.055808   -0.119307
      4          1           0       -1.292027    1.955019    0.032388
      5          1           0       -0.352263    1.013079   -1.152663
      6          6           0       -3.399906   -0.286619   -0.039360
      7          6           0       -5.243222    0.899393   -1.059178
      8          1           0       -5.620584    1.775632   -1.572470
      9          6           0       -5.603229   -1.285975   -0.118362
     10          1           0       -6.261889   -2.115738    0.106381
     11          6           0       -0.997185   -1.826945   -0.554557
     12          1           0       -1.464933   -2.759603   -0.240672
     13          1           0       -1.221114   -1.649805   -1.607074
     14          1           0        0.079725   -1.914738   -0.418229
     15          6           0        2.142656    0.307780    0.414337
     16          6           0        2.730022    0.970676   -0.694601
     17          6           0        2.711819   -0.903789    0.871900
     18          6           0        3.845911    0.404755   -1.307598
     19          6           0        3.831393   -1.418495    0.216096
     20          6           0        4.416531   -0.787585   -0.872993
     21          1           0        4.284179    0.920958   -2.154419
     22          1           0        4.257418   -2.348231    0.577608
     23          6           0        1.001343    2.732906    1.744435
     24          1           0        1.731941    2.691766    2.553974
     25          1           0        1.401759    3.343788    0.941796
     26          1           0        0.085533    3.185037    2.124738
     27          6           0        2.219002   -1.690090    2.064195
     28          1           0        1.131984   -1.674459    2.171980
     29          1           0        2.536676   -2.729747    1.985211
     30          1           0        2.642238   -1.293969    2.990817
     31          6           0        5.604467   -1.382705   -1.578610
     32          1           0        6.174689   -2.036824   -0.918488
     33          1           0        5.282195   -1.981328   -2.436011
     34          1           0        6.273508   -0.607929   -1.956240
     35          6           0        2.267301    2.294278   -1.265741
     36          1           0        2.500847    2.341959   -2.329354
     37          1           0        1.202672    2.480560   -1.159304
     38          1           0        2.796117    3.124633   -0.790412
     39          6           0       -4.264996   -1.348346    0.250752
     40          1           0       -3.900389   -2.234108    0.759963
     41          6           0       -6.095641   -0.160182   -0.772035
     42          1           0       -7.138282   -0.111852   -1.058188
     43          6           0       -3.901477    0.840476   -0.695137
     44          1           0       -3.256385    1.674130   -0.938258
 ---------------------------------------------------------------------

 SCF Done:  E(RB3LYP) =  -1383.38016059     A.U. after   14 cycles

      1  P    Isotropic =   287.7355   Anisotropy =    79.3987

      2  P    Isotropic =   265.7214   Anisotropy =   122.5396

      3  C    Isotropic =   154.5069   Anisotropy =    18.1128

      4  H    Isotropic =    29.8958   Anisotropy =     7.8495

      5  H    Isotropic =    29.8989   Anisotropy =     5.7827

      6  C    Isotropic =    28.1876   Anisotropy =   207.4022

      7  C    Isotropic =    50.0138   Anisotropy =   182.7033

      8  H    Isotropic =    24.4423   Anisotropy =     6.1264

      9  C    Isotropic =    49.7082   Anisotropy =   183.5527

     10  H    Isotropic =    24.3868   Anisotropy =     5.4402

     11  C    Isotropic =   167.9290   Anisotropy =    20.7614

     12  H    Isotropic =    30.8318   Anisotropy =     9.8448

     13  H    Isotropic =    30.7982   Anisotropy =     6.6371

     14  H    Isotropic =    31.1361   Anisotropy =    10.6618

     15  C    Isotropic =    42.7543   Anisotropy =   171.8934

     16  C    Isotropic =    28.5654   Anisotropy =   188.5869

     17  C    Isotropic =    29.8209   Anisotropy =   196.7673

     18  C    Isotropic =    48.5109   Anisotropy =   137.9746

     19  C    Isotropic =    48.5301   Anisotropy =   134.2931

     20  C    Isotropic =    36.3177   Anisotropy =   198.3693

     21  H    Isotropic =    24.7402   Anisotropy =     9.7712

     22  H    Isotropic =    24.7258   Anisotropy =     9.1532

     23  C    Isotropic =   168.6194   Anisotropy =    24.0024

     24  H    Isotropic =    30.9591   Anisotropy =     9.5468

     25  H    Isotropic =    29.4929   Anisotropy =     7.6399

     26  H    Isotropic =    30.6360   Anisotropy =     8.4470

     27  C    Isotropic =   158.1673   Anisotropy =    33.9756

     28  H    Isotropic =    28.3083   Anisotropy =     6.7661

     29  H    Isotropic =    29.7483   Anisotropy =     7.2955

     30  H    Isotropic =    29.3345   Anisotropy =     8.3116

     31  C    Isotropic =   160.6993   Anisotropy =    41.4002

     32  H    Isotropic =    29.7774   Anisotropy =     7.5857

     33  H    Isotropic =    29.3660   Anisotropy =     8.1787

     34  H    Isotropic =    29.6840   Anisotropy =     7.7656

     35  C    Isotropic =   158.1776   Anisotropy =    29.2308

     36  H    Isotropic =    29.5416   Anisotropy =     7.5968

     37  H    Isotropic =    28.9632   Anisotropy =     7.5765

     38  H    Isotropic =    29.0669   Anisotropy =     7.3861

     39  C    Isotropic =    49.6897   Anisotropy =   182.4548

     40  H    Isotropic =    24.4117   Anisotropy =    10.5039

     41  C    Isotropic =    53.3958   Anisotropy =   180.2634

     42  H    Isotropic =    24.6077   Anisotropy =     4.4090

     43  C    Isotropic =    51.3222   Anisotropy =   178.6915

     44  H    Isotropic =    24.3594   Anisotropy =    11.7862

 The electronic state is 1-A.
 Alpha  occ. eigenvalues --  -77.04161 -77.04156 -10.18896 -10.18819 -10.18433
 Alpha  occ. eigenvalues --  -10.18158 -10.17877 -10.17853 -10.17443 -10.17408
 Alpha  occ. eigenvalues --  -10.17381 -10.17350 -10.17149 -10.17120 -10.17071
 Alpha  occ. eigenvalues --  -10.16692 -10.16604 -10.16577 -10.16557 -10.16012
 Alpha  occ. eigenvalues --   -6.52714  -6.52703  -4.68887  -4.68873  -4.68819
 Alpha  occ. eigenvalues --   -4.68817  -4.68341  -4.68320  -0.86488  -0.85588
 Alpha  occ. eigenvalues --   -0.78981  -0.78469  -0.76752  -0.74747  -0.74143
 Alpha  occ. eigenvalues --   -0.71829  -0.70473  -0.69177  -0.68495  -0.67762
 Alpha  occ. eigenvalues --   -0.61064  -0.60489  -0.58441  -0.57719  -0.54852
 Alpha  occ. eigenvalues --   -0.53862  -0.50658  -0.48625  -0.47451  -0.45368
 Alpha  occ. eigenvalues --   -0.45091  -0.44641  -0.43666  -0.43186  -0.42861
 Alpha  occ. eigenvalues --   -0.42496  -0.42435  -0.41934  -0.41460  -0.41047
 Alpha  occ. eigenvalues --   -0.40514  -0.40302  -0.39809  -0.39546  -0.39171
 Alpha  occ. eigenvalues --   -0.37597  -0.37318  -0.36901  -0.36619  -0.34804
 Alpha  occ. eigenvalues --   -0.34079  -0.34000  -0.32974  -0.32106  -0.30893
 Alpha  occ. eigenvalues --   -0.26617  -0.25709  -0.24460  -0.24326  -0.21934
 Alpha  occ. eigenvalues --   -0.18379
 Alpha virt. eigenvalues --   -0.02840  -0.01849  -0.01367  -0.01307   0.02376
 Alpha virt. eigenvalues --    0.03099   0.04318   0.04439   0.04997   0.05243
 Alpha virt. eigenvalues --    0.05999   0.06612   0.07148   0.07561   0.07894

 Mulliken charges:
               1
     1  P    0.122185
     2  P    0.156287
     3  C   -0.385139
     4  H    0.126236
     5  H    0.130042
     6  C    0.140155
     7  C   -0.113247
     8  H    0.104038
     9  C   -0.106320
    10  H    0.106552
    11  C   -0.423249
    12  H    0.122579
    13  H    0.119508
    14  H    0.145950
    15  C   -0.177264
    16  C    0.198405
    17  C    0.192329
    18  C   -0.322117
    19  C   -0.304297
    20  C    0.226129
    21  H    0.085256
    22  H    0.088435
    23  C   -0.414576
    24  H    0.128821
    25  H    0.115889
    26  H    0.125537
    27  C   -0.347726
    28  H    0.150648
    29  H    0.108306
    30  H    0.117602
    31  C   -0.366102
    32  H    0.117074
    33  H    0.123119
    34  H    0.117436
    35  C   -0.407262
    36  H    0.122879
    37  H    0.137724
    38  H    0.132935
    39  C   -0.200481
    40  H    0.103844
    41  C   -0.116588
    42  H    0.106315
    43  C   -0.188819
    44  H    0.100972
 Sum of Mulliken charges =  -0.00000

 Dipole moment (field-independent basis, Debye):
    X=              1.3663    Y=              0.6040    Z=             -1.8476  Tot=              2.3760
 Quadrupole moment (field-independent basis, Debye-Ang):
   XX=           -129.7670   YY=           -128.5960   ZZ=           -141.0282
   XY=             -1.2650   XZ=              0.5491   YZ=             -2.6141

 Summary of Natural Population Analysis:

                                       Natural Population
                Natural  -----------------------------------------------
    Atom  No    Charge         Core      Valence    Rydberg      Total
 -----------------------------------------------------------------------
      P    1    0.77810      9.99853     4.18710    0.03627    14.22190
      P    2    0.81855      9.99849     4.14453    0.03844    14.18145
      C    3   -1.01018      1.99946     4.97998    0.03075     7.01018
      H    4    0.24510      0.00000     0.75331    0.00159     0.75490
      H    5    0.23048      0.00000     0.76626    0.00326     0.76952
      C    6   -0.31890      1.99902     4.29017    0.02971     6.31890
      C    7   -0.19713      1.99919     4.17861    0.01933     6.19713
      H    8    0.20542      0.00000     0.79322    0.00136     0.79458
      C    9   -0.19661      1.99919     4.17830    0.01912     6.19661
      H   10    0.20710      0.00000     0.79158    0.00133     0.79290
      C   11   -0.90544      1.99944     4.88631    0.01969     6.90544
      H   12    0.22877      0.00000     0.77028    0.00095     0.77123
      H   13    0.21241      0.00000     0.78499    0.00260     0.78759
      H   14    0.23263      0.00000     0.76632    0.00105     0.76737
      C   15   -0.34242      1.99884     4.31422    0.02936     6.34242
      C   16    0.01265      1.99906     3.96794    0.02036     5.98735
      C   17    0.01702      1.99906     3.96339    0.02052     5.98298
      C   18   -0.21646      1.99899     4.20025    0.01722     6.21646
      C   19   -0.21678      1.99898     4.20028    0.01751     6.21678
      C   20    0.00806      1.99909     3.97474    0.01811     5.99194
      H   21    0.19412      0.00000     0.80406    0.00182     0.80588
      H   22    0.19693      0.00000     0.80130    0.00177     0.80307
      C   23   -0.90668      1.99943     4.88937    0.01787     6.90668
      H   24    0.23221      0.00000     0.76692    0.00087     0.76779
      H   25    0.20673      0.00000     0.79037    0.00290     0.79327
      H   26    0.22682      0.00000     0.77224    0.00094     0.77318
      C   27   -0.62194      1.99940     4.61041    0.01213     6.62194
      H   28    0.23300      0.00000     0.76549    0.00151     0.76700
      H   29    0.20504      0.00000     0.79385    0.00112     0.79496
      H   30    0.21747      0.00000     0.78121    0.00132     0.78253
      C   31   -0.60992      1.99941     4.59865    0.01185     6.60992
      H   32    0.21136      0.00000     0.78759    0.00105     0.78864
      H   33    0.21623      0.00000     0.78251    0.00126     0.78377
      H   34    0.21199      0.00000     0.78691    0.00109     0.78801
      C   35   -0.61988      1.99939     4.60799    0.01250     6.61988
      H   36    0.21324      0.00000     0.78569    0.00107     0.78676
      H   37    0.21327      0.00000     0.78521    0.00152     0.78673
      H   38    0.21534      0.00000     0.78311    0.00156     0.78466
      C   39   -0.20623      1.99908     4.18636    0.02079     6.20623
      H   40    0.20480      0.00000     0.79302    0.00219     0.79520
      C   41   -0.21733      1.99919     4.19828    0.01987     6.21733
      H   42    0.20693      0.00000     0.79182    0.00125     0.79307
      C   43   -0.21534      1.99908     4.19578    0.02048     6.21534
      H   44    0.19948      0.00000     0.79825    0.00227     0.80052
 =======================================================================
   * Total *   -0.00000     55.98232   105.54814    0.46954   162.00000

 Normal termination of Gaussian 16 at Wed Nov  6 14:26:11 2024.
