 Gaussian 16, Revision B.01,
 Gaussian 16:  ES64L-G16RevB.01 20-Dec-2017

 --------------------------------------------
 # nmr=giao b3lyp/def2TZVP pop=nbo scfcyc=200
 --------------------------------------------

 --------------
 MB-35 SPE NoRh
 --------------
 Symbolic Z-matrix:
 Charge =  0 Multiplicity = 1

                         Standard orientation:
 ---------------------------------------------------------------------
 Center     Atomic      Atomic             Coordinates (Angstroms)
 Number     Number       Type             X           Y           Z
 ---------------------------------------------------------------------
      1         15           0        2.238940   -0.133094   -0.532999
      2         15           0       -0.577112    0.030322   -0.587367
      3          6           0        3.367236   -1.620760   -0.281631
      4          1           0        4.186147   -1.432709   -0.983203
      5          6           0        2.664407   -2.915399   -0.708816
      6          1           0        3.390092   -3.729198   -0.742216
      7          1           0        2.199976   -2.831030   -1.691567
      8          1           0        1.890557   -3.205428    0.005159
      9          6           0        3.951843   -1.757097    1.129188
     10          1           0        4.544071   -2.672987    1.188231
     11          1           0        3.169056   -1.828586    1.887939
     12          1           0        4.608176   -0.930296    1.394107
     13          6           0        3.200017    1.427137   -0.058884
     14          1           0        2.598405    2.213787   -0.522280
     15          6           0        4.576755    1.433456   -0.738758
     16          1           0        5.030866    2.420604   -0.631847
     17          1           0        4.516877    1.216480   -1.806512
     18          1           0        5.257352    0.712635   -0.285197
     19          6           0        3.309782    1.738097    1.438171
     20          1           0        3.807673    2.702677    1.563922
     21          1           0        3.895862    0.996470    1.978747
     22          1           0        2.337479    1.816777    1.924372
     23          6           0       -1.863992   -1.325239   -0.381873
     24          1           0       -2.647306   -1.039328   -1.093057
     25          6           0       -1.325033   -2.700756   -0.811592
     26          1           0       -0.902854   -2.647466   -1.817120
     27          1           0       -0.509391   -2.999408   -0.145889
     28          6           0       -2.424317   -3.770511   -0.745827
     29          1           0       -3.198812   -3.538539   -1.484267
     30          1           0       -2.006698   -4.739899   -1.028133
     31          6           0       -3.052927   -3.846087    0.648265
     32          1           0       -3.863788   -4.576886    0.658078
     33          1           0       -2.305220   -4.203909    1.365017
     34          6           0       -3.573023   -2.477891    1.097621
     35          1           0       -3.959933   -2.532735    2.117527
     36          1           0       -4.414634   -2.181963    0.461451
     37          6           0       -2.484383   -1.395611    1.025310
     38          1           0       -1.702386   -1.623747    1.756751
     39          1           0       -2.912441   -0.433478    1.313311
     40          6           0       -1.411622    1.602288    0.027272
     41          1           0       -1.636583    1.408041    1.082350
     42          6           0       -0.472800    2.817577   -0.047854
     43          1           0        0.441622    2.631816    0.520731
     44          1           0       -0.169980    2.975288   -1.088936
     45          6           0       -1.151550    4.086977    0.487600
     46          1           0       -1.338613    3.970523    1.560223
     47          1           0       -0.470167    4.934682    0.382512
     48          6           0       -2.472713    4.370006   -0.231339
     49          1           0       -2.958637    5.245554    0.204338
     50          1           0       -2.271683    4.616523   -1.280560
     51          6           0       -3.406893    3.160227   -0.164219
     52          1           0       -4.323407    3.352422   -0.728091
     53          1           0       -3.711607    2.991054    0.875122
     54          6           0       -2.735442    1.889656   -0.704710
     55          1           0       -3.423545    1.047081   -0.611727
     56          1           0       -2.540365    2.020184   -1.774744
     57          6           0        0.793163   -0.314323    0.648195
     58          1           0        0.805592    0.346921    1.512292
     59          1           0        0.729782   -1.340832    1.011957
 ---------------------------------------------------------------------

 SCF Done:  E(RB3LYP) =  -1429.94496402     A.U. after   14 cycles

      1  P    Isotropic =   226.4085   Anisotropy =    88.6975

      2  P    Isotropic =   227.7462   Anisotropy =    94.5832

      3  C    Isotropic =   148.3936   Anisotropy =    19.4721

      4  H    Isotropic =    30.1311   Anisotropy =     6.4236

      5  C    Isotropic =   160.2896   Anisotropy =    34.4427

      6  H    Isotropic =    30.8677   Anisotropy =    10.2566

      7  H    Isotropic =    30.5858   Anisotropy =     7.5782

      8  H    Isotropic =    31.0762   Anisotropy =     6.4842

      9  C    Isotropic =   161.4477   Anisotropy =    29.7427

     10  H    Isotropic =    30.9116   Anisotropy =    11.1237

     11  H    Isotropic =    31.0455   Anisotropy =     4.0302

     12  H    Isotropic =    30.5982   Anisotropy =     6.8346

     13  C    Isotropic =   153.7017   Anisotropy =    11.1572

     14  H    Isotropic =    29.7268   Anisotropy =     7.9378

     15  C    Isotropic =   164.5907   Anisotropy =    30.6565

     16  H    Isotropic =    30.7948   Anisotropy =    10.7601

     17  H    Isotropic =    30.6192   Anisotropy =     9.1407

     18  H    Isotropic =    31.1462   Anisotropy =     6.9451

     19  C    Isotropic =   164.0447   Anisotropy =    25.8320

     20  H    Isotropic =    30.8909   Anisotropy =    10.4882

     21  H    Isotropic =    30.9001   Anisotropy =     6.4629

     22  H    Isotropic =    30.5481   Anisotropy =     5.7693

     23  C    Isotropic =   140.2698   Anisotropy =    26.5985

     24  H    Isotropic =    30.5601   Anisotropy =     4.6960

     25  C    Isotropic =   148.7088   Anisotropy =     8.0271

     26  H    Isotropic =    30.0248   Anisotropy =     6.5463

     27  H    Isotropic =    30.7540   Anisotropy =     8.4225

     28  C    Isotropic =   151.3030   Anisotropy =     6.9758

     29  H    Isotropic =    30.6225   Anisotropy =     8.4001

     30  H    Isotropic =    30.1162   Anisotropy =     9.6088

     31  C    Isotropic =   152.3016   Anisotropy =     3.7426

     32  H    Isotropic =    30.2310   Anisotropy =    10.6380

     33  H    Isotropic =    30.6796   Anisotropy =     7.6399

     34  C    Isotropic =   151.4842   Anisotropy =     7.7777

     35  H    Isotropic =    30.2004   Anisotropy =     9.6764

     36  H    Isotropic =    30.7598   Anisotropy =     8.0379

     37  C    Isotropic =   152.0640   Anisotropy =    10.4768

     38  H    Isotropic =    30.8571   Anisotropy =     4.3661

     39  H    Isotropic =    30.0764   Anisotropy =     7.6095

     40  C    Isotropic =   142.7131   Anisotropy =    19.0034

     41  H    Isotropic =    30.0835   Anisotropy =     4.1879

     42  C    Isotropic =   149.6089   Anisotropy =    10.3728

     43  H    Isotropic =    30.4645   Anisotropy =    10.9364

     44  H    Isotropic =    30.6645   Anisotropy =     5.3583

     45  C    Isotropic =   151.5568   Anisotropy =     8.0209

     46  H    Isotropic =    30.6117   Anisotropy =     7.2075

     47  H    Isotropic =    30.1430   Anisotropy =     9.2269

     48  C    Isotropic =   152.9220   Anisotropy =     3.4538

     49  H    Isotropic =    30.2267   Anisotropy =    10.6016

     50  H    Isotropic =    30.6030   Anisotropy =     8.4782

     51  C    Isotropic =   151.4911   Anisotropy =     7.0441

     52  H    Isotropic =    30.1453   Anisotropy =    10.0511

     53  H    Isotropic =    30.6057   Anisotropy =     7.4954

     54  C    Isotropic =   151.8391   Anisotropy =    10.5227

     55  H    Isotropic =    30.4735   Anisotropy =     7.7563

     56  H    Isotropic =    30.9153   Anisotropy =     5.8738

     57  C    Isotropic =   174.7639   Anisotropy =    12.5917

     58  H    Isotropic =    30.8968   Anisotropy =     5.5689

     59  H    Isotropic =    30.6833   Anisotropy =     5.7550

 The electronic state is 1-A.
 Alpha  occ. eigenvalues --  -77.02740 -77.02689 -10.17905 -10.17562 -10.17315
 Alpha  occ. eigenvalues --  -10.17150 -10.17112 -10.16581 -10.16546 -10.16469
 Alpha  occ. eigenvalues --  -10.16374 -10.16354 -10.16333 -10.16304 -10.16279
 Alpha  occ. eigenvalues --  -10.16237 -10.16229 -10.16210 -10.16063 -10.16044
 Alpha  occ. eigenvalues --  -10.15873  -6.51330  -6.51284  -4.67499  -4.67452
 Alpha  occ. eigenvalues --   -4.67419  -4.67383  -4.66954  -4.66891  -0.83470
 Alpha  occ. eigenvalues --   -0.82878  -0.80081  -0.78021  -0.75958  -0.74278
 Alpha  occ. eigenvalues --   -0.74142  -0.73572  -0.71607  -0.68813  -0.68492
 Alpha  occ. eigenvalues --   -0.63073  -0.61463  -0.61008  -0.60933  -0.60043
 Alpha  occ. eigenvalues --   -0.58320  -0.55774  -0.55432  -0.52585  -0.51186
 Alpha  occ. eigenvalues --   -0.47771  -0.47408  -0.46414  -0.45676  -0.44457
 Alpha  occ. eigenvalues --   -0.44170  -0.44110  -0.43718  -0.43650  -0.43503
 Alpha  occ. eigenvalues --   -0.42970  -0.41717  -0.41202  -0.40341  -0.40042
 Alpha  occ. eigenvalues --   -0.39049  -0.38634  -0.38417  -0.38060  -0.37942
 Alpha  occ. eigenvalues --   -0.37695  -0.36540  -0.35552  -0.35292  -0.35081
 Alpha  occ. eigenvalues --   -0.34937  -0.34643  -0.34500  -0.34334  -0.34070
 Alpha  occ. eigenvalues --   -0.33973  -0.32125  -0.32075  -0.31521  -0.30589
 Alpha  occ. eigenvalues --   -0.30384  -0.28932  -0.28466  -0.27455  -0.21138
 Alpha  occ. eigenvalues --   -0.17311
 Alpha virt. eigenvalues --    0.01641   0.02043   0.02794   0.03050   0.03705
 Alpha virt. eigenvalues --    0.04832   0.05009   0.05473   0.05828   0.06473
 Alpha virt. eigenvalues --    0.06787   0.06989   0.07490   0.07806   0.08005

 Mulliken charges:
               1
     1  P    0.131568
     2  P    0.160132
     3  C   -0.074393
     4  H    0.083644
     5  C   -0.347340
     6  H    0.112880
     7  H    0.127092
     8  H    0.091032
     9  C   -0.334224
    10  H    0.099659
    11  H    0.106203
    12  H    0.101546
    13  C   -0.073181
    14  H    0.093065
    15  C   -0.373216
    16  H    0.111934
    17  H    0.126500
    18  H    0.109517
    19  C   -0.332025
    20  H    0.102136
    21  H    0.106154
    22  H    0.102016
    23  C   -0.102085
    24  H    0.073929
    25  C   -0.189090
    26  H    0.107802
    27  H    0.063978
    28  C   -0.155172
    29  H    0.081114
    30  H    0.092233
    31  C   -0.160499
    32  H    0.091745
    33  H    0.074511
    34  C   -0.154987
    35  H    0.089166
    36  H    0.078749
    37  C   -0.213901
    38  H    0.083461
    39  H    0.101351
    40  C   -0.078690
    41  H    0.068272
    42  C   -0.224460
    43  H    0.093366
    44  H    0.095721
    45  C   -0.157523
    46  H    0.076783
    47  H    0.091890
    48  C   -0.156348
    49  H    0.091065
    50  H    0.078832
    51  C   -0.157148
    52  H    0.092403
    53  H    0.077368
    54  C   -0.218817
    55  H    0.101417
    56  H    0.090194
    57  C   -0.385274
    58  H    0.113955
    59  H    0.113987
 Sum of Mulliken charges =  -0.00000

 Dipole moment (field-independent basis, Debye):
    X=             -0.2001    Y=              0.0281    Z=              1.7051  Tot=              1.7170
 Quadrupole moment (field-independent basis, Debye-Ang):
   XX=           -148.3700   YY=           -149.1182   ZZ=           -157.4372
   XY=             -0.0495   XZ=              1.2593   YZ=              0.0828

 Summary of Natural Population Analysis:

                                       Natural Population
                Natural  -----------------------------------------------
    Atom  No    Charge         Core      Valence    Rydberg      Total
 -----------------------------------------------------------------------
      P    1    0.78352      9.99864     4.18453    0.03331    14.21648
      P    2    0.81468      9.99856     4.15310    0.03366    14.18532
      C    3   -0.47976      1.99944     4.45738    0.02294     6.47976
      H    4    0.21256      0.00000     0.78559    0.00185     0.78744
      C    5   -0.59324      1.99943     4.58225    0.01156     6.59324
      H    6    0.20301      0.00000     0.79534    0.00164     0.79699
      H    7    0.21585      0.00000     0.78261    0.00154     0.78415
      H    8    0.19105      0.00000     0.80741    0.00155     0.80895
      C    9   -0.59886      1.99943     4.58776    0.01166     6.59886
      H   10    0.19520      0.00000     0.80268    0.00212     0.80480
      H   11    0.19569      0.00000     0.80276    0.00155     0.80431
      H   12    0.19927      0.00000     0.79918    0.00156     0.80073
      C   13   -0.47277      1.99943     4.45086    0.02247     6.47277
      H   14    0.21270      0.00000     0.78539    0.00191     0.78730
      C   15   -0.59500      1.99943     4.58400    0.01157     6.59500
      H   16    0.20414      0.00000     0.79417    0.00168     0.79586
      H   17    0.21251      0.00000     0.78596    0.00153     0.78749
      H   18    0.19598      0.00000     0.80254    0.00148     0.80402
      C   19   -0.59723      1.99942     4.58595    0.01186     6.59723
      H   20    0.19832      0.00000     0.79968    0.00200     0.80168
      H   21    0.19929      0.00000     0.79929    0.00143     0.80071
      H   22    0.19697      0.00000     0.80145    0.00158     0.80303
      C   23   -0.48029      1.99938     4.45626    0.02464     6.48029
      H   24    0.21133      0.00000     0.78621    0.00246     0.78867
      C   25   -0.39060      1.99938     4.37606    0.01516     6.39060
      H   26    0.21399      0.00000     0.78414    0.00187     0.78601
      H   27    0.18169      0.00000     0.81560    0.00271     0.81831
      C   28   -0.38125      1.99942     4.36823    0.01359     6.38125
      H   29    0.18795      0.00000     0.81025    0.00180     0.81205
      H   30    0.20152      0.00000     0.79712    0.00136     0.79848
      C   31   -0.38595      1.99942     4.37319    0.01334     6.38595
      H   32    0.20145      0.00000     0.79721    0.00133     0.79855
      H   33    0.18598      0.00000     0.81216    0.00185     0.81402
      C   34   -0.38284      1.99943     4.36987    0.01354     6.38284
      H   35    0.19920      0.00000     0.79931    0.00149     0.80080
      H   36    0.18613      0.00000     0.81205    0.00182     0.81387
      C   37   -0.39546      1.99938     4.38153    0.01455     6.39546
      H   38    0.18542      0.00000     0.81214    0.00244     0.81458
      H   39    0.19755      0.00000     0.80044    0.00202     0.80245
      C   40   -0.48017      1.99939     4.45586    0.02492     6.48017
      H   41    0.19099      0.00000     0.80529    0.00372     0.80901
      C   42   -0.39206      1.99938     4.37810    0.01458     6.39206
      H   43    0.19726      0.00000     0.80086    0.00188     0.80274
      H   44    0.19588      0.00000     0.80171    0.00241     0.80412
      C   45   -0.38043      1.99942     4.36761    0.01340     6.38043
      H   46    0.18660      0.00000     0.81155    0.00185     0.81340
      H   47    0.20114      0.00000     0.79747    0.00139     0.79886
      C   48   -0.38601      1.99942     4.37335    0.01323     6.38601
      H   49    0.20104      0.00000     0.79760    0.00136     0.79896
      H   50    0.18867      0.00000     0.80949    0.00184     0.81133
      C   51   -0.37957      1.99942     4.36671    0.01344     6.37957
      H   52    0.20113      0.00000     0.79748    0.00139     0.79887
      H   53    0.18629      0.00000     0.81186    0.00185     0.81371
      C   54   -0.39204      1.99938     4.37830    0.01436     6.39204
      H   55    0.19910      0.00000     0.79909    0.00180     0.80090
      H   56    0.19423      0.00000     0.80323    0.00254     0.80577
      C   57   -1.03920      1.99946     5.00814    0.03160     7.03920
      H   58    0.23412      0.00000     0.76309    0.00279     0.76588
      H   59    0.24333      0.00000     0.75407    0.00260     0.75667
 =======================================================================
   * Total *   -0.00000     57.98608   123.56250    0.45142   182.00000

 Normal termination of Gaussian 16 at Thu Jan 23 21:20:11 2025.
