 Gaussian 16, Revision B.01,
 Gaussian 16:  ES64L-G16RevB.01 20-Dec-2017

 --------------------------------------------
 # nmr=giao b3lyp/def2TZVP pop=nbo scfcyc=200
 --------------------------------------------

 --------------
 MB-37 SPE NoRh
 --------------
 Symbolic Z-matrix:
 Charge =  0 Multiplicity = 1

                         Standard orientation:
 ---------------------------------------------------------------------
 Center     Atomic      Atomic             Coordinates (Angstroms)
 Number     Number       Type             X           Y           Z
 ---------------------------------------------------------------------
      1         15           0       -0.863060   -0.282668   -0.485303
      2         15           0        1.879538   -0.672196   -0.217034
      3          6           0        0.342260   -0.820784    0.844026
      4          1           0        0.173562   -1.871368    1.083384
      5          1           0        0.328212   -0.239488    1.767340
      6          6           0       -1.255059    1.470512   -0.091090
      7          6           0       -1.776969    1.827707    1.157555
      8          1           0       -1.984073    1.068905    1.904125
      9          6           0       -2.047619    3.158163    1.446974
     10          1           0       -2.452487    3.427211    2.414960
     11          6           0       -1.800452    4.145467    0.495171
     12          1           0       -2.012664    5.182188    0.723767
     13          6           0       -1.281361    3.798436   -0.746636
     14          1           0       -1.087613    4.563442   -1.488193
     15          6           0       -1.007795    2.465586   -1.039485
     16          1           0       -0.593442    2.198673   -2.004393
     17          6           0       -2.430272   -1.225420   -0.266478
     18          6           0       -2.378747   -2.615314   -0.107191
     19          1           0       -1.426486   -3.130687   -0.064333
     20          6           0       -3.551341   -3.354437   -0.006503
     21          1           0       -3.500030   -4.427419    0.128584
     22          6           0       -4.786865   -2.717624   -0.084600
     23          1           0       -5.699228   -3.294379   -0.008250
     24          6           0       -4.845418   -1.340794   -0.263199
     25          1           0       -5.803615   -0.841150   -0.327535
     26          6           0       -3.673732   -0.594433   -0.355714
     27          1           0       -3.736809    0.477164   -0.486722
     28          6           0        4.450608   -1.986385   -0.134944
     29          1           0        4.435723   -1.979562   -1.228168
     30          1           0        4.947158   -1.062840    0.171276
     31          6           0        3.585196    1.590275   -0.719908
     32          1           0        3.035164    1.765700   -1.649419
     33          1           0        4.399730    0.905425   -0.968067
     34          6           0        2.641196    0.946998    0.303065
     35          1           0        3.151331    0.778599    1.256426
     36          1           0        1.805920    1.622449    0.503406
     37          6           0        3.017450   -2.006692    0.411749
     38          1           0        2.533628   -2.955903    0.166621
     39          1           0        3.030314   -1.927397    1.504105
     40          6           0        4.168947    2.908385   -0.210143
     41          1           0        4.755164    2.758901    0.699680
     42          1           0        4.826084    3.358208   -0.956387
     43          1           0        3.380439    3.628956    0.016860
     44          6           0        5.265812   -3.184263    0.355863
     45          1           0        6.284795   -3.145938   -0.032300
     46          1           0        5.326285   -3.201215    1.446235
     47          1           0        4.820728   -4.127806    0.030977
 ---------------------------------------------------------------------

 SCF Done:  E(RB3LYP) =  -1422.70456338     A.U. after   26 cycles

      1  P    Isotropic =   241.7037   Anisotropy =   104.0501

      2  P    Isotropic =   253.2605   Anisotropy =   103.9622

      3  C    Isotropic =   150.0962   Anisotropy =    20.7703

      4  H    Isotropic =    30.2755   Anisotropy =     6.7733

      5  H    Isotropic =    29.7169   Anisotropy =     4.0259

      6  C    Isotropic =    35.2020   Anisotropy =   207.3295

      7  C    Isotropic =    39.4946   Anisotropy =   188.0955

      8  H    Isotropic =    23.9130   Anisotropy =    10.3960

      9  C    Isotropic =    48.3507   Anisotropy =   186.2133

     10  H    Isotropic =    24.1846   Anisotropy =     5.6082

     11  C    Isotropic =    48.0735   Anisotropy =   189.9087

     12  H    Isotropic =    24.1944   Anisotropy =     4.2630

     13  C    Isotropic =    50.0987   Anisotropy =   184.0106

     14  H    Isotropic =    24.1895   Anisotropy =     5.1583

     15  C    Isotropic =    39.5503   Anisotropy =   182.5499

     16  H    Isotropic =    23.6863   Anisotropy =     7.5264

     17  C    Isotropic =    28.9730   Anisotropy =   199.5567

     18  C    Isotropic =    50.3995   Anisotropy =   182.3879

     19  H    Isotropic =    24.2583   Anisotropy =    10.7185

     20  C    Isotropic =    50.3311   Anisotropy =   182.6847

     21  H    Isotropic =    24.3646   Anisotropy =     5.8196

     22  C    Isotropic =    53.9425   Anisotropy =   179.6382

     23  H    Isotropic =    24.6591   Anisotropy =     4.1891

     24  C    Isotropic =    49.8459   Anisotropy =   183.0779

     25  H    Isotropic =    24.6205   Anisotropy =     6.3841

     26  C    Isotropic =    50.9723   Anisotropy =   181.5998

     27  H    Isotropic =    25.1296   Anisotropy =    13.1529

     28  C    Isotropic =   159.3238   Anisotropy =    14.3584

     29  H    Isotropic =    30.4882   Anisotropy =     5.4651

     30  H    Isotropic =    30.7607   Anisotropy =     6.9948

     31  C    Isotropic =   155.4492   Anisotropy =    23.0410

     32  H    Isotropic =    30.3758   Anisotropy =     5.0659

     33  H    Isotropic =    30.7098   Anisotropy =     7.0295

     34  C    Isotropic =   149.0042   Anisotropy =    35.4705

     35  H    Isotropic =    30.6275   Anisotropy =     3.8161

     36  H    Isotropic =    31.3331   Anisotropy =     9.8192

     37  C    Isotropic =   145.0499   Anisotropy =    33.8350

     38  H    Isotropic =    30.3188   Anisotropy =     5.1922

     39  H    Isotropic =    30.0816   Anisotropy =     4.8637

     40  C    Isotropic =   165.2088   Anisotropy =    31.3834

     41  H    Isotropic =    31.2605   Anisotropy =     8.3647

     42  H    Isotropic =    30.8712   Anisotropy =    11.1081

     43  H    Isotropic =    31.4223   Anisotropy =     7.2067

     44  C    Isotropic =   164.3471   Anisotropy =    32.9770

     45  H    Isotropic =    30.6428   Anisotropy =    10.9188

     46  H    Isotropic =    30.9958   Anisotropy =     8.0843

     47  H    Isotropic =    30.9955   Anisotropy =     8.4577

 The electronic state is 1-A.
 Alpha  occ. eigenvalues --  -77.04702 -77.03503 -10.18679 -10.18545 -10.18453
 Alpha  occ. eigenvalues --  -10.18441 -10.18307 -10.18300 -10.18235 -10.18123
 Alpha  occ. eigenvalues --  -10.17584 -10.17470 -10.17354 -10.17244 -10.17203
 Alpha  occ. eigenvalues --  -10.17136 -10.16836 -10.16812 -10.16811 -10.16058
 Alpha  occ. eigenvalues --  -10.15834  -6.53265  -6.52082  -4.69416  -4.69388
 Alpha  occ. eigenvalues --   -4.68897  -4.68250  -4.68178  -4.67707  -0.86667
 Alpha  occ. eigenvalues --   -0.85582  -0.79765  -0.78261  -0.77297  -0.75687
 Alpha  occ. eigenvalues --   -0.74907  -0.74540  -0.73567  -0.69228  -0.67865
 Alpha  occ. eigenvalues --   -0.63147  -0.61443  -0.60737  -0.60114  -0.59932
 Alpha  occ. eigenvalues --   -0.58818  -0.55821  -0.52792  -0.52376  -0.50348
 Alpha  occ. eigenvalues --   -0.47430  -0.46289  -0.46259  -0.46084  -0.45352
 Alpha  occ. eigenvalues --   -0.45004  -0.44158  -0.43205  -0.42665  -0.42329
 Alpha  occ. eigenvalues --   -0.42038  -0.41479  -0.40024  -0.39742  -0.39263
 Alpha  occ. eigenvalues --   -0.39036  -0.38257  -0.37723  -0.37314  -0.35551
 Alpha  occ. eigenvalues --   -0.35487  -0.35236  -0.34687  -0.34277  -0.33839
 Alpha  occ. eigenvalues --   -0.33291  -0.32522  -0.30864  -0.30328  -0.27274
 Alpha  occ. eigenvalues --   -0.26733  -0.26114  -0.25641  -0.21981  -0.18492
 Alpha virt. eigenvalues --   -0.03729  -0.02447  -0.01780  -0.01256   0.01689
 Alpha virt. eigenvalues --    0.02618   0.03682   0.04490   0.04888   0.05052
 Alpha virt. eigenvalues --    0.05718   0.06164   0.06827   0.07003   0.07570

 Mulliken charges:
               1
     1  P    0.171508
     2  P    0.195478
     3  C   -0.367773
     4  H    0.126608
     5  H    0.124957
     6  C    0.001495
     7  C   -0.188571
     8  H    0.126846
     9  C   -0.099916
    10  H    0.110682
    11  C   -0.096386
    12  H    0.113593
    13  C   -0.105903
    14  H    0.112328
    15  C   -0.142215
    16  H    0.118832
    17  C    0.076309
    18  C   -0.205461
    19  H    0.106025
    20  C   -0.116077
    21  H    0.105263
    22  C   -0.109885
    23  H    0.105994
    24  C   -0.123132
    25  H    0.105946
    26  C   -0.167899
    27  H    0.136791
    28  C   -0.168478
    29  H    0.095950
    30  H    0.090303
    31  C   -0.148676
    32  H    0.093059
    33  H    0.092658
    34  C   -0.298656
    35  H    0.093071
    36  H    0.130788
    37  C   -0.272919
    38  H    0.099406
    39  H    0.094592
    40  C   -0.329178
    41  H    0.099270
    42  H    0.110093
    43  H    0.105588
    44  C   -0.316634
    45  H    0.110515
    46  H    0.100130
    47  H    0.103682
 Sum of Mulliken charges =  -0.00000

 Dipole moment (field-independent basis, Debye):
    X=              0.3048    Y=              0.9287    Z=              2.0027  Tot=              2.2285
 Quadrupole moment (field-independent basis, Debye-Ang):
   XX=           -139.2232   YY=           -133.1420   ZZ=           -147.3999
   XY=             -2.5306   XZ=             -1.3138   YZ=             -2.6227

 Summary of Natural Population Analysis:

                                       Natural Population
                Natural  -----------------------------------------------
    Atom  No    Charge         Core      Valence    Rydberg      Total
 -----------------------------------------------------------------------
      P    1    0.82950      9.99816     4.13809    0.03425    14.17050
      P    2    0.78930      9.99869     4.17457    0.03744    14.21070
      C    3   -0.99654      1.99946     4.96478    0.03230     6.99654
      H    4    0.24586      0.00000     0.75245    0.00169     0.75414
      H    5    0.23452      0.00000     0.76284    0.00265     0.76548
      C    6   -0.33730      1.99901     4.30471    0.03358     6.33730
      C    7   -0.19503      1.99908     4.17555    0.02040     6.19503
      H    8    0.21050      0.00000     0.78701    0.00249     0.78950
      C    9   -0.20609      1.99919     4.18773    0.01917     6.20609
      H   10    0.20909      0.00000     0.78953    0.00138     0.79091
      C   11   -0.19582      1.99919     4.17758    0.01905     6.19582
      H   12    0.20947      0.00000     0.78936    0.00117     0.79053
      C   13   -0.20751      1.99918     4.18873    0.01960     6.20751
      H   14    0.21072      0.00000     0.78801    0.00127     0.78928
      C   15   -0.19050      1.99910     4.17033    0.02106     6.19050
      H   16    0.22070      0.00000     0.77766    0.00164     0.77930
      C   17   -0.31557      1.99899     4.28675    0.02983     6.31557
      C   18   -0.21264      1.99909     4.19351    0.02005     6.21264
      H   19    0.19971      0.00000     0.79790    0.00238     0.80029
      C   20   -0.19617      1.99919     4.17800    0.01899     6.19617
      H   21    0.20702      0.00000     0.79166    0.00132     0.79298
      C   22   -0.21810      1.99919     4.19918    0.01973     6.21810
      H   23    0.20696      0.00000     0.79183    0.00121     0.79304
      C   24   -0.19505      1.99919     4.17689    0.01898     6.19505
      H   25    0.20682      0.00000     0.79185    0.00133     0.79318
      C   26   -0.21320      1.99908     4.19401    0.02011     6.21320
      H   27    0.21299      0.00000     0.78515    0.00185     0.78701
      C   28   -0.38451      1.99945     4.37113    0.01393     6.38451
      H   29    0.19562      0.00000     0.80186    0.00253     0.80438
      H   30    0.18887      0.00000     0.80901    0.00212     0.81113
      C   31   -0.38593      1.99945     4.37119    0.01528     6.38593
      H   32    0.20060      0.00000     0.79740    0.00200     0.79940
      H   33    0.19372      0.00000     0.80457    0.00171     0.80628
      C   34   -0.69032      1.99942     4.66830    0.02260     6.69032
      H   35    0.19868      0.00000     0.79792    0.00340     0.80132
      H   36    0.22174      0.00000     0.77605    0.00221     0.77826
      C   37   -0.68194      1.99942     4.66074    0.02178     6.68194
      H   38    0.21428      0.00000     0.78415    0.00157     0.78572
      H   39    0.19476      0.00000     0.80207    0.00318     0.80524
      C   40   -0.58456      1.99947     4.57878    0.00631     6.58456
      H   41    0.19423      0.00000     0.80430    0.00148     0.80577
      H   42    0.20262      0.00000     0.79622    0.00116     0.79738
      H   43    0.19679      0.00000     0.80178    0.00144     0.80321
      C   44   -0.58206      1.99947     4.57589    0.00670     6.58206
      H   45    0.20258      0.00000     0.79622    0.00120     0.79742
      H   46    0.19543      0.00000     0.80309    0.00147     0.80457
      H   47    0.19577      0.00000     0.80268    0.00155     0.80423
 =======================================================================
   * Total *    0.00000     57.98247   111.51900    0.49853   170.00000

 Normal termination of Gaussian 16 at Thu Jan 23 21:16:05 2025.
