 Gaussian 16, Revision B.01,
 Gaussian 16:  ES64L-G16RevB.01 20-Dec-2017

 --------------------------------------------
 # nmr=giao b3lyp/def2TZVP pop=nbo scfcyc=200
 --------------------------------------------

 --------------
 MB-45 SPE NoRh
 --------------
 Symbolic Z-matrix:
 Charge =  0 Multiplicity = 1

                         Standard orientation:
 ---------------------------------------------------------------------
 Center     Atomic      Atomic             Coordinates (Angstroms)
 Number     Number       Type             X           Y           Z
 ---------------------------------------------------------------------
      1         15           0        1.077360   -0.355517   -0.847180
      2         15           0       -1.559308    0.533801   -1.095784
      3          6           0       -0.493760   -0.320498    0.182388
      4          6           0        3.658543   -1.623023    2.099818
      5          6           0        3.168801   -4.381300    0.792997
      6          6           0        4.772364    2.445658    0.331919
      7          6           0        4.733997    0.200658   -1.790493
      8          6           0       -2.700157    4.800172    0.803562
      9          6           0       -0.585267    3.034738    2.195502
     10          1           0       -0.418115    0.144944    1.164573
     11          1           0       -0.849660   -1.341697    0.307102
     12          1           0        4.042042   -2.175328    2.962131
     13          1           0        4.514673   -1.371013    1.470532
     14          1           0        3.228652   -0.695398    2.480696
     15          1           0        3.465259   -4.889515    1.714054
     16          1           0        2.468104   -5.034040    0.267162
     17          1           0        4.061609   -4.279228    0.171939
     18          1           0        5.666961    2.897636   -0.103260
     19          1           0        4.214250    3.240790    0.832436
     20          1           0        5.099143    1.736167    1.095453
     21          1           0        5.634556    0.610212   -2.254195
     22          1           0        5.059464   -0.530521   -1.047352
     23          1           0        4.185141   -0.331430   -2.570726
     24          1           0       -3.607876    4.835726    0.195523
     25          1           0       -2.920520    5.296960    1.752040
     26          1           0       -1.934061    5.389132    0.294815
     27          1           0       -0.803137    3.557483    3.129944
     28          1           0       -0.239599    2.033690    2.462041
     29          1           0        0.243807    3.561707    1.716953
     30          6           0        1.924755   -1.972051   -0.542366
     31          1           0        2.840737   -1.942399   -1.139776
     32          1           0        1.290617   -2.720954   -1.026114
     33          6           0        2.142612    0.966357   -0.118480
     34          1           0        2.407026    0.652088    0.893373
     35          1           0        1.498855    1.843893   -0.008916
     36          6           0       -1.690822    2.330280   -0.651735
     37          1           0       -2.436171    2.724189   -1.351140
     38          1           0       -0.748832    2.799971   -0.951200
     39          6           0       -3.504345    2.042025    1.960287
     40          1           0       -4.439607    2.062156    1.396706
     41          1           0       -3.232742    1.000106    2.139230
     42          1           0       -3.707615    2.493708    2.935040
     43          6           0        3.218026    2.871480   -2.310894
     44          1           0        2.483278    2.465978   -3.008234
     45          1           0        2.778046    3.754125   -1.840439
     46          1           0        4.082460    3.207772   -2.889422
     47          6           0        0.858815   -2.937509    2.261801
     48          1           0        0.412435   -1.989617    2.569226
     49          1           0        0.093529   -3.527504    1.752829
     50          1           0        1.129568   -3.476494    3.173398
     51         14           0        3.736147    1.604765   -1.005405
     52         14           0        2.397568   -2.700142    1.187258
     53         14           0       -2.131764    3.022470    1.101689
     54          6           0       -3.299992   -0.086099   -1.025417
     55          1           0       -3.818075    0.462141   -0.235777
     56          1           0       -3.750894    0.243353   -1.967570
     57          6           0       -2.688300   -3.080081   -1.861169
     58          1           0       -2.825934   -2.874634   -2.924225
     59          1           0       -1.623200   -2.980501   -1.639992
     60          1           0       -2.967787   -4.121810   -1.689037
     61          6           0       -5.570611   -2.083865   -1.333738
     62          1           0       -5.696451   -1.832769   -2.390005
     63          1           0       -5.936085   -3.103706   -1.192395
     64          1           0       -6.214562   -1.420523   -0.753343
     65          6           0       -3.615553   -2.412622    1.032952
     66          1           0       -2.592909   -2.363476    1.412296
     67          1           0       -4.233002   -1.761894    1.657420
     68          1           0       -3.967321   -3.435818    1.183062
     69         14           0       -3.764914   -1.945224   -0.795254
 ---------------------------------------------------------------------

 SCF Done:  E(RB3LYP) =  -2516.78900055     A.U. after   13 cycles

      1  P    Isotropic =   254.8149   Anisotropy =   129.5122

      2  P    Isotropic =   265.0418   Anisotropy =   109.0553

      3  C    Isotropic =   152.8451   Anisotropy =    19.3112

      4  C    Isotropic =   181.0324   Anisotropy =     5.3269

      5  C    Isotropic =   181.3141   Anisotropy =    14.1292

      6  C    Isotropic =   182.1591   Anisotropy =    10.1995

      7  C    Isotropic =   184.3946   Anisotropy =     4.8969

      8  C    Isotropic =   181.4802   Anisotropy =    13.5739

      9  C    Isotropic =   180.2754   Anisotropy =     5.9707

     10  H    Isotropic =    29.9662   Anisotropy =     4.1929

     11  H    Isotropic =    30.6331   Anisotropy =     7.3411

     12  H    Isotropic =    31.7930   Anisotropy =    10.3817

     13  H    Isotropic =    31.7222   Anisotropy =     7.6270

     14  H    Isotropic =    31.7102   Anisotropy =     6.3106

     15  H    Isotropic =    32.0368   Anisotropy =    10.2942

     16  H    Isotropic =    31.9061   Anisotropy =     8.0749

     17  H    Isotropic =    31.8791   Anisotropy =     8.0735

     18  H    Isotropic =    31.9331   Anisotropy =    10.6698

     19  H    Isotropic =    31.8972   Anisotropy =     7.7581

     20  H    Isotropic =    31.8987   Anisotropy =     7.4241

     21  H    Isotropic =    31.9961   Anisotropy =    10.7549

     22  H    Isotropic =    31.9855   Anisotropy =     7.5647

     23  H    Isotropic =    31.6176   Anisotropy =     6.7418

     24  H    Isotropic =    31.8869   Anisotropy =     8.5601

     25  H    Isotropic =    31.9439   Anisotropy =    10.1979

     26  H    Isotropic =    31.8485   Anisotropy =     8.1478

     27  H    Isotropic =    31.8701   Anisotropy =     9.8747

     28  H    Isotropic =    31.6724   Anisotropy =     7.8353

     29  H    Isotropic =    31.8303   Anisotropy =     7.7635

     30  C    Isotropic =   160.0345   Anisotropy =    24.7282

     31  H    Isotropic =    31.2123   Anisotropy =     6.8733

     32  H    Isotropic =    30.9502   Anisotropy =     5.2303

     33  C    Isotropic =   164.5226   Anisotropy =    23.6418

     34  H    Isotropic =    30.2646   Anisotropy =     4.9142

     35  H    Isotropic =    31.5502   Anisotropy =     8.3829

     36  C    Isotropic =   162.9543   Anisotropy =    22.4162

     37  H    Isotropic =    31.4781   Anisotropy =     7.3110

     38  H    Isotropic =    30.8476   Anisotropy =     6.5513

     39  C    Isotropic =   182.9343   Anisotropy =     5.2840

     40  H    Isotropic =    31.6781   Anisotropy =     7.7243

     41  H    Isotropic =    31.5633   Anisotropy =     8.3061

     42  H    Isotropic =    31.8751   Anisotropy =     9.9362

     43  C    Isotropic =   184.8737   Anisotropy =     8.2155

     44  H    Isotropic =    31.3621   Anisotropy =     7.3017

     45  H    Isotropic =    32.0354   Anisotropy =     8.0195

     46  H    Isotropic =    31.9952   Anisotropy =    10.6847

     47  C    Isotropic =   182.0455   Anisotropy =     4.9815

     48  H    Isotropic =    31.6875   Anisotropy =     7.5091

     49  H    Isotropic =    31.8780   Anisotropy =     8.1332

     50  H    Isotropic =    31.8630   Anisotropy =    10.0362

     51  Si   Isotropic =   312.8412   Anisotropy =     6.9738

     52  Si   Isotropic =   310.8999   Anisotropy =    12.9022

     53  Si   Isotropic =   313.1310   Anisotropy =    18.1813

     54  C    Isotropic =   161.4716   Anisotropy =    23.5020

     55  H    Isotropic =    30.3089   Anisotropy =     6.2136

     56  H    Isotropic =    31.2785   Anisotropy =     7.3255

     57  C    Isotropic =   184.7628   Anisotropy =     4.2364

     58  H    Isotropic =    31.7225   Anisotropy =     9.0425

     59  H    Isotropic =    31.6894   Anisotropy =    10.2654

     60  H    Isotropic =    31.9944   Anisotropy =     9.4064

     61  C    Isotropic =   181.9516   Anisotropy =    13.0296

     62  H    Isotropic =    31.8765   Anisotropy =     8.8687

     63  H    Isotropic =    31.9375   Anisotropy =    10.1072

     64  H    Isotropic =    31.9078   Anisotropy =     8.1366

     65  C    Isotropic =   182.4581   Anisotropy =     5.9484

     66  H    Isotropic =    31.6606   Anisotropy =     9.6034

     67  H    Isotropic =    31.8507   Anisotropy =     7.7206

     68  H    Isotropic =    31.9659   Anisotropy =     9.8576

     69  Si   Isotropic =   313.3565   Anisotropy =     5.8190

 The electronic state is 1-A.
 Alpha  occ. eigenvalues --  -77.03258 -77.03076 -66.09250 -66.09159 -66.09150
 Alpha  occ. eigenvalues --  -66.09031 -10.16915 -10.15321 -10.15124 -10.15037
 Alpha  occ. eigenvalues --  -10.14963 -10.14950 -10.14880 -10.14862 -10.14794
 Alpha  occ. eigenvalues --  -10.14742 -10.14658 -10.14589 -10.14555 -10.14555
 Alpha  occ. eigenvalues --  -10.14532 -10.14465 -10.14291  -6.51733  -6.51561
 Alpha  occ. eigenvalues --   -5.25296  -5.25228  -5.25212  -5.25117  -4.67899
 Alpha  occ. eigenvalues --   -4.67854  -4.67724  -4.67681  -4.67347  -4.67173
 Alpha  occ. eigenvalues --   -3.61122  -3.61070  -3.61062  -3.61040  -3.61037
 Alpha  occ. eigenvalues --   -3.61010  -3.60995  -3.60985  -3.60977  -3.60925
 Alpha  occ. eigenvalues --   -3.60898  -3.60883  -0.76035  -0.73473  -0.71959
 Alpha  occ. eigenvalues --   -0.71848  -0.71440  -0.70260  -0.68372  -0.68348
 Alpha  occ. eigenvalues --   -0.68238  -0.68089  -0.68050  -0.67990  -0.67907
 Alpha  occ. eigenvalues --   -0.67755  -0.67311  -0.66931  -0.66564  -0.52556
 Alpha  occ. eigenvalues --   -0.51859  -0.46386  -0.46062  -0.46012  -0.45560
 Alpha  occ. eigenvalues --   -0.43960  -0.43501  -0.42584  -0.42417  -0.42134
 Alpha  occ. eigenvalues --   -0.41680  -0.41449  -0.41446  -0.41310  -0.41217
 Alpha  occ. eigenvalues --   -0.41188  -0.40860  -0.40676  -0.40580  -0.40464
 Alpha  occ. eigenvalues --   -0.40017  -0.39803  -0.39656  -0.39222  -0.39188
 Alpha  occ. eigenvalues --   -0.39152  -0.38922  -0.38782  -0.38641  -0.38557
 Alpha  occ. eigenvalues --   -0.38363  -0.38341  -0.38272  -0.38238  -0.36816
 Alpha  occ. eigenvalues --   -0.34802  -0.34000  -0.31951  -0.31401  -0.31174
 Alpha  occ. eigenvalues --   -0.30520  -0.30477  -0.30297  -0.30167  -0.30141
 Alpha  occ. eigenvalues --   -0.29994  -0.29912  -0.29504  -0.28531  -0.27814
 Alpha  occ. eigenvalues --   -0.20219  -0.16624
 Alpha virt. eigenvalues --    0.00413   0.01450   0.02075   0.02509   0.03105
 Alpha virt. eigenvalues --    0.04019   0.04251   0.04623   0.05004   0.05193
 Alpha virt. eigenvalues --    0.05461   0.05829   0.06183   0.06461   0.06670

 Mulliken charges:
               1
     1  P    0.171429
     2  P    0.163071
     3  C   -0.360510
     4  C   -0.473712
     5  C   -0.451694
     6  C   -0.460070
     7  C   -0.488645
     8  C   -0.458740
     9  C   -0.459947
    10  H    0.102143
    11  H    0.107630
    12  H    0.118880
    13  H    0.118557
    14  H    0.120767
    15  H    0.110998
    16  H    0.115113
    17  H    0.115597
    18  H    0.113676
    19  H    0.114584
    20  H    0.119677
    21  H    0.118972
    22  H    0.116135
    23  H    0.132440
    24  H    0.115242
    25  H    0.111700
    26  H    0.116737
    27  H    0.117229
    28  H    0.116924
    29  H    0.115868
    30  C   -0.383474
    31  H    0.127417
    32  H    0.119669
    33  C   -0.376701
    34  H    0.099740
    35  H    0.103563
    36  C   -0.393968
    37  H    0.117077
    38  H    0.126672
    39  C   -0.480757
    40  H    0.121175
    41  H    0.130821
    42  H    0.121041
    43  C   -0.476946
    44  H    0.137100
    45  H    0.110479
    46  H    0.112559
    47  C   -0.466013
    48  H    0.119130
    49  H    0.117144
    50  H    0.119662
    51  Si   0.477111
    52  Si   0.420574
    53  Si   0.429075
    54  C   -0.357725
    55  H    0.100695
    56  H    0.111263
    57  C   -0.444167
    58  H    0.121379
    59  H    0.121436
    60  H    0.111456
    61  C   -0.463321
    62  H    0.116911
    63  H    0.112509
    64  H    0.115673
    65  C   -0.467519
    66  H    0.128043
    67  H    0.118546
    68  H    0.116054
    69  Si   0.426565
 Sum of Mulliken charges =  -0.00000

 Dipole moment (field-independent basis, Debye):
    X=             -0.1516    Y=              0.0171    Z=              1.9058  Tot=              1.9119
 Quadrupole moment (field-independent basis, Debye-Ang):
   XX=           -192.4150   YY=           -194.5363   ZZ=           -203.4282
   XY=              0.3930   XZ=             -0.1683   YZ=             -0.0571

 Summary of Natural Population Analysis:

                                       Natural Population
                Natural  -----------------------------------------------
    Atom  No    Charge         Core      Valence    Rydberg      Total
 -----------------------------------------------------------------------
      P    1    0.83804      9.99862     4.12122    0.04211    14.16196
      P    2    0.83283      9.99864     4.12609    0.04244    14.16717
      C    3   -1.03004      1.99947     4.99893    0.03164     7.03004
      C    4   -1.09493      1.99943     5.07626    0.01923     7.09493
      C    5   -1.09085      1.99944     5.07247    0.01894     7.09085
      C    6   -1.09108      1.99944     5.07263    0.01901     7.09108
      C    7   -1.09759      1.99943     5.07911    0.01904     7.09759
      C    8   -1.09174      1.99944     5.07340    0.01890     7.09174
      C    9   -1.09290      1.99944     5.07449    0.01897     7.09290
      H   10    0.22481      0.00000     0.77235    0.00283     0.77519
      H   11    0.24188      0.00000     0.75624    0.00187     0.75812
      H   12    0.22894      0.00000     0.77025    0.00080     0.77106
      H   13    0.22776      0.00000     0.77115    0.00109     0.77224
      H   14    0.22734      0.00000     0.77167    0.00099     0.77266
      H   15    0.22421      0.00000     0.77491    0.00087     0.77579
      H   16    0.22815      0.00000     0.77104    0.00081     0.77185
      H   17    0.22817      0.00000     0.77104    0.00079     0.77183
      H   18    0.22663      0.00000     0.77255    0.00081     0.77337
      H   19    0.22835      0.00000     0.77085    0.00081     0.77165
      H   20    0.22879      0.00000     0.77035    0.00086     0.77121
      H   21    0.22909      0.00000     0.77015    0.00076     0.77091
      H   22    0.22500      0.00000     0.77394    0.00106     0.77500
      H   23    0.23506      0.00000     0.76392    0.00102     0.76494
      H   24    0.22789      0.00000     0.77132    0.00079     0.77211
      H   25    0.22508      0.00000     0.77404    0.00088     0.77492
      H   26    0.22894      0.00000     0.77026    0.00079     0.77106
      H   27    0.22778      0.00000     0.77141    0.00081     0.77222
      H   28    0.22559      0.00000     0.77312    0.00130     0.77441
      H   29    0.22764      0.00000     0.77148    0.00089     0.77236
      C   30   -1.17583      1.99936     5.15079    0.02568     7.17583
      H   31    0.24741      0.00000     0.75144    0.00114     0.75259
      H   32    0.24168      0.00000     0.75714    0.00118     0.75832
      C   33   -1.18289      1.99939     5.15582    0.02768     7.18289
      H   34    0.22334      0.00000     0.77354    0.00312     0.77666
      H   35    0.24066      0.00000     0.75730    0.00204     0.75934
      C   36   -1.17234      1.99936     5.14712    0.02586     7.17234
      H   37    0.24639      0.00000     0.75246    0.00115     0.75361
      H   38    0.24222      0.00000     0.75669    0.00109     0.75778
      C   39   -1.10045      1.99943     5.08153    0.01948     7.10045
      H   40    0.22895      0.00000     0.76998    0.00107     0.77105
      H   41    0.23131      0.00000     0.76772    0.00097     0.76869
      H   42    0.22932      0.00000     0.76985    0.00083     0.77068
      C   43   -1.09317      1.99944     5.07509    0.01864     7.09317
      H   44    0.23887      0.00000     0.75997    0.00115     0.76113
      H   45    0.22536      0.00000     0.77382    0.00082     0.77464
      H   46    0.22657      0.00000     0.77269    0.00074     0.77343
      C   47   -1.09643      1.99944     5.07775    0.01924     7.09643
      H   48    0.22891      0.00000     0.76985    0.00123     0.77109
      H   49    0.22788      0.00000     0.77121    0.00090     0.77212
      H   50    0.22864      0.00000     0.77059    0.00077     0.77136
     Si   51    1.66005      9.99835     2.31509    0.02651    12.33995
     Si   52    1.63864      9.99833     2.33685    0.02618    12.36136
     Si   53    1.64008      9.99832     2.33512    0.02648    12.35992
      C   54   -1.18298      1.99936     5.15684    0.02679     7.18298
      H   55    0.22893      0.00000     0.76836    0.00271     0.77107
      H   56    0.24403      0.00000     0.75495    0.00102     0.75597
      C   57   -1.09253      1.99943     5.07375    0.01936     7.09253
      H   58    0.23401      0.00000     0.76519    0.00080     0.76599
      H   59    0.22894      0.00000     0.76992    0.00114     0.77106
      H   60    0.22537      0.00000     0.77383    0.00080     0.77463
      C   61   -1.08919      1.99944     5.07112    0.01864     7.08919
      H   62    0.22902      0.00000     0.77017    0.00081     0.77098
      H   63    0.22623      0.00000     0.77297    0.00080     0.77377
      H   64    0.22873      0.00000     0.77041    0.00086     0.77127
      C   65   -1.09346      1.99943     5.07489    0.01914     7.09346
      H   66    0.22724      0.00000     0.77182    0.00094     0.77276
      H   67    0.22931      0.00000     0.76977    0.00092     0.77069
      H   68    0.22744      0.00000     0.77179    0.00077     0.77256
     Si   69    1.65488      9.99835     2.32042    0.02636    12.34512
 =======================================================================
   * Total *   -0.00000     93.98077   139.41227    0.60696   234.00000

 Normal termination of Gaussian 16 at Thu Jan 23 22:09:04 2025.
