 Gaussian 16, Revision B.01,
 Gaussian 16:  ES64L-G16RevB.01 20-Dec-2017

 --------------------------------------------
 # nmr=giao b3lyp/def2TZVP pop=nbo scfcyc=200
 --------------------------------------------

 --------------
 MB-43 SPE NoRh
 --------------
 Symbolic Z-matrix:
 Charge =  0 Multiplicity = 1

                         Standard orientation:
 ---------------------------------------------------------------------
 Center     Atomic      Atomic             Coordinates (Angstroms)
 Number     Number       Type             X           Y           Z
 ---------------------------------------------------------------------
      1          6           0       -0.136383   -0.738855    0.568224
      2          1           0        0.018927   -0.323745    1.563069
      3          1           0       -0.456216   -1.777930    0.654034
      4         15           0        1.238598   -0.681832   -0.690164
      5         15           0       -1.373611    0.155686   -0.507373
      6          6           0       -3.007144   -0.591796   -0.138200
      7          6           0       -3.858384   -0.030998    0.818171
      8          6           0       -3.379001   -1.769677   -0.793137
      9          6           0       -5.070537   -0.645732    1.110028
     10          1           0       -3.572579    0.878175    1.329439
     11          6           0       -4.588199   -2.383374   -0.490547
     12          1           0       -2.723429   -2.209419   -1.536088
     13          6           0       -5.436766   -1.820161    0.458611
     14          1           0       -5.728827   -0.208092    1.850297
     15          1           0       -4.872312   -3.296398   -0.997903
     16          1           0       -6.381042   -2.295025    0.690034
     17          6           0        2.462390    0.570692   -0.138347
     18          6           0        3.645078    0.691701   -0.878806
     19          6           0        2.245961    1.423528    0.946535
     20          6           0        4.600992    1.634600   -0.526123
     21          1           0        3.828783    0.038074   -1.723858
     22          6           0        3.203543    2.372907    1.291331
     23          1           0        1.335171    1.364060    1.526527
     24          6           0        4.380604    2.479205    0.559526
     25          1           0        5.515848    1.713856   -1.099644
     26          1           0        3.029768    3.025772    2.137729
     27          1           0        5.124564    3.215833    0.833038
     28          6           0       -1.507181    2.882455   -0.557222
     29          1           0       -0.879763    2.759753   -1.446240
     30          6           0       -0.929092    3.972262    0.326453
     31          1           0        0.107326    3.755515    0.585695
     32          1           0       -0.959156    4.929888   -0.196579
     33          1           0       -1.507872    4.067690    1.246829
     34          6           0       -2.945590    3.153392   -0.969397
     35          1           0       -3.355439    2.343660   -1.575294
     36          1           0       -3.582843    3.278649   -0.093292
     37          1           0       -2.994687    4.070777   -1.558303
     38          6           0        2.913089   -2.635418    0.326231
     39          1           0        3.259718   -1.790331    0.925244
     40          6           0        4.092859   -3.291240   -0.366292
     41          1           0        3.755028   -4.106722   -1.008977
     42          1           0        4.640829   -2.572461   -0.974784
     43          1           0        4.778753   -3.702271    0.376915
     44          6           0        2.119917   -3.600289    1.192608
     45          1           0        1.295877   -3.103819    1.706164
     46          1           0        1.716906   -4.415467    0.589641
     47          1           0        2.772088   -4.029762    1.954988
     48          8           0        2.042861   -2.106426   -0.741281
     49          8           0       -1.415008    1.636765    0.212093
 ---------------------------------------------------------------------

 SCF Done:  E(RB3LYP) =  -1573.24315219     A.U. after   16 cycles

      1  C    Isotropic =   137.7567   Anisotropy =    39.6203

      2  H    Isotropic =    28.8725   Anisotropy =     2.0076

      3  H    Isotropic =    30.1573   Anisotropy =     6.1923

      4  P    Isotropic =   128.0377   Anisotropy =   163.2107

      5  P    Isotropic =   121.2187   Anisotropy =   214.0687

      6  C    Isotropic =    27.3023   Anisotropy =   202.4796

      7  C    Isotropic =    49.7880   Anisotropy =   197.1872

      8  C    Isotropic =    50.3723   Anisotropy =   185.3739

      9  C    Isotropic =    50.2156   Anisotropy =   183.1283

     10  H    Isotropic =    23.7397   Anisotropy =    10.5001

     11  C    Isotropic =    49.9339   Anisotropy =   184.8688

     12  H    Isotropic =    24.0970   Anisotropy =     8.6222

     13  C    Isotropic =    50.4043   Anisotropy =   183.4799

     14  H    Isotropic =    24.3023   Anisotropy =     6.0852

     15  H    Isotropic =    24.2472   Anisotropy =     5.4793

     16  H    Isotropic =    24.3907   Anisotropy =     4.6810

     17  C    Isotropic =    35.1667   Anisotropy =   200.8600

     18  C    Isotropic =    46.0016   Anisotropy =   190.9153

     19  C    Isotropic =    49.6460   Anisotropy =   188.0949

     20  C    Isotropic =    49.6584   Anisotropy =   184.6829

     21  H    Isotropic =    23.7922   Anisotropy =     8.8558

     22  C    Isotropic =    50.3168   Anisotropy =   183.5170

     23  H    Isotropic =    24.0573   Anisotropy =     8.6358

     24  C    Isotropic =    50.7007   Anisotropy =   184.1098

     25  H    Isotropic =    24.1846   Anisotropy =     5.2999

     26  H    Isotropic =    24.2774   Anisotropy =     6.3006

     27  H    Isotropic =    24.3790   Anisotropy =     4.6524

     28  C    Isotropic =    98.9514   Anisotropy =    81.9557

     29  H    Isotropic =    28.0365   Anisotropy =     2.2441

     30  C    Isotropic =   157.8498   Anisotropy =    37.7759

     31  H    Isotropic =    30.4996   Anisotropy =     9.3580

     32  H    Isotropic =    31.1255   Anisotropy =     9.5422

     33  H    Isotropic =    30.6950   Anisotropy =     5.9600

     34  C    Isotropic =   158.3931   Anisotropy =    34.3588

     35  H    Isotropic =    30.7997   Anisotropy =     5.1468

     36  H    Isotropic =    31.0568   Anisotropy =     5.9779

     37  H    Isotropic =    31.1757   Anisotropy =    10.2767

     38  C    Isotropic =   102.2326   Anisotropy =    77.2707

     39  H    Isotropic =    28.3363   Anisotropy =     5.9926

     40  C    Isotropic =   157.1717   Anisotropy =    40.6623

     41  H    Isotropic =    30.7425   Anisotropy =     6.9387

     42  H    Isotropic =    30.5949   Anisotropy =     7.1867

     43  H    Isotropic =    31.2112   Anisotropy =     9.8796

     44  C    Isotropic =   159.0366   Anisotropy =    35.7554

     45  H    Isotropic =    30.7181   Anisotropy =     6.3637

     46  H    Isotropic =    30.9401   Anisotropy =     6.4593

     47  H    Isotropic =    31.2317   Anisotropy =     9.6761

     48  O    Isotropic =   222.1771   Anisotropy =    75.8247

     49  O    Isotropic =   236.2272   Anisotropy =    84.1315

 The electronic state is 1-A.
 Alpha  occ. eigenvalues --  -77.07394 -77.06991 -19.13081 -19.13072 -10.23137
 Alpha  occ. eigenvalues --  -10.22828 -10.18278 -10.18065 -10.18033 -10.17995
 Alpha  occ. eigenvalues --  -10.17960 -10.17912 -10.17799 -10.17793 -10.17677
 Alpha  occ. eigenvalues --  -10.17615 -10.17602 -10.17554 -10.17431 -10.16493
 Alpha  occ. eigenvalues --  -10.16232 -10.16223 -10.16208  -6.55500  -6.55103
 Alpha  occ. eigenvalues --   -4.71796  -4.71557  -4.71410  -4.71168  -4.71109
 Alpha  occ. eigenvalues --   -4.70688  -1.01790  -1.01455  -0.86192  -0.85805
 Alpha  occ. eigenvalues --   -0.79073  -0.78593  -0.76011  -0.75355  -0.75293
 Alpha  occ. eigenvalues --   -0.74928  -0.72714  -0.69589  -0.69526  -0.63412
 Alpha  occ. eigenvalues --   -0.61823  -0.60960  -0.60782  -0.59987  -0.59383
 Alpha  occ. eigenvalues --   -0.55842  -0.55158  -0.52235  -0.52056  -0.48666
 Alpha  occ. eigenvalues --   -0.47714  -0.46258  -0.46075  -0.45897  -0.45431
 Alpha  occ. eigenvalues --   -0.45091  -0.44928  -0.44214  -0.43942  -0.43168
 Alpha  occ. eigenvalues --   -0.42532  -0.42149  -0.41436  -0.39659  -0.39500
 Alpha  occ. eigenvalues --   -0.39193  -0.38928  -0.38769  -0.38300  -0.37932
 Alpha  occ. eigenvalues --   -0.37388  -0.36949  -0.36617  -0.36424  -0.35190
 Alpha  occ. eigenvalues --   -0.35012  -0.34824  -0.33799  -0.32353  -0.31839
 Alpha  occ. eigenvalues --   -0.29470  -0.28114  -0.27222  -0.26311  -0.25954
 Alpha  occ. eigenvalues --   -0.25926  -0.22256  -0.18767
 Alpha virt. eigenvalues --   -0.03694  -0.02423  -0.01886  -0.01588   0.00874
 Alpha virt. eigenvalues --    0.03055   0.03634   0.04455   0.04908   0.05495
 Alpha virt. eigenvalues --    0.06233   0.06297   0.06941   0.07248   0.07411

 Mulliken charges:
               1
     1  C   -0.376958
     2  H    0.122422
     3  H    0.146613
     4  P    0.295812
     5  P    0.311394
     6  C    0.058706
     7  C   -0.172387
     8  C   -0.205923
     9  C   -0.097905
    10  H    0.122059
    11  C   -0.095030
    12  H    0.112457
    13  C   -0.108731
    14  H    0.105957
    15  H    0.108865
    16  H    0.109015
    17  C    0.032251
    18  C   -0.169624
    19  C   -0.173513
    20  C   -0.108528
    21  H    0.117551
    22  C   -0.129133
    23  H    0.122860
    24  C   -0.101426
    25  H    0.109840
    26  H    0.108351
    27  H    0.110007
    28  C    0.122990
    29  H    0.074201
    30  C   -0.320234
    31  H    0.127849
    32  H    0.101762
    33  H    0.102450
    34  C   -0.327483
    35  H    0.128357
    36  H    0.100071
    37  H    0.109521
    38  C    0.107285
    39  H    0.083398
    40  C   -0.305742
    41  H    0.107977
    42  H    0.111429
    43  H    0.098738
    44  C   -0.329219
    45  H    0.112699
    46  H    0.109674
    47  H    0.105405
    48  O   -0.373577
    49  O   -0.402553
 Sum of Mulliken charges =  -0.00000

 Dipole moment (field-independent basis, Debye):
    X=              0.6070    Y=              0.5221    Z=              2.1049  Tot=              2.2520
 Quadrupole moment (field-independent basis, Debye-Ang):
   XX=           -141.4944   YY=           -143.1806   ZZ=           -157.0781
   XY=              0.9916   XZ=             -0.1328   YZ=             -0.5231

 Summary of Natural Population Analysis:

                                       Natural Population
                Natural  -----------------------------------------------
    Atom  No    Charge         Core      Valence    Rydberg      Total
 -----------------------------------------------------------------------
      C    1   -1.08437      1.99945     5.04478    0.04015     7.08437
      H    2    0.24154      0.00000     0.75552    0.00294     0.75846
      H    3    0.26053      0.00000     0.73804    0.00144     0.73947
      P    4    1.13027      9.99821     3.81409    0.05743    13.86973
      P    5    1.11151      9.99825     3.83245    0.05780    13.88849
      C    6   -0.37178      1.99901     4.33782    0.03495     6.37178
      C    7   -0.20055      1.99908     4.18020    0.02127     6.20055
      C    8   -0.20346      1.99910     4.18348    0.02087     6.20346
      C    9   -0.20128      1.99919     4.18286    0.01923     6.20128
      H   10    0.21465      0.00000     0.78230    0.00305     0.78535
      C   11   -0.20232      1.99919     4.18331    0.01982     6.20232
      H   12    0.21244      0.00000     0.78574    0.00181     0.78756
      C   13   -0.20700      1.99919     4.18830    0.01951     6.20700
      H   14    0.20588      0.00000     0.79269    0.00143     0.79412
      H   15    0.20827      0.00000     0.79041    0.00132     0.79173
      H   16    0.20734      0.00000     0.79146    0.00120     0.79266
      C   17   -0.37745      1.99900     4.34360    0.03485     6.37745
      C   18   -0.19649      1.99909     4.17622    0.02117     6.19649
      C   19   -0.20801      1.99908     4.18795    0.02098     6.20801
      C   20   -0.20117      1.99918     4.18297    0.01902     6.20117
      H   21    0.21342      0.00000     0.78439    0.00219     0.78658
      C   22   -0.20332      1.99919     4.18472    0.01942     6.20332
      H   23    0.20936      0.00000     0.78767    0.00296     0.79064
      C   24   -0.20716      1.99919     4.18826    0.01971     6.20716
      H   25    0.20896      0.00000     0.78972    0.00131     0.79104
      H   26    0.20751      0.00000     0.79114    0.00135     0.79249
      H   27    0.20817      0.00000     0.79062    0.00121     0.79183
      C   28    0.10805      1.99931     3.87293    0.01971     5.89195
      H   29    0.17353      0.00000     0.82396    0.00252     0.82647
      C   30   -0.60283      1.99941     4.59142    0.01200     6.60283
      H   31    0.21530      0.00000     0.78353    0.00117     0.78470
      H   32    0.20617      0.00000     0.79292    0.00092     0.79383
      H   33    0.20337      0.00000     0.79518    0.00145     0.79663
      C   34   -0.61603      1.99942     4.60507    0.01154     6.61603
      H   35    0.21642      0.00000     0.78259    0.00099     0.78358
      H   36    0.20273      0.00000     0.79582    0.00145     0.79727
      H   37    0.20829      0.00000     0.79077    0.00093     0.79171
      C   38    0.09174      1.99930     3.89070    0.01826     5.90826
      H   39    0.17249      0.00000     0.82485    0.00266     0.82751
      C   40   -0.60212      1.99942     4.59109    0.01161     6.60212
      H   41    0.20734      0.00000     0.79132    0.00134     0.79266
      H   42    0.21143      0.00000     0.78752    0.00106     0.78857
      H   43    0.20362      0.00000     0.79540    0.00098     0.79638
      C   44   -0.61026      1.99942     4.59942    0.01142     6.61026
      H   45    0.20586      0.00000     0.79297    0.00118     0.79414
      H   46    0.20738      0.00000     0.79121    0.00140     0.79262
      H   47    0.20630      0.00000     0.79269    0.00101     0.79370
      O   48   -0.78142      1.99982     6.76398    0.01763     8.78142
      O   49   -0.80285      1.99980     6.78415    0.01890     8.80285
 =======================================================================
   * Total *   -0.00000     61.98128   123.43018    0.58855   186.00000

 Normal termination of Gaussian 16 at Thu Jan 23 21:41:00 2025.
