 Gaussian 16, Revision B.01,
 Gaussian 16:  ES64L-G16RevB.01 20-Dec-2017

 --------------------------------------------
 # nmr=giao b3lyp/def2TZVP pop=nbo scfcyc=200
 --------------------------------------------

 --------------
 MB-41 SPE NoRh
 --------------
 Symbolic Z-matrix:
 Charge =  0 Multiplicity = 1

                         Standard orientation:
 ---------------------------------------------------------------------
 Center     Atomic      Atomic             Coordinates (Angstroms)
 Number     Number       Type             X           Y           Z
 ---------------------------------------------------------------------
      1         15           0       -1.361341   -0.317244   -0.463641
      2         15           0        1.379991   -0.658777   -0.124960
      3          6           0       -0.185330   -0.876008    0.882660
      4          1           0       -0.336292   -1.937293    1.081817
      5          1           0       -0.240088   -0.326687    1.822529
      6          6           0       -1.809373    1.410526   -0.020884
      7          6           0       -2.404231    1.705185    1.211638
      8          1           0       -2.636498    0.913076    1.913539
      9          6           0       -2.715691    3.018978    1.540372
     10          1           0       -3.177402    3.239538    2.494443
     11          6           0       -2.436496    4.048231    0.643651
     12          1           0       -2.682208    5.071112    0.902228
     13          6           0       -1.844812    3.763159   -0.580995
     14          1           0       -1.628129    4.561099   -1.279007
     15          6           0       -1.530611    2.447633   -0.913119
     16          1           0       -1.060636    2.227884   -1.863575
     17          6           0       -2.912772   -1.302304   -0.332288
     18          6           0       -2.838706   -2.691496   -0.180660
     19          1           0       -1.879230   -3.186983   -0.089068
     20          6           0       -3.996622   -3.456961   -0.151645
     21          1           0       -3.928570   -4.530590   -0.021622
     22          6           0       -5.241210   -2.847954   -0.291388
     23          1           0       -6.143464   -3.446718   -0.270058
     24          6           0       -5.320932   -1.471401   -0.462669
     25          1           0       -6.285285   -0.992561   -0.575073
     26          6           0       -4.163291   -0.698698   -0.484099
     27          1           0       -4.243187    0.373419   -0.609946
     28          6           0        3.972802   -1.920789   -0.014762
     29          1           0        3.989521   -1.876993   -1.108327
     30          1           0        4.445394   -0.999246    0.337195
     31          6           0        3.042964    1.657034   -0.503248
     32          1           0        2.514622    1.857216   -1.439530
     33          1           0        3.880724    1.000257   -0.755768
     34          6           0        2.088452    0.957357    0.471057
     35          1           0        2.576534    0.766526    1.432552
     36          1           0        1.232359    1.606337    0.672606
     37          6           0        2.528369   -1.988170    0.493511
     38          1           0        2.069441   -2.939172    0.206025
     39          1           0        2.509067   -1.942620    1.586228
     40          6           0        3.591593    2.972156    0.063088
     41          1           0        4.121805    2.768303    0.999514
     42          1           0        2.754180    3.627208    0.322673
     43          6           0        4.809723   -3.118150    0.453084
     44          1           0        4.784711   -3.167833    1.545902
     45          1           0        4.344671   -4.042368    0.094724
     46          6           0        4.527124    3.692569   -0.906778
     47          1           0        4.900510    4.623097   -0.474705
     48          1           0        5.392538    3.074447   -1.157873
     49          1           0        4.014997    3.943896   -1.839862
     50          6           0        6.259817   -3.052987   -0.025574
     51          1           0        6.761851   -2.157199    0.349789
     52          1           0        6.825932   -3.918564    0.322139
     53          1           0        6.317780   -3.035728   -1.116181
 ---------------------------------------------------------------------

 SCF Done:  E(RB3LYP) =  -1501.36074746     A.U. after   19 cycles

      1  P    Isotropic =   240.8582   Anisotropy =   103.9922

      2  P    Isotropic =   253.3923   Anisotropy =   104.0352

      3  C    Isotropic =   150.5569   Anisotropy =    19.9141

      4  H    Isotropic =    30.2678   Anisotropy =     6.8923

      5  H    Isotropic =    29.7961   Anisotropy =     4.0335

      6  C    Isotropic =    34.9182   Anisotropy =   207.5402

      7  C    Isotropic =    39.3046   Anisotropy =   188.0921

      8  H    Isotropic =    23.9260   Anisotropy =    10.4393

      9  C    Isotropic =    48.1555   Anisotropy =   186.4172

     10  H    Isotropic =    24.2004   Anisotropy =     5.6008

     11  C    Isotropic =    48.1567   Anisotropy =   189.9799

     12  H    Isotropic =    24.1998   Anisotropy =     4.2522

     13  C    Isotropic =    50.2302   Anisotropy =   184.1855

     14  H    Isotropic =    24.2102   Anisotropy =     5.2140

     15  C    Isotropic =    39.5991   Anisotropy =   182.8073

     16  H    Isotropic =    23.6795   Anisotropy =     7.4150

     17  C    Isotropic =    29.0884   Anisotropy =   199.3143

     18  C    Isotropic =    50.8945   Anisotropy =   182.1329

     19  H    Isotropic =    24.2762   Anisotropy =    10.8062

     20  C    Isotropic =    50.4098   Anisotropy =   182.3417

     21  H    Isotropic =    24.3653   Anisotropy =     5.8779

     22  C    Isotropic =    53.9026   Anisotropy =   179.2266

     23  H    Isotropic =    24.6502   Anisotropy =     4.1480

     24  C    Isotropic =    49.8136   Anisotropy =   183.0010

     25  H    Isotropic =    24.6205   Anisotropy =     6.3626

     26  C    Isotropic =    51.0434   Anisotropy =   181.3583

     27  H    Isotropic =    25.1093   Anisotropy =    13.1534

     28  C    Isotropic =   150.0137   Anisotropy =    31.0283

     29  H    Isotropic =    30.5527   Anisotropy =     3.5507

     30  H    Isotropic =    30.8397   Anisotropy =     6.6154

     31  C    Isotropic =   146.1213   Anisotropy =    39.4697

     32  H    Isotropic =    30.4773   Anisotropy =     3.2925

     33  H    Isotropic =    30.7527   Anisotropy =     6.3353

     34  C    Isotropic =   150.6685   Anisotropy =    33.0896

     35  H    Isotropic =    30.5759   Anisotropy =     3.5317

     36  H    Isotropic =    31.2724   Anisotropy =     9.9858

     37  C    Isotropic =   146.7193   Anisotropy =    31.5282

     38  H    Isotropic =    30.2687   Anisotropy =     5.2733

     39  H    Isotropic =    30.0765   Anisotropy =     4.8051

     40  C    Isotropic =   151.8115   Anisotropy =    27.6016

     41  H    Isotropic =    30.7547   Anisotropy =     5.6095

     42  H    Isotropic =    30.9371   Anisotropy =     5.6688

     43  C    Isotropic =   150.8537   Anisotropy =    28.8827

     44  H    Isotropic =    30.5097   Anisotropy =     5.6771

     45  H    Isotropic =    30.5204   Anisotropy =     6.2224

     46  C    Isotropic =   166.7747   Anisotropy =    29.1730

     47  H    Isotropic =    30.8610   Anisotropy =    10.8910

     48  H    Isotropic =    31.1298   Anisotropy =     8.2807

     49  H    Isotropic =    31.0656   Anisotropy =     7.6230

     50  C    Isotropic =   166.8513   Anisotropy =    28.7136

     51  H    Isotropic =    31.0577   Anisotropy =     7.6117

     52  H    Isotropic =    30.7450   Anisotropy =    10.9658

     53  H    Isotropic =    30.9943   Anisotropy =     7.8676

 The electronic state is 1-A.
 Alpha  occ. eigenvalues --  -77.04685 -77.03471 -10.18663 -10.18535 -10.18443
 Alpha  occ. eigenvalues --  -10.18430 -10.18299 -10.18292 -10.18223 -10.18089
 Alpha  occ. eigenvalues --  -10.17549 -10.17448 -10.17338 -10.17232 -10.17124
 Alpha  occ. eigenvalues --  -10.16968 -10.16815 -10.16782 -10.16693 -10.16566
 Alpha  occ. eigenvalues --  -10.16474 -10.15904 -10.15756  -6.53249  -6.52050
 Alpha  occ. eigenvalues --   -4.69400  -4.69373  -4.68882  -4.68219  -4.68146
 Alpha  occ. eigenvalues --   -4.67675  -0.86642  -0.85583  -0.80493  -0.79607
 Alpha  occ. eigenvalues --   -0.77444  -0.75662  -0.75187  -0.74745  -0.74522
 Alpha  occ. eigenvalues --   -0.72321  -0.71655  -0.65152  -0.62975  -0.62689
 Alpha  occ. eigenvalues --   -0.61445  -0.60564  -0.60099  -0.58565  -0.57956
 Alpha  occ. eigenvalues --   -0.55817  -0.52548  -0.52306  -0.50314  -0.48068
 Alpha  occ. eigenvalues --   -0.47229  -0.46246  -0.46118  -0.45356  -0.44994
 Alpha  occ. eigenvalues --   -0.44161  -0.43537  -0.43171  -0.43012  -0.42607
 Alpha  occ. eigenvalues --   -0.42317  -0.41663  -0.41076  -0.40437  -0.39559
 Alpha  occ. eigenvalues --   -0.38774  -0.37913  -0.37546  -0.37122  -0.36397
 Alpha  occ. eigenvalues --   -0.36020  -0.35557  -0.35322  -0.35074  -0.34562
 Alpha  occ. eigenvalues --   -0.34018  -0.33787  -0.33094  -0.32673  -0.32497
 Alpha  occ. eigenvalues --   -0.30536  -0.29877  -0.27262  -0.26707  -0.26111
 Alpha  occ. eigenvalues --   -0.25633  -0.21939  -0.18446
 Alpha virt. eigenvalues --   -0.03704  -0.02441  -0.01762  -0.01245   0.01753
 Alpha virt. eigenvalues --    0.02495   0.03663   0.04256   0.04515   0.04591
 Alpha virt. eigenvalues --    0.05265   0.05782   0.06272   0.06932   0.07038

 Mulliken charges:
               1
     1  P    0.174523
     2  P    0.195934
     3  C   -0.367373
     4  H    0.125824
     5  H    0.125173
     6  C    0.001002
     7  C   -0.186933
     8  H    0.127022
     9  C   -0.100826
    10  H    0.110767
    11  C   -0.095838
    12  H    0.113320
    13  C   -0.105939
    14  H    0.112312
    15  C   -0.143748
    16  H    0.119215
    17  C    0.075844
    18  C   -0.204545
    19  H    0.104775
    20  C   -0.115995
    21  H    0.104875
    22  C   -0.110885
    23  H    0.105890
    24  C   -0.122225
    25  H    0.105888
    26  C   -0.169212
    27  H    0.135761
    28  C   -0.201677
    29  H    0.093554
    30  H    0.087334
    31  C   -0.186334
    32  H    0.091874
    33  H    0.090997
    34  C   -0.285659
    35  H    0.093355
    36  H    0.132351
    37  C   -0.259946
    38  H    0.099087
    39  H    0.095901
    40  C   -0.144142
    41  H    0.080397
    42  H    0.087646
    43  C   -0.130166
    44  H    0.081335
    45  H    0.084225
    46  C   -0.326749
    47  H    0.109862
    48  H    0.101825
    49  H    0.101716
    50  C   -0.326658
    51  H    0.100450
    52  H    0.111175
    53  H    0.103641
 Sum of Mulliken charges =  -0.00000

 Dipole moment (field-independent basis, Debye):
    X=              0.2225    Y=              0.8240    Z=              2.1564  Tot=              2.3192
 Quadrupole moment (field-independent basis, Debye-Ang):
   XX=           -153.4285   YY=           -145.9001   ZZ=           -161.1095
   XY=             -3.5255   XZ=             -1.1183   YZ=             -2.1345

 Summary of Natural Population Analysis:

                                       Natural Population
                Natural  -----------------------------------------------
    Atom  No    Charge         Core      Valence    Rydberg      Total
 -----------------------------------------------------------------------
      P    1    0.82983      9.99816     4.13778    0.03423    14.17017
      P    2    0.79097      9.99868     4.17327    0.03708    14.20903
      C    3   -0.99642      1.99946     4.96472    0.03224     6.99642
      H    4    0.24544      0.00000     0.75286    0.00170     0.75456
      H    5    0.23464      0.00000     0.76273    0.00263     0.76536
      C    6   -0.33735      1.99901     4.30478    0.03356     6.33735
      C    7   -0.19417      1.99908     4.17473    0.02035     6.19417
      H    8    0.21067      0.00000     0.78685    0.00248     0.78933
      C    9   -0.20588      1.99919     4.18756    0.01913     6.20588
      H   10    0.20907      0.00000     0.78955    0.00138     0.79093
      C   11   -0.19608      1.99919     4.17781    0.01907     6.19608
      H   12    0.20938      0.00000     0.78945    0.00117     0.79062
      C   13   -0.20749      1.99918     4.18877    0.01953     6.20749
      H   14    0.21060      0.00000     0.78814    0.00127     0.78940
      C   15   -0.19065      1.99910     4.17061    0.02094     6.19065
      H   16    0.22068      0.00000     0.77770    0.00162     0.77932
      C   17   -0.31493      1.99899     4.28611    0.02984     6.31493
      C   18   -0.21339      1.99908     4.19426    0.02004     6.21339
      H   19    0.19931      0.00000     0.79829    0.00240     0.80069
      C   20   -0.19603      1.99918     4.17782    0.01903     6.19603
      H   21    0.20694      0.00000     0.79174    0.00132     0.79306
      C   22   -0.21844      1.99919     4.19950    0.01976     6.21844
      H   23    0.20705      0.00000     0.79174    0.00121     0.79295
      C   24   -0.19506      1.99919     4.17690    0.01897     6.19506
      H   25    0.20685      0.00000     0.79182    0.00133     0.79315
      C   26   -0.21340      1.99908     4.19418    0.02013     6.21340
      H   27    0.21293      0.00000     0.78522    0.00185     0.78707
      C   28   -0.38613      1.99942     4.37075    0.01596     6.38613
      H   29    0.19490      0.00000     0.80257    0.00253     0.80510
      H   30    0.18805      0.00000     0.80992    0.00203     0.81195
      C   31   -0.38317      1.99942     4.36782    0.01593     6.38317
      H   32    0.19584      0.00000     0.80169    0.00246     0.80416
      H   33    0.18982      0.00000     0.80792    0.00226     0.81018
      C   34   -0.68729      1.99942     4.66623    0.02164     6.68729
      H   35    0.19918      0.00000     0.79731    0.00351     0.80082
      H   36    0.22196      0.00000     0.77563    0.00240     0.77804
      C   37   -0.67938      1.99942     4.65873    0.02124     6.67938
      H   38    0.21472      0.00000     0.78361    0.00166     0.78528
      H   39    0.19508      0.00000     0.80157    0.00335     0.80492
      C   40   -0.37708      1.99945     4.36433    0.01329     6.37708
      H   41    0.18770      0.00000     0.81070    0.00160     0.81230
      H   42    0.19039      0.00000     0.80806    0.00155     0.80961
      C   43   -0.37425      1.99945     4.36149    0.01330     6.37425
      H   44    0.18900      0.00000     0.80940    0.00161     0.81100
      H   45    0.18904      0.00000     0.80927    0.00169     0.81096
      C   46   -0.58490      1.99947     4.57934    0.00609     6.58490
      H   47    0.20203      0.00000     0.79679    0.00118     0.79797
      H   48    0.19521      0.00000     0.80335    0.00144     0.80479
      H   49    0.19576      0.00000     0.80278    0.00146     0.80424
      C   50   -0.58566      1.99947     4.58004    0.00615     6.58566
      H   51    0.19470      0.00000     0.80385    0.00146     0.80530
      H   52    0.20299      0.00000     0.79583    0.00118     0.79701
      H   53    0.19638      0.00000     0.80216    0.00146     0.80362
 =======================================================================
   * Total *    0.00000     61.98131   123.48602    0.53267   186.00000

 Normal termination of Gaussian 16 at Thu Jan 23 21:42:15 2025.
