 Gaussian 16, Revision B.01,
 Gaussian 16:  ES64L-G16RevB.01 20-Dec-2017

 --------------------------------------------
 # nmr=giao b3lyp/def2TZVP pop=nbo scfcyc=200
 --------------------------------------------

 --------------
 MB-40 SPE NoRh
 --------------
 Symbolic Z-matrix:
 Charge =  0 Multiplicity = 1

                         Standard orientation:
 ---------------------------------------------------------------------
 Center     Atomic      Atomic             Coordinates (Angstroms)
 Number     Number       Type             X           Y           Z
 ---------------------------------------------------------------------
      1         15           0       -1.958866   -0.164568   -0.431050
      2         15           0        0.879610   -0.142327   -0.572151
      3          6           0       -0.470504   -0.334656    0.712957
      4          1           0       -0.421118    0.378351    1.533522
      5          1           0       -0.433306   -1.338373    1.133351
      6          6           0       -3.091679   -1.654462    0.039473
      7          6           0       -4.456636   -1.520849   -0.655670
      8          1           0       -4.365631   -1.341780   -1.727786
      9          1           0       -5.061690   -0.723455   -0.224573
     10          1           0       -5.012785   -2.452566   -0.525950
     11          6           0       -2.390321   -2.923615   -0.479602
     12          1           0       -1.456094   -3.118962    0.047258
     13          1           0       -2.175731   -2.873800   -1.545892
     14          1           0       -3.041209   -3.782615   -0.301603
     15          6           0       -3.298809   -1.806320    1.556248
     16          1           0       -2.358093   -1.891392    2.101396
     17          1           0       -3.857434   -2.728986    1.738627
     18          1           0       -3.870721   -0.990965    1.989995
     19          6           0       -2.757276    1.535044   -0.001973
     20          6           0       -3.835477    1.882004   -1.043440
     21          1           0       -3.413007    1.966048   -2.044958
     22          1           0       -4.261794    2.855705   -0.791367
     23          1           0       -4.654366    1.166987   -1.072284
     24          6           0       -1.646159    2.593257   -0.107100
     25          1           0       -0.885472    2.486649    0.666560
     26          1           0       -2.095919    3.581769    0.015477
     27          1           0       -1.152820    2.572068   -1.079489
     28          6           0       -3.363029    1.581443    1.407124
     29          1           0       -2.665459    1.250230    2.178421
     30          1           0       -4.272802    0.987732    1.486811
     31          1           0       -3.634379    2.615551    1.638477
     32          6           0        2.160930   -1.432461   -0.243626
     33          6           0        3.520021   -1.111845   -0.185462
     34          1           0        3.844886   -0.084334   -0.274820
     35          6           0        4.468907   -2.112892   -0.000473
     36          1           0        5.518379   -1.851169    0.047598
     37          6           0        4.075405   -3.439674    0.124998
     38          1           0        4.815573   -4.214905    0.272947
     39          6           0        2.724364   -3.768643    0.053704
     40          1           0        2.410350   -4.801341    0.143647
     41          6           0        1.774354   -2.772995   -0.139507
     42          1           0        0.731048   -3.051586   -0.219064
     43          6           0        1.714486    1.456170   -0.203185
     44          6           0        1.904665    2.399770   -1.213281
     45          1           0        1.546669    2.197943   -2.213731
     46          6           0        2.539916    3.607174   -0.936409
     47          1           0        2.683090    4.332762   -1.727817
     48          6           0        2.982330    3.881986    0.352206
     49          1           0        3.474138    4.822270    0.566972
     50          6           0        2.793216    2.946850    1.366328
     51          1           0        3.138535    3.156959    2.371102
     52          6           0        2.164379    1.738589    1.092792
     53          1           0        2.037494    1.015372    1.888565
 ---------------------------------------------------------------------

 SCF Done:  E(RB3LYP) =  -1501.34250043     A.U. after   24 cycles

      1  P    Isotropic =   185.9021   Anisotropy =   103.6853

      2  P    Isotropic =   239.4722   Anisotropy =   110.0550

      3  C    Isotropic =   155.1609   Anisotropy =    31.0233

      4  H    Isotropic =    29.6173   Anisotropy =     3.9148

      5  H    Isotropic =    30.0763   Anisotropy =     5.6681

      6  C    Isotropic =   138.6149   Anisotropy =    21.5264

      7  C    Isotropic =   153.5224   Anisotropy =    37.4283

      8  H    Isotropic =    30.5148   Anisotropy =     7.5038

      9  H    Isotropic =    30.7058   Anisotropy =     7.1031

     10  H    Isotropic =    31.0977   Anisotropy =     9.4256

     11  C    Isotropic =   150.1084   Anisotropy =    46.9537

     12  H    Isotropic =    30.3393   Anisotropy =     8.2712

     13  H    Isotropic =    30.3163   Anisotropy =     7.2584

     14  H    Isotropic =    31.1604   Anisotropy =     9.0985

     15  C    Isotropic =   155.3162   Anisotropy =    38.3008

     16  H    Isotropic =    30.5740   Anisotropy =     4.8938

     17  H    Isotropic =    31.0347   Anisotropy =     9.6935

     18  H    Isotropic =    30.4275   Anisotropy =     6.4894

     19  C    Isotropic =   142.2990   Anisotropy =    16.6147

     20  C    Isotropic =   152.4087   Anisotropy =    44.8506

     21  H    Isotropic =    30.7310   Anisotropy =     7.8347

     22  H    Isotropic =    31.3535   Anisotropy =     9.4841

     23  H    Isotropic =    30.5656   Anisotropy =     7.5375

     24  C    Isotropic =   150.0654   Anisotropy =    43.4603

     25  H    Isotropic =    31.9560   Anisotropy =    11.2698

     26  H    Isotropic =    31.7647   Anisotropy =     7.3877

     27  H    Isotropic =    31.2226   Anisotropy =     9.2909

     28  C    Isotropic =   154.4414   Anisotropy =    33.9351

     29  H    Isotropic =    30.8002   Anisotropy =     4.9678

     30  H    Isotropic =    30.6227   Anisotropy =     7.2229

     31  H    Isotropic =    31.2619   Anisotropy =     9.4852

     32  C    Isotropic =    27.0372   Anisotropy =   198.5186

     33  C    Isotropic =    49.7166   Anisotropy =   181.3500

     34  H    Isotropic =    25.2758   Anisotropy =    13.7689

     35  C    Isotropic =    50.0882   Anisotropy =   182.2283

     36  H    Isotropic =    24.6650   Anisotropy =     6.5123

     37  C    Isotropic =    53.6017   Anisotropy =   180.1573

     38  H    Isotropic =    24.6549   Anisotropy =     4.1927

     39  C    Isotropic =    50.5143   Anisotropy =   182.5460

     40  H    Isotropic =    24.3693   Anisotropy =     6.5430

     41  C    Isotropic =    49.5435   Anisotropy =   180.0653

     42  H    Isotropic =    24.0165   Anisotropy =     9.9643

     43  C    Isotropic =    35.0237   Anisotropy =   208.1612

     44  C    Isotropic =    39.1917   Anisotropy =   184.0451

     45  H    Isotropic =    23.8078   Anisotropy =     8.1526

     46  C    Isotropic =    50.1401   Anisotropy =   183.7347

     47  H    Isotropic =    24.2336   Anisotropy =     5.1499

     48  C    Isotropic =    48.6942   Anisotropy =   189.0813

     49  H    Isotropic =    24.2445   Anisotropy =     4.0121

     50  C    Isotropic =    48.3788   Anisotropy =   186.1501

     51  H    Isotropic =    24.1882   Anisotropy =     5.8341

     52  C    Isotropic =    39.2551   Anisotropy =   188.0883

     53  H    Isotropic =    23.9088   Anisotropy =    10.7312

 The electronic state is 1-A.
 Alpha  occ. eigenvalues --  -77.04605 -77.03512 -10.19133 -10.19051 -10.18504
 Alpha  occ. eigenvalues --  -10.18406 -10.18312 -10.18281 -10.18197 -10.18195
 Alpha  occ. eigenvalues --  -10.18187 -10.18105 -10.17512 -10.17439 -10.17302
 Alpha  occ. eigenvalues --  -10.17170 -10.17137 -10.16279 -10.16257 -10.16074
 Alpha  occ. eigenvalues --  -10.15922 -10.15906 -10.15872  -6.53162  -6.52038
 Alpha  occ. eigenvalues --   -4.69311  -4.69285  -4.68796  -4.68209  -4.68123
 Alpha  occ. eigenvalues --   -4.67663  -0.86552  -0.85543  -0.82017  -0.80490
 Alpha  occ. eigenvalues --   -0.77177  -0.75570  -0.74844  -0.74452  -0.72565
 Alpha  occ. eigenvalues --   -0.69296  -0.69115  -0.68486  -0.68414  -0.63414
 Alpha  occ. eigenvalues --   -0.61360  -0.60809  -0.60022  -0.59872  -0.55705
 Alpha  occ. eigenvalues --   -0.54955  -0.52358  -0.50997  -0.50378  -0.46981
 Alpha  occ. eigenvalues --   -0.46144  -0.46060  -0.45348  -0.45203  -0.44983
 Alpha  occ. eigenvalues --   -0.44383  -0.44268  -0.43628  -0.43089  -0.43035
 Alpha  occ. eigenvalues --   -0.42386  -0.42098  -0.40209  -0.39801  -0.39554
 Alpha  occ. eigenvalues --   -0.39032  -0.38412  -0.38119  -0.37654  -0.37426
 Alpha  occ. eigenvalues --   -0.37219  -0.36496  -0.35542  -0.35428  -0.34592
 Alpha  occ. eigenvalues --   -0.34374  -0.34126  -0.33410  -0.33032  -0.32355
 Alpha  occ. eigenvalues --   -0.30683  -0.28425  -0.27141  -0.26599  -0.25985
 Alpha  occ. eigenvalues --   -0.25578  -0.21648  -0.18451
 Alpha virt. eigenvalues --   -0.03617  -0.02424  -0.01754  -0.01152   0.01879
 Alpha virt. eigenvalues --    0.02577   0.03782   0.04383   0.04499   0.05271
 Alpha virt. eigenvalues --    0.05595   0.06814   0.06976   0.07234   0.07658

 Mulliken charges:
               1
     1  P    0.114201
     2  P    0.173007
     3  C   -0.404197
     4  H    0.121115
     5  H    0.134738
     6  C    0.073949
     7  C   -0.387130
     8  H    0.128705
     9  H    0.107560
    10  H    0.108078
    11  C   -0.355816
    12  H    0.086022
    13  H    0.129836
    14  H    0.108794
    15  C   -0.339753
    16  H    0.107693
    17  H    0.098881
    18  H    0.112649
    19  C    0.096884
    20  C   -0.358042
    21  H    0.118702
    22  H    0.103768
    23  H    0.114486
    24  C   -0.387816
    25  H    0.126949
    26  H    0.109587
    27  H    0.122520
    28  C   -0.366913
    29  H    0.116833
    30  H    0.104317
    31  H    0.102900
    32  C    0.020476
    33  C   -0.142506
    34  H    0.142059
    35  C   -0.136243
    36  H    0.105449
    37  C   -0.099140
    38  H    0.105758
    39  C   -0.142116
    40  H    0.103786
    41  C   -0.178901
    42  H    0.146444
    43  C    0.017720
    44  C   -0.140711
    45  H    0.117566
    46  C   -0.108713
    47  H    0.111429
    48  C   -0.097010
    49  H    0.112551
    50  C   -0.095780
    51  H    0.110020
    52  C   -0.199214
    53  H    0.124568
 Sum of Mulliken charges =  -0.00000

 Dipole moment (field-independent basis, Debye):
    X=             -0.2330    Y=              0.8940    Z=              1.8569  Tot=              2.0740
 Quadrupole moment (field-independent basis, Debye-Ang):
   XX=           -151.9222   YY=           -147.6727   ZZ=           -161.4188
   XY=              4.6609   XZ=              1.2535   YZ=             -1.9097

 Summary of Natural Population Analysis:

                                       Natural Population
                Natural  -----------------------------------------------
    Atom  No    Charge         Core      Valence    Rydberg      Total
 -----------------------------------------------------------------------
      P    1    0.78302      9.99845     4.18843    0.03010    14.21698
      P    2    0.83451      9.99813     4.13378    0.03359    14.16549
      C    3   -1.02180      1.99944     4.98945    0.03291     7.02180
      H    4    0.23847      0.00000     0.75883    0.00270     0.76153
      H    5    0.24720      0.00000     0.75056    0.00224     0.75280
      C    6   -0.26979      1.99946     4.24568    0.02466     6.26979
      C    7   -0.60214      1.99937     4.59067    0.01210     6.60214
      H    8    0.21262      0.00000     0.78583    0.00155     0.78738
      H    9    0.20003      0.00000     0.79848    0.00149     0.79997
      H   10    0.20196      0.00000     0.79594    0.00210     0.79804
      C   11   -0.60059      1.99937     4.58896    0.01226     6.60059
      H   12    0.19420      0.00000     0.80443    0.00137     0.80580
      H   13    0.21706      0.00000     0.78155    0.00140     0.78294
      H   14    0.20257      0.00000     0.79531    0.00212     0.79743
      C   15   -0.60415      1.99937     4.59256    0.01222     6.60415
      H   16    0.19870      0.00000     0.79976    0.00153     0.80130
      H   17    0.19548      0.00000     0.80221    0.00231     0.80452
      H   18    0.20490      0.00000     0.79374    0.00135     0.79510
      C   19   -0.27317      1.99945     4.24896    0.02476     6.27317
      C   20   -0.60057      1.99937     4.58883    0.01237     6.60057
      H   21    0.21239      0.00000     0.78617    0.00144     0.78761
      H   22    0.19954      0.00000     0.79845    0.00201     0.80046
      H   23    0.20458      0.00000     0.79411    0.00131     0.79542
      C   24   -0.60449      1.99937     4.59159    0.01353     6.60449
      H   25    0.20553      0.00000     0.79284    0.00163     0.79447
      H   26    0.20420      0.00000     0.79371    0.00209     0.79580
      H   27    0.21484      0.00000     0.78370    0.00146     0.78516
      C   28   -0.60285      1.99937     4.59120    0.01228     6.60285
      H   29    0.20100      0.00000     0.79737    0.00162     0.79900
      H   30    0.19892      0.00000     0.79957    0.00152     0.80108
      H   31    0.19695      0.00000     0.80072    0.00234     0.80305
      C   32   -0.31219      1.99898     4.28338    0.02982     6.31219
      C   33   -0.21255      1.99908     4.19327    0.02020     6.21255
      H   34    0.21436      0.00000     0.78377    0.00187     0.78564
      C   35   -0.19586      1.99919     4.17768    0.01899     6.19586
      H   36    0.20665      0.00000     0.79202    0.00133     0.79335
      C   37   -0.21664      1.99919     4.19775    0.01970     6.21664
      H   38    0.20695      0.00000     0.79184    0.00121     0.79305
      C   39   -0.19699      1.99918     4.17887    0.01894     6.19699
      H   40    0.20701      0.00000     0.79167    0.00132     0.79299
      C   41   -0.21509      1.99908     4.19571    0.02030     6.21509
      H   42    0.20033      0.00000     0.79708    0.00259     0.79967
      C   43   -0.33118      1.99901     4.29872    0.03345     6.33118
      C   44   -0.19122      1.99909     4.17114    0.02099     6.19122
      H   45    0.21915      0.00000     0.77921    0.00164     0.78085
      C   46   -0.20566      1.99918     4.18698    0.01950     6.20566
      H   47    0.21038      0.00000     0.78835    0.00127     0.78962
      C   48   -0.19763      1.99919     4.17939    0.01905     6.19763
      H   49    0.20933      0.00000     0.78950    0.00117     0.79067
      C   50   -0.20630      1.99919     4.18798    0.01913     6.20630
      H   51    0.20867      0.00000     0.78993    0.00139     0.79133
      C   52   -0.19964      1.99908     4.18043    0.02012     6.19964
      H   53    0.20897      0.00000     0.78860    0.00242     0.79103
 =======================================================================
   * Total *   -0.00000     61.98057   123.48663    0.53280   186.00000

 Normal termination of Gaussian 16 at Thu Jan 23 21:40:23 2025.
