 Gaussian 16, Revision B.01,
 Gaussian 16:  ES64L-G16RevB.01 20-Dec-2017

 --------------------------------------------
 # nmr=giao b3lyp/def2TZVP pop=nbo scfcyc=200
 --------------------------------------------

 --------------
 MB-42 SPE NoRh
 --------------
 Symbolic Z-matrix:
 Charge =  0 Multiplicity = 1

                         Standard orientation:
 ---------------------------------------------------------------------
 Center     Atomic      Atomic             Coordinates (Angstroms)
 Number     Number       Type             X           Y           Z
 ---------------------------------------------------------------------
      1         15           0       -2.263007    0.006888   -0.469633
      2         15           0        0.580663   -0.033711   -0.613385
      3          6           0       -0.778044   -0.030892    0.680387
      4          1           0       -0.768537   -0.899460    1.335435
      5          1           0       -0.718127    0.854090    1.310450
      6          6           0       -3.168849   -1.658147   -0.111201
      7          6           0       -2.138431   -2.779313   -0.348312
      8          1           0       -2.649891   -3.743192   -0.281388
      9          1           0       -1.344742   -2.787884    0.398170
     10          1           0       -1.685602   -2.708468   -1.339745
     11          6           0       -3.696338   -1.753345    1.328103
     12          1           0       -4.565976   -1.118895    1.489238
     13          1           0       -2.941942   -1.500617    2.074732
     14          1           0       -4.010081   -2.782791    1.520229
     15          6           0       -4.328160   -1.870607   -1.098056
     16          1           0       -3.976977   -1.926297   -2.127621
     17          1           0       -5.092437   -1.098586   -1.033850
     18          1           0       -4.810436   -2.824574   -0.869318
     19          6           0       -3.270057    1.557983    0.066904
     20          6           0       -3.526708    1.639346    1.580249
     21          1           0       -2.608787    1.581766    2.167149
     22          1           0       -4.205318    0.866681    1.934512
     23          1           0       -3.989633    2.604301    1.804058
     24          6           0       -4.610030    1.601475   -0.685037
     25          1           0       -5.074082    2.578977   -0.527789
     26          1           0       -5.310625    0.852046   -0.319877
     27          1           0       -4.493417    1.466156   -1.761384
     28          6           0       -2.422944    2.775021   -0.349202
     29          1           0       -2.180508    2.769886   -1.412679
     30          1           0       -1.489474    2.839151    0.211339
     31          1           0       -2.985932    3.687632   -0.134903
     32          6           0        1.647168   -1.565501   -0.323228
     33          1           0        1.023733   -2.352092   -0.765456
     34          6           0        2.961242   -1.515601   -1.127990
     35          1           0        2.774098   -1.241456   -2.169320
     36          1           0        3.611655   -0.740395   -0.713049
     37          6           0        3.693732   -2.863547   -1.066256
     38          1           0        3.092078   -3.624766   -1.576365
     39          1           0        4.635396   -2.791176   -1.615679
     40          6           0        3.950489   -3.298401    0.379099
     41          1           0        4.663063   -2.607301    0.844231
     42          1           0        4.419465   -4.284721    0.397327
     43          6           0        2.655586   -3.316354    1.195900
     44          1           0        2.865961   -3.567660    2.238061
     45          1           0        1.993999   -4.102249    0.814243
     46          6           0        1.923018   -1.966386    1.137312
     47          1           0        2.535741   -1.205396    1.625917
     48          1           0        0.995945   -2.034714    1.708014
     49          6           0        1.512930    1.562373   -0.216007
     50          1           0        0.678677    2.269027   -0.133131
     51          6           0        2.416854    2.084012   -1.345857
     52          1           0        3.249532    1.393796   -1.511470
     53          1           0        1.854514    2.138617   -2.278577
     54          6           0        2.974042    3.473425   -1.002888
     55          1           0        2.148564    4.193609   -0.978697
     56          1           0        3.646328    3.801046   -1.799288
     57          6           0        3.698368    3.488540    0.346298
     58          1           0        4.600715    2.870527    0.282179
     59          1           0        4.033325    4.500797    0.581699
     60          6           0        2.798826    2.954784    1.464025
     61          1           0        1.958892    3.641967    1.617425
     62          1           0        3.345108    2.916380    2.408814
     63          6           0        2.258039    1.556323    1.131407
     64          1           0        1.608389    1.207611    1.938427
     65          1           0        3.098105    0.859841    1.079316
 ---------------------------------------------------------------------

 SCF Done:  E(RB3LYP) =  -1508.58917669     A.U. after   15 cycles

      1  P    Isotropic =   190.2474   Anisotropy =   104.7196

      2  P    Isotropic =   227.1515   Anisotropy =   108.3136

      3  C    Isotropic =   167.8968   Anisotropy =    19.4143

      4  H    Isotropic =    30.4259   Anisotropy =     4.5084

      5  H    Isotropic =    31.0232   Anisotropy =     4.6394

      6  C    Isotropic =   141.2983   Anisotropy =    18.5790

      7  C    Isotropic =   151.4250   Anisotropy =    43.2238

      8  H    Isotropic =    31.3756   Anisotropy =     8.5694

      9  H    Isotropic =    31.0918   Anisotropy =     8.2339

     10  H    Isotropic =    30.7113   Anisotropy =     7.0778

     11  C    Isotropic =   154.5186   Anisotropy =    34.4087

     12  H    Isotropic =    30.6110   Anisotropy =     7.0889

     13  H    Isotropic =    30.6190   Anisotropy =     4.5068

     14  H    Isotropic =    31.1365   Anisotropy =     9.5819

     15  C    Isotropic =   152.9720   Anisotropy =    43.8851

     16  H    Isotropic =    30.7143   Anisotropy =     8.1659

     17  H    Isotropic =    30.5525   Anisotropy =     7.5652

     18  H    Isotropic =    31.2331   Anisotropy =     9.5764

     19  C    Isotropic =   141.2605   Anisotropy =    18.1081

     20  C    Isotropic =   155.4262   Anisotropy =    38.2835

     21  H    Isotropic =    30.6933   Anisotropy =     4.7429

     22  H    Isotropic =    30.5320   Anisotropy =     6.8717

     23  H    Isotropic =    31.1144   Anisotropy =     9.6808

     24  C    Isotropic =   153.3996   Anisotropy =    39.2572

     25  H    Isotropic =    31.1324   Anisotropy =     9.5954

     26  H    Isotropic =    30.7760   Anisotropy =     7.6050

     27  H    Isotropic =    30.5875   Anisotropy =     7.6171

     28  C    Isotropic =   150.4378   Anisotropy =    45.2929

     29  H    Isotropic =    30.6406   Anisotropy =     7.1559

     30  H    Isotropic =    30.9232   Anisotropy =     8.6395

     31  H    Isotropic =    31.3755   Anisotropy =     8.8350

     32  C    Isotropic =   139.8936   Anisotropy =    19.4154

     33  H    Isotropic =    30.1084   Anisotropy =     6.1185

     34  C    Isotropic =   149.7083   Anisotropy =     8.5402

     35  H    Isotropic =    30.0000   Anisotropy =     5.6000

     36  H    Isotropic =    30.7076   Anisotropy =     7.5250

     37  C    Isotropic =   150.3523   Anisotropy =     7.6751

     38  H    Isotropic =    30.6781   Anisotropy =     8.2046

     39  H    Isotropic =    30.0904   Anisotropy =     9.9640

     40  C    Isotropic =   152.0406   Anisotropy =     3.4202

     41  H    Isotropic =    30.6387   Anisotropy =     7.9588

     42  H    Isotropic =    30.2180   Anisotropy =    10.6934

     43  C    Isotropic =   150.7555   Anisotropy =     8.8365

     44  H    Isotropic =    30.1578   Anisotropy =     9.4932

     45  H    Isotropic =    30.8109   Anisotropy =     7.5469

     46  C    Isotropic =   148.7971   Anisotropy =    12.9768

     47  H    Isotropic =    30.4790   Anisotropy =     6.3793

     48  H    Isotropic =    29.9755   Anisotropy =     7.3380

     49  C    Isotropic =   135.7747   Anisotropy =    24.3894

     50  H    Isotropic =    30.5367   Anisotropy =     7.8690

     51  C    Isotropic =   147.1818   Anisotropy =    16.2367

     52  H    Isotropic =    30.5916   Anisotropy =     6.2137

     53  H    Isotropic =    29.9579   Anisotropy =     6.0705

     54  C    Isotropic =   150.3632   Anisotropy =     7.4361

     55  H    Isotropic =    30.6845   Anisotropy =     7.6335

     56  H    Isotropic =    30.1513   Anisotropy =    10.1195

     57  C    Isotropic =   152.6927   Anisotropy =     3.0176

     58  H    Isotropic =    30.7036   Anisotropy =     8.1005

     59  H    Isotropic =    30.2743   Anisotropy =    10.6192

     60  C    Isotropic =   149.9827   Anisotropy =     9.0436

     61  H    Isotropic =    30.8139   Anisotropy =     7.1300

     62  H    Isotropic =    30.1181   Anisotropy =     9.3747

     63  C    Isotropic =   147.1371   Anisotropy =    12.7174

     64  H    Isotropic =    29.8994   Anisotropy =     5.4934

     65  H    Isotropic =    30.4443   Anisotropy =     7.5780

 The electronic state is 1-A.
 Alpha  occ. eigenvalues --  -77.03056 -77.02791 -10.18887 -10.18844 -10.17309
 Alpha  occ. eigenvalues --  -10.17252 -10.17231 -10.16607 -10.16392 -10.16342
 Alpha  occ. eigenvalues --  -10.16329 -10.16268 -10.16242 -10.16192 -10.16186
 Alpha  occ. eigenvalues --  -10.16185 -10.16172 -10.16155 -10.16065 -10.16039
 Alpha  occ. eigenvalues --  -10.15919 -10.15783 -10.15769  -6.51584  -6.51360
 Alpha  occ. eigenvalues --   -4.67750  -4.67677  -4.67524  -4.67465  -4.67206
 Alpha  occ. eigenvalues --   -4.66975  -0.83431  -0.82823  -0.81803  -0.80348
 Alpha  occ. eigenvalues --   -0.75835  -0.74259  -0.74007  -0.73583  -0.71851
 Alpha  occ. eigenvalues --   -0.69142  -0.68896  -0.68486  -0.68274  -0.62771
 Alpha  occ. eigenvalues --   -0.61235  -0.60567  -0.60371  -0.59615  -0.56202
 Alpha  occ. eigenvalues --   -0.55105  -0.54827  -0.52754  -0.50699  -0.48206
 Alpha  occ. eigenvalues --   -0.46845  -0.46513  -0.44961  -0.44651  -0.44380
 Alpha  occ. eigenvalues --   -0.44197  -0.44183  -0.43999  -0.43672  -0.43563
 Alpha  occ. eigenvalues --   -0.42931  -0.41981  -0.41849  -0.40822  -0.39945
 Alpha  occ. eigenvalues --   -0.39137  -0.38404  -0.38359  -0.38080  -0.37971
 Alpha  occ. eigenvalues --   -0.37881  -0.37467  -0.37343  -0.36508  -0.36237
 Alpha  occ. eigenvalues --   -0.36074  -0.35261  -0.35000  -0.34299  -0.34015
 Alpha  occ. eigenvalues --   -0.33998  -0.33773  -0.33307  -0.32957  -0.32650
 Alpha  occ. eigenvalues --   -0.31388  -0.31247  -0.30611  -0.30185  -0.28568
 Alpha  occ. eigenvalues --   -0.28181  -0.27534  -0.21101  -0.17422
 Alpha virt. eigenvalues --    0.01785   0.02303   0.02561   0.02992   0.03708
 Alpha virt. eigenvalues --    0.03951   0.04999   0.05314   0.05497   0.06165
 Alpha virt. eigenvalues --    0.06447   0.06816   0.07420   0.07724   0.08053

 Mulliken charges:
               1
     1  P    0.120638
     2  P    0.151615
     3  C   -0.372865
     4  H    0.101981
     5  H    0.111988
     6  C    0.076762
     7  C   -0.386089
     8  H    0.109904
     9  H    0.110686
    10  H    0.130330
    11  C   -0.357236
    12  H    0.102480
    13  H    0.116043
    14  H    0.101048
    15  C   -0.356030
    16  H    0.118274
    17  H    0.110355
    18  H    0.103369
    19  C    0.080758
    20  C   -0.342547
    21  H    0.105776
    22  H    0.108013
    23  H    0.098062
    24  C   -0.377597
    25  H    0.106177
    26  H    0.104410
    27  H    0.126915
    28  C   -0.365975
    29  H    0.128725
    30  H    0.100900
    31  H    0.106542
    32  C   -0.080620
    33  H    0.078452
    34  C   -0.217387
    35  H    0.108190
    36  H    0.078060
    37  C   -0.160117
    38  H    0.082287
    39  H    0.091332
    40  C   -0.153249
    41  H    0.074473
    42  H    0.091711
    43  C   -0.165320
    44  H    0.089387
    45  H    0.081427
    46  C   -0.202582
    47  H    0.091655
    48  H    0.085198
    49  C   -0.089624
    50  H    0.052306
    51  C   -0.203071
    52  H    0.089032
    53  H    0.100784
    54  C   -0.163447
    55  H    0.080614
    56  H    0.091739
    57  C   -0.154940
    58  H    0.074656
    59  H    0.091734
    60  C   -0.158159
    61  H    0.079381
    62  H    0.088464
    63  C   -0.204057
    64  H    0.103538
    65  H    0.074740
 Sum of Mulliken charges =  -0.00000

 Dipole moment (field-independent basis, Debye):
    X=              0.2977    Y=             -0.1299    Z=              1.6938  Tot=              1.7247
 Quadrupole moment (field-independent basis, Debye-Ang):
   XX=           -162.3662   YY=           -163.1983   ZZ=           -171.4986
   XY=             -0.1434   XZ=             -1.5855   YZ=              0.2962

 Summary of Natural Population Analysis:

                                       Natural Population
                Natural  -----------------------------------------------
    Atom  No    Charge         Core      Valence    Rydberg      Total
 -----------------------------------------------------------------------
      P    1    0.79301      9.99844     4.17810    0.03045    14.20699
      P    2    0.81016      9.99854     4.15772    0.03359    14.18984
      C    3   -1.03750      1.99945     5.00595    0.03210     7.03750
      H    4    0.23568      0.00000     0.76143    0.00289     0.76432
      H    5    0.23803      0.00000     0.75926    0.00271     0.76197
      C    6   -0.27116      1.99946     4.24675    0.02495     6.27116
      C    7   -0.60561      1.99937     4.59366    0.01257     6.60561
      H    8    0.20417      0.00000     0.79371    0.00212     0.79583
      H    9    0.19856      0.00000     0.79999    0.00145     0.80144
      H   10    0.21564      0.00000     0.78288    0.00148     0.78436
      C   11   -0.60293      1.99937     4.59127    0.01229     6.60293
      H   12    0.19943      0.00000     0.79909    0.00148     0.80057
      H   13    0.20042      0.00000     0.79797    0.00161     0.79958
      H   14    0.19513      0.00000     0.80248    0.00239     0.80487
      C   15   -0.59987      1.99937     4.58811    0.01240     6.59987
      H   16    0.21221      0.00000     0.78637    0.00143     0.78779
      H   17    0.20387      0.00000     0.79481    0.00132     0.79613
      H   18    0.19858      0.00000     0.79937    0.00205     0.80142
      C   19   -0.27632      1.99946     4.25190    0.02496     6.27632
      C   20   -0.60203      1.99937     4.59047    0.01219     6.60203
      H   21    0.19803      0.00000     0.80033    0.00164     0.80197
      H   22    0.20308      0.00000     0.79552    0.00139     0.79692
      H   23    0.19479      0.00000     0.80286    0.00235     0.80521
      C   24   -0.60043      1.99937     4.58902    0.01204     6.60043
      H   25    0.20092      0.00000     0.79698    0.00210     0.79908
      H   26    0.19913      0.00000     0.79942    0.00145     0.80087
      H   27    0.21329      0.00000     0.78514    0.00157     0.78671
      C   28   -0.60241      1.99937     4.59061    0.01243     6.60241
      H   29    0.21694      0.00000     0.78165    0.00141     0.78306
      H   30    0.19654      0.00000     0.80197    0.00149     0.80346
      H   31    0.20203      0.00000     0.79585    0.00212     0.79797
      C   32   -0.48257      1.99937     4.45842    0.02478     6.48257
      H   33    0.20976      0.00000     0.78750    0.00274     0.79024
      C   34   -0.39182      1.99938     4.37744    0.01500     6.39182
      H   35    0.21214      0.00000     0.78583    0.00204     0.78786
      H   36    0.18518      0.00000     0.81250    0.00232     0.81482
      C   37   -0.38093      1.99943     4.36796    0.01354     6.38093
      H   38    0.18826      0.00000     0.80994    0.00181     0.81174
      H   39    0.20142      0.00000     0.79720    0.00138     0.79858
      C   40   -0.38620      1.99943     4.37337    0.01340     6.38620
      H   41    0.18636      0.00000     0.81181    0.00183     0.81364
      H   42    0.20149      0.00000     0.79717    0.00134     0.79851
      C   43   -0.38338      1.99943     4.37034    0.01360     6.38338
      H   44    0.19979      0.00000     0.79875    0.00145     0.80021
      H   45    0.18634      0.00000     0.81182    0.00184     0.81366
      C   46   -0.39265      1.99938     4.37915    0.01412     6.39265
      H   47    0.19074      0.00000     0.80713    0.00213     0.80926
      H   48    0.19252      0.00000     0.80502    0.00245     0.80748
      C   49   -0.47812      1.99937     4.45322    0.02553     6.47812
      H   50    0.20546      0.00000     0.79129    0.00324     0.79454
      C   51   -0.39262      1.99937     4.37788    0.01536     6.39262
      H   52    0.18811      0.00000     0.80961    0.00228     0.81189
      H   53    0.21254      0.00000     0.78548    0.00199     0.78746
      C   54   -0.38147      1.99943     4.36843    0.01362     6.38147
      H   55    0.18668      0.00000     0.81152    0.00179     0.81332
      H   56    0.20179      0.00000     0.79685    0.00136     0.79821
      C   57   -0.38635      1.99942     4.37360    0.01332     6.38635
      H   58    0.18637      0.00000     0.81179    0.00184     0.81363
      H   59    0.20122      0.00000     0.79745    0.00134     0.79878
      C   60   -0.38405      1.99943     4.37110    0.01352     6.38405
      H   61    0.18539      0.00000     0.81278    0.00183     0.81461
      H   62    0.19903      0.00000     0.79948    0.00149     0.80097
      C   63   -0.39535      1.99938     4.38149    0.01448     6.39535
      H   64    0.19787      0.00000     0.80008    0.00205     0.80213
      H   65    0.18568      0.00000     0.81188    0.00243     0.81432
 =======================================================================
   * Total *    0.00000     61.98435   135.52594    0.48971   198.00000

 Normal termination of Gaussian 16 at Thu Jan 23 21:48:05 2025.
