 Gaussian 16, Revision B.01,
 Gaussian 16:  ES64L-G16RevB.01 20-Dec-2017

 --------------------------------------------
 # nmr=giao b3lyp/def2TZVP pop=nbo scfcyc=200
 --------------------------------------------

 --------------
 MB-59 SPE NoRh
 --------------
 Symbolic Z-matrix:
 Charge =  0 Multiplicity = 1

                         Standard orientation:
 ---------------------------------------------------------------------
 Center     Atomic      Atomic             Coordinates (Angstroms)
 Number     Number       Type             X           Y           Z
 ---------------------------------------------------------------------
      1         15           0       -1.202630    0.036611   -0.573887
      2          6           0       -1.430143    1.836592   -0.272510
      3          6           0       -0.427962    2.612890    0.314760
      4          6           0       -0.591557    3.987503    0.446633
      5          6           0       -1.749428    4.602946   -0.017024
      6          6           0       -2.746594    3.839506   -0.615454
      7          6           0       -2.588976    2.464105   -0.748141
      8          1           0       -3.379096    1.883194   -1.205518
      9          1           0       -3.650161    4.311625   -0.977184
     10          1           0       -1.875282    5.672723    0.088400
     11          1           0        0.189323    4.576735    0.910967
     12          1           0        0.489490    2.160106    0.667640
     13          6           0       -2.812902   -0.758311   -0.169629
     14          6           0       -3.208753   -1.894574   -0.879905
     15          6           0       -4.379608   -2.562754   -0.538096
     16          6           0       -5.162533   -2.101151    0.514525
     17          6           0       -4.771655   -0.972052    1.228920
     18          6           0       -3.600937   -0.301074    0.892781
     19          1           0       -3.310908    0.577755    1.453448
     20          1           0       -5.378113   -0.610726    2.049960
     21          1           0       -6.076089   -2.618915    0.778844
     22          1           0       -4.681726   -3.440360   -1.094722
     23          1           0       -2.597347   -2.256556   -1.697327
     24          6           0        0.007054   -0.629603    0.691674
     25         15           0        1.390977   -1.044504   -0.505194
     26          6           0        2.696540    0.215341   -0.153364
     27          6           0        3.012498    0.603448    1.154058
     28          6           0        4.011509    1.541330    1.389947
     29          6           0        4.707237    2.105391    0.325781
     30          6           0        4.395985    1.732887   -0.977233
     31          6           0        3.394981    0.797109   -1.215266
     32          1           0        3.148307    0.530835   -2.232997
     33          1           0        4.928395    2.173944   -1.810792
     34          1           0        5.484978    2.835326    0.511466
     35          1           0        4.245867    1.830061    2.407585
     36          1           0        2.486626    0.179389    2.000552
     37          1           0        0.261522    0.045163    1.506643
     38          1           0       -0.420674   -1.537354    1.115048
     39          6           0        2.101119   -2.742837    0.004305
     40          6           0        2.504938   -2.770911    1.484275
     41          1           0        1.668030   -2.544274    2.148555
     42          1           0        2.853706   -3.775742    1.738078
     43          1           0        3.318692   -2.080232    1.701488
     44          6           0        1.018245   -3.800569   -0.259138
     45          1           0        0.142063   -3.664869    0.378514
     46          1           0        0.684145   -3.798532   -1.297444
     47          1           0        1.424431   -4.790973   -0.040334
     48          6           0        3.332461   -3.013015   -0.874756
     49          1           0        4.122453   -2.279993   -0.705817
     50          1           0        3.738175   -3.998597   -0.632596
     51          1           0        3.088886   -3.014518   -1.939099
 ---------------------------------------------------------------------

 SCF Done:  E(RB3LYP) =  -1575.17513499     A.U. after   14 cycles

      1  P    Isotropic =   238.2041   Anisotropy =    81.3316

      2  C    Isotropic =    32.6880   Anisotropy =   199.0147

      3  C    Isotropic =    51.1439   Anisotropy =   184.1588

      4  C    Isotropic =    50.4740   Anisotropy =   182.5678

      5  C    Isotropic =    53.6640   Anisotropy =   179.4142

      6  C    Isotropic =    50.2844   Anisotropy =   183.0744

      7  C    Isotropic =    48.8853   Anisotropy =   183.9752

      8  H    Isotropic =    24.6494   Anisotropy =    11.5625

      9  H    Isotropic =    24.5797   Anisotropy =     5.4215

     10  H    Isotropic =    24.7513   Anisotropy =     4.4476

     11  H    Isotropic =    24.8041   Anisotropy =     7.9528

     12  H    Isotropic =    25.1494   Anisotropy =     8.5137

     13  C    Isotropic =    31.4709   Anisotropy =   209.4660

     14  C    Isotropic =    42.1691   Anisotropy =   180.2469

     15  C    Isotropic =    50.0885   Anisotropy =   182.9736

     16  C    Isotropic =    49.0201   Anisotropy =   187.6721

     17  C    Isotropic =    48.7235   Anisotropy =   184.3449

     18  C    Isotropic =    42.2285   Anisotropy =   187.0026

     19  H    Isotropic =    24.1199   Anisotropy =    11.8203

     20  H    Isotropic =    24.3631   Anisotropy =     6.2020

     21  H    Isotropic =    24.2823   Anisotropy =     4.3647

     22  H    Isotropic =    24.2198   Anisotropy =     5.6277

     23  H    Isotropic =    23.7044   Anisotropy =     8.6666

     24  C    Isotropic =   154.4280   Anisotropy =    24.8034

     25  P    Isotropic =   213.7284   Anisotropy =   121.3878

     26  C    Isotropic =    37.6737   Anisotropy =   205.2827

     27  C    Isotropic =    41.9600   Anisotropy =   188.9653

     28  C    Isotropic =    50.6483   Anisotropy =   182.4420

     29  C    Isotropic =    49.0101   Anisotropy =   188.3141

     30  C    Isotropic =    49.7830   Anisotropy =   183.6353

     31  C    Isotropic =    39.9204   Anisotropy =   182.2383

     32  H    Isotropic =    23.9138   Anisotropy =     8.5343

     33  H    Isotropic =    24.2530   Anisotropy =     5.1570

     34  H    Isotropic =    24.2234   Anisotropy =     4.0695

     35  H    Isotropic =    24.1629   Anisotropy =     6.0482

     36  H    Isotropic =    23.7133   Anisotropy =    10.8777

     37  H    Isotropic =    29.4000   Anisotropy =     5.3723

     38  H    Isotropic =    30.2796   Anisotropy =     4.8688

     39  C    Isotropic =   142.7343   Anisotropy =    14.1293

     40  C    Isotropic =   157.5287   Anisotropy =    35.9415

     41  H    Isotropic =    30.7785   Anisotropy =     5.6905

     42  H    Isotropic =    31.2093   Anisotropy =    10.1056

     43  H    Isotropic =    30.6593   Anisotropy =     7.3943

     44  C    Isotropic =   154.5749   Anisotropy =    43.1807

     45  H    Isotropic =    30.8555   Anisotropy =     7.2362

     46  H    Isotropic =    30.5403   Anisotropy =     8.3555

     47  H    Isotropic =    31.0892   Anisotropy =     9.3259

     48  C    Isotropic =   156.1628   Anisotropy =    41.3194

     49  H    Isotropic =    31.5528   Anisotropy =     6.2617

     50  H    Isotropic =    31.4075   Anisotropy =    10.0535

     51  H    Isotropic =    30.7859   Anisotropy =     8.6815

 The electronic state is 1-A.
 Alpha  occ. eigenvalues --  -77.04671 -77.03972 -10.19031 -10.18435 -10.18317
 Alpha  occ. eigenvalues --  -10.18309 -10.18242 -10.18240 -10.18223 -10.18104
 Alpha  occ. eigenvalues --  -10.18103 -10.18075 -10.18071 -10.18007 -10.17951
 Alpha  occ. eigenvalues --  -10.17931 -10.17866 -10.17364 -10.17347 -10.17307
 Alpha  occ. eigenvalues --  -10.17290 -10.17080 -10.16346 -10.16043 -10.16009
 Alpha  occ. eigenvalues --   -6.53243  -6.52543  -4.69398  -4.69363  -4.68875
 Alpha  occ. eigenvalues --   -4.68712  -4.68632  -4.68168  -0.86364  -0.86262
 Alpha  occ. eigenvalues --   -0.85506  -0.81492  -0.77266  -0.75830  -0.75430
 Alpha  occ. eigenvalues --   -0.75289  -0.74731  -0.74395  -0.72454  -0.69001
 Alpha  occ. eigenvalues --   -0.68825  -0.63700  -0.61925  -0.61119  -0.61044
 Alpha  occ. eigenvalues --   -0.60458  -0.59934  -0.58050  -0.55575  -0.53603
 Alpha  occ. eigenvalues --   -0.52152  -0.50584  -0.50082  -0.46688  -0.46027
 Alpha  occ. eigenvalues --   -0.45925  -0.45844  -0.45348  -0.45100  -0.44646
 Alpha  occ. eigenvalues --   -0.44493  -0.44023  -0.43434  -0.42857  -0.42743
 Alpha  occ. eigenvalues --   -0.42205  -0.41206  -0.39474  -0.39281  -0.38955
 Alpha  occ. eigenvalues --   -0.38516  -0.37788  -0.37458  -0.37176  -0.37042
 Alpha  occ. eigenvalues --   -0.35562  -0.35320  -0.35145  -0.34651  -0.33935
 Alpha  occ. eigenvalues --   -0.33784  -0.32481  -0.31783  -0.30282  -0.27076
 Alpha  occ. eigenvalues --   -0.26603  -0.26402  -0.26320  -0.26009  -0.25519
 Alpha  occ. eigenvalues --   -0.21940  -0.18621
 Alpha virt. eigenvalues --   -0.03491  -0.03186  -0.02224  -0.02023  -0.01837
 Alpha virt. eigenvalues --   -0.00952   0.02288   0.02958   0.04253   0.04325
 Alpha virt. eigenvalues --    0.04889   0.05540   0.06275   0.06954   0.07245

 Mulliken charges:
               1
     1  P    0.178801
     2  C    0.026970
     3  C   -0.135636
     4  C   -0.167904
     5  C   -0.096563
     6  C   -0.119886
     7  C   -0.173861
     8  H    0.123814
     9  H    0.107300
    10  H    0.105281
    11  H    0.103874
    12  H    0.162555
    13  C    0.020086
    14  C   -0.178014
    15  C   -0.099453
    16  C   -0.101554
    17  C   -0.108152
    18  C   -0.169566
    19  H    0.133335
    20  H    0.108911
    21  H    0.111292
    22  H    0.110152
    23  H    0.117643
    24  C   -0.395404
    25  P    0.121315
    26  C    0.057681
    27  C   -0.222801
    28  C   -0.119013
    29  C   -0.094691
    30  C   -0.108688
    31  C   -0.146678
    32  H    0.110414
    33  H    0.110917
    34  H    0.111574
    35  H    0.108661
    36  H    0.138989
    37  H    0.127814
    38  H    0.134844
    39  C    0.084532
    40  C   -0.374482
    41  H    0.109384
    42  H    0.100923
    43  H    0.126700
    44  C   -0.359647
    45  H    0.109528
    46  H    0.124197
    47  H    0.107658
    48  C   -0.375830
    49  H    0.129016
    50  H    0.106015
    51  H    0.117643
 Sum of Mulliken charges =  -0.00000

 Dipole moment (field-independent basis, Debye):
    X=              0.3131    Y=             -0.3438    Z=              1.9316  Tot=              1.9868
 Quadrupole moment (field-independent basis, Debye-Ang):
   XX=           -153.2091   YY=           -156.7751   ZZ=           -165.9888
   XY=              6.1756   XZ=             -0.3451   YZ=              2.2239

 Summary of Natural Population Analysis:

                                       Natural Population
                Natural  -----------------------------------------------
    Atom  No    Charge         Core      Valence    Rydberg      Total
 -----------------------------------------------------------------------
      P    1    0.84069      9.99815     4.12767    0.03349    14.15931
      C    2   -0.32270      1.99900     4.29231    0.03139     6.32270
      C    3   -0.21761      1.99908     4.19836    0.02017     6.21761
      C    4   -0.19471      1.99919     4.17680    0.01873     6.19471
      C    5   -0.21726      1.99919     4.19847    0.01961     6.21726
      C    6   -0.19677      1.99919     4.17890    0.01868     6.19677
      C    7   -0.20854      1.99909     4.18966    0.01978     6.20854
      H    8    0.21172      0.00000     0.78627    0.00200     0.78828
      H    9    0.20755      0.00000     0.79118    0.00127     0.79245
      H   10    0.20681      0.00000     0.79201    0.00118     0.79319
      H   11    0.20750      0.00000     0.79122    0.00128     0.79250
      H   12    0.20910      0.00000     0.78871    0.00219     0.79090
      C   13   -0.32833      1.99899     4.29768    0.03166     6.32833
      C   14   -0.19628      1.99910     4.17633    0.02085     6.19628
      C   15   -0.20569      1.99918     4.18686    0.01964     6.20569
      C   16   -0.19972      1.99919     4.18134    0.01919     6.19972
      C   17   -0.20466      1.99919     4.18627    0.01920     6.20466
      C   18   -0.19488      1.99908     4.17566    0.02014     6.19488
      H   19    0.21365      0.00000     0.78416    0.00219     0.78635
      H   20    0.20777      0.00000     0.79081    0.00142     0.79223
      H   21    0.20843      0.00000     0.79037    0.00120     0.79157
      H   22    0.20941      0.00000     0.78929    0.00130     0.79059
      H   23    0.21729      0.00000     0.78109    0.00162     0.78271
      C   24   -1.01494      1.99944     4.98258    0.03292     7.01494
      P   25    0.79674      9.99829     4.17162    0.03335    14.20326
      C   26   -0.33714      1.99900     4.30481    0.03332     6.33714
      C   27   -0.20921      1.99908     4.18976    0.02036     6.20921
      C   28   -0.20702      1.99918     4.18865    0.01919     6.20702
      C   29   -0.19929      1.99919     4.18094    0.01916     6.19929
      C   30   -0.20368      1.99918     4.18501    0.01948     6.20368
      C   31   -0.18882      1.99911     4.16905    0.02066     6.18882
      H   32    0.21856      0.00000     0.77975    0.00169     0.78144
      H   33    0.21020      0.00000     0.78853    0.00127     0.78980
      H   34    0.20900      0.00000     0.78982    0.00118     0.79100
      H   35    0.20782      0.00000     0.79079    0.00139     0.79218
      H   36    0.20441      0.00000     0.79290    0.00269     0.79559
      H   37    0.23952      0.00000     0.75792    0.00257     0.76048
      H   38    0.25310      0.00000     0.74498    0.00191     0.74690
      C   39   -0.26821      1.99947     4.24324    0.02549     6.26821
      C   40   -0.60564      1.99937     4.59419    0.01209     6.60564
      H   41    0.19877      0.00000     0.79980    0.00143     0.80123
      H   42    0.19766      0.00000     0.80005    0.00229     0.80234
      H   43    0.20891      0.00000     0.78979    0.00131     0.79109
      C   44   -0.60308      1.99937     4.59166    0.01204     6.60308
      H   45    0.20091      0.00000     0.79767    0.00142     0.79909
      H   46    0.21345      0.00000     0.78515    0.00140     0.78655
      H   47    0.20443      0.00000     0.79356    0.00201     0.79557
      C   48   -0.60475      1.99937     4.59314    0.01225     6.60475
      H   49    0.21140      0.00000     0.78738    0.00122     0.78860
      H   50    0.20272      0.00000     0.79533    0.00195     0.79728
      H   51    0.21141      0.00000     0.78711    0.00148     0.78859
 =======================================================================
   * Total *   -0.00000     65.97768   127.42660    0.59572   194.00000

 Normal termination of Gaussian 16 at Thu Jan 23 23:09:36 2025.
