 Gaussian 16, Revision B.01,
 Gaussian 16:  ES64L-G16RevB.01 20-Dec-2017

 --------------------------------------------
 # nmr=giao b3lyp/def2TZVP pop=nbo scfcyc=200
 --------------------------------------------

 --------------
 MB-55 SPE NoRh
 --------------
 Symbolic Z-matrix:
 Charge =  0 Multiplicity = 1

                         Standard orientation:
 ---------------------------------------------------------------------
 Center     Atomic      Atomic             Coordinates (Angstroms)
 Number     Number       Type             X           Y           Z
 ---------------------------------------------------------------------
      1         15           0        1.376122   -0.295783   -0.593568
      2         15           0       -1.244466    0.707345   -0.566377
      3          6           0        0.161249    0.411041    0.652400
      4          1           0        0.491476    1.399464    0.973890
      5          1           0       -0.025781   -0.194012    1.536729
      6          6           0        1.027708   -2.938061   -1.313046
      7          1           0        1.861176   -3.457686   -1.803170
      8          1           0        0.502318   -2.373195   -2.084202
      9          6           0        2.436883   -2.507724    0.715403
     10          1           0        2.767759   -3.493879    0.379885
     11          1           0        3.338321   -1.897344    0.796242
     12          6           0       -1.256879    3.420651   -0.644976
     13          1           0       -0.518855    3.124935   -1.393286
     14          1           0       -0.686370    3.801841    0.210950
     15          6           0       -2.974252    2.370321    0.836886
     16          1           0       -3.592108    1.474735    0.879104
     17          1           0       -3.646424    3.184469    0.562424
     18          6           0        0.076715   -3.968624   -0.711788
     19          1           0       -0.280916   -4.637232   -1.498380
     20          1           0        0.567526   -4.587613    0.040822
     21          1           0       -0.790040   -3.490493   -0.253916
     22          6           0        1.784679   -2.625876    2.094053
     23          1           0        1.549710   -1.645681    2.511700
     24          1           0        0.868043   -3.215414    2.057617
     25          1           0        2.474945   -3.114669    2.785805
     26          6           0       -2.133046    4.537811   -1.205808
     27          1           0       -2.814011    4.946459   -0.459402
     28          1           0       -1.500267    5.358964   -1.549195
     29          1           0       -2.728371    4.186724   -2.050419
     30          6           0       -2.370262    2.643506    2.215611
     31          1           0       -1.748155    1.813369    2.557667
     32          1           0       -1.766202    3.552857    2.229796
     33          1           0       -3.171126    2.775182    2.944527
     34          7           0       -2.010658    2.207562   -0.271238
     35          7           0        1.574638   -1.965158   -0.351604
     36          6           0        3.025410    0.448087   -0.238974
     37          6           0        4.085873    0.082294   -1.079102
     38          6           0        3.262120    1.368843    0.782783
     39          6           0        5.351091    0.625028   -0.898618
     40          1           0        3.928816   -0.645392   -1.866785
     41          6           0        4.531043    1.914064    0.960801
     42          1           0        2.471791    1.663420    1.460687
     43          6           0        5.575565    1.546975    0.121770
     44          1           0        6.162053    0.329157   -1.551692
     45          1           0        4.701990    2.623194    1.761588
     46          1           0        6.560417    1.971581    0.261831
     47          6           0       -2.560514   -0.531040   -0.231736
     48          6           0       -3.639271   -0.582897   -1.123454
     49          6           0       -2.529327   -1.416757    0.846634
     50          6           0       -4.669892   -1.493187   -0.930858
     51          1           0       -3.687739    0.106708   -1.957253
     52          6           0       -3.561362   -2.332963    1.033573
     53          1           0       -1.712466   -1.400558    1.554219
     54          6           0       -4.629844   -2.374200    0.146918
     55          1           0       -5.502032   -1.517071   -1.622521
     56          1           0       -3.528323   -3.011432    1.876908
     57          1           0       -5.431976   -3.085407    0.296055
 ---------------------------------------------------------------------

 SCF Done:  E(RB3LYP) =  -1612.09207277     A.U. after   14 cycles

      1  P    Isotropic =   178.2398   Anisotropy =   117.5796

      2  P    Isotropic =   180.2532   Anisotropy =   129.8804

      3  C    Isotropic =   154.4838   Anisotropy =    35.1751

      4  H    Isotropic =    29.7205   Anisotropy =     6.4715

      5  H    Isotropic =    29.1363   Anisotropy =     5.1990

      6  C    Isotropic =   122.5950   Anisotropy =    63.6823

      7  H    Isotropic =    28.8204   Anisotropy =     8.8444

      8  H    Isotropic =    28.8642   Anisotropy =     3.8445

      9  C    Isotropic =   133.9692   Anisotropy =    50.9188

     10  H    Isotropic =    29.5985   Anisotropy =     7.7252

     11  H    Isotropic =    29.1319   Anisotropy =     6.7260

     12  C    Isotropic =   136.4076   Anisotropy =    48.5474

     13  H    Isotropic =    28.8403   Anisotropy =     5.0802

     14  H    Isotropic =    28.9157   Anisotropy =     5.4300

     15  C    Isotropic =   139.6170   Anisotropy =    43.2198

     16  H    Isotropic =    29.5680   Anisotropy =     8.2920

     17  H    Isotropic =    29.2190   Anisotropy =     7.5956

     18  C    Isotropic =   164.3547   Anisotropy =    26.0461

     19  H    Isotropic =    31.4483   Anisotropy =    10.2928

     20  H    Isotropic =    31.0012   Anisotropy =     5.9762

     21  H    Isotropic =    31.4278   Anisotropy =    11.4432

     22  C    Isotropic =   163.7892   Anisotropy =    29.3988

     23  H    Isotropic =    30.5670   Anisotropy =     4.0111

     24  H    Isotropic =    30.9271   Anisotropy =     5.8924

     25  H    Isotropic =    31.1802   Anisotropy =    11.1401

     26  C    Isotropic =   168.9447   Anisotropy =    27.1827

     27  H    Isotropic =    30.6120   Anisotropy =     7.7005

     28  H    Isotropic =    31.0482   Anisotropy =    10.6347

     29  H    Isotropic =    31.0694   Anisotropy =     8.7501

     30  C    Isotropic =   172.8172   Anisotropy =    17.5231

     31  H    Isotropic =    31.2577   Anisotropy =     6.0480

     32  H    Isotropic =    30.6286   Anisotropy =     7.6507

     33  H    Isotropic =    31.5611   Anisotropy =    11.2253

     34  N    Isotropic =   185.1869   Anisotropy =    38.2592

     35  N    Isotropic =   193.2895   Anisotropy =    22.7500

     36  C    Isotropic =    33.7894   Anisotropy =   198.5395

     37  C    Isotropic =    46.2442   Anisotropy =   187.0046

     38  C    Isotropic =    50.4908   Anisotropy =   182.1395

     39  C    Isotropic =    49.1919   Anisotropy =   183.7633

     40  H    Isotropic =    24.2989   Anisotropy =    10.5739

     41  C    Isotropic =    50.2986   Anisotropy =   181.6865

     42  H    Isotropic =    24.0867   Anisotropy =    10.7300

     43  C    Isotropic =    52.0879   Anisotropy =   181.3292

     44  H    Isotropic =    24.2741   Anisotropy =     5.3551

     45  H    Isotropic =    24.3527   Anisotropy =     6.1929

     46  H    Isotropic =    24.5229   Anisotropy =     4.2101

     47  C    Isotropic =    37.3137   Anisotropy =   204.8152

     48  C    Isotropic =    43.5971   Anisotropy =   188.5544

     49  C    Isotropic =    48.2773   Anisotropy =   190.9651

     50  C    Isotropic =    49.3802   Anisotropy =   184.1053

     51  H    Isotropic =    23.9218   Anisotropy =     9.5878

     52  C    Isotropic =    50.1769   Anisotropy =   183.2945

     53  H    Isotropic =    23.9209   Anisotropy =     8.7499

     54  C    Isotropic =    50.6302   Anisotropy =   184.1691

     55  H    Isotropic =    24.2060   Anisotropy =     5.0046

     56  H    Isotropic =    24.2623   Anisotropy =     6.3815

     57  H    Isotropic =    24.3689   Anisotropy =     4.3000

 The electronic state is 1-A.
 Alpha  occ. eigenvalues --  -77.05297 -77.05255 -14.30641 -14.30579 -10.19696
 Alpha  occ. eigenvalues --  -10.19443 -10.19373 -10.19086 -10.18353 -10.17977
 Alpha  occ. eigenvalues --  -10.17958 -10.17906 -10.17882 -10.17848 -10.17811
 Alpha  occ. eigenvalues --  -10.17606 -10.17562 -10.17537 -10.17489 -10.17405
 Alpha  occ. eigenvalues --  -10.16844 -10.15957 -10.15925 -10.15898 -10.15502
 Alpha  occ. eigenvalues --   -6.53558  -6.53537  -4.69755  -4.69744  -4.69670
 Alpha  occ. eigenvalues --   -4.69645  -4.69213  -4.69167  -0.90384  -0.90240
 Alpha  occ. eigenvalues --   -0.86068  -0.85671  -0.76586  -0.76092  -0.75861
 Alpha  occ. eigenvalues --   -0.75416  -0.75228  -0.74871  -0.73040  -0.72394
 Alpha  occ. eigenvalues --   -0.70958  -0.63786  -0.63261  -0.62769  -0.61823
 Alpha  occ. eigenvalues --   -0.60923  -0.60421  -0.59309  -0.58705  -0.54640
 Alpha  occ. eigenvalues --   -0.54065  -0.51502  -0.51256  -0.48082  -0.47598
 Alpha  occ. eigenvalues --   -0.47033  -0.46398  -0.45864  -0.45490  -0.45253
 Alpha  occ. eigenvalues --   -0.45028  -0.43981  -0.43819  -0.42724  -0.42438
 Alpha  occ. eigenvalues --   -0.42086  -0.41926  -0.41697  -0.41309  -0.40641
 Alpha  occ. eigenvalues --   -0.39427  -0.38729  -0.38464  -0.38271  -0.37759
 Alpha  occ. eigenvalues --   -0.37550  -0.36990  -0.36739  -0.36466  -0.35859
 Alpha  occ. eigenvalues --   -0.35106  -0.34862  -0.34478  -0.34316  -0.33677
 Alpha  occ. eigenvalues --   -0.33277  -0.32611  -0.32000  -0.27093  -0.26711
 Alpha  occ. eigenvalues --   -0.26205  -0.25859  -0.24339  -0.22174  -0.20407
 Alpha  occ. eigenvalues --   -0.18030
 Alpha virt. eigenvalues --   -0.03214  -0.02416  -0.01858  -0.01526   0.02223
 Alpha virt. eigenvalues --    0.02692   0.03608   0.04115   0.04212   0.05056
 Alpha virt. eigenvalues --    0.06272   0.06498   0.06859   0.07003   0.07416

 Mulliken charges:
               1
     1  P    0.206878
     2  P    0.183829
     3  C   -0.388178
     4  H    0.119790
     5  H    0.114012
     6  C   -0.124790
     7  H    0.085087
     8  H    0.115207
     9  C   -0.129695
    10  H    0.093170
    11  H    0.120929
    12  C   -0.133962
    13  H    0.116794
    14  H    0.084380
    15  C   -0.131871
    16  H    0.131264
    17  H    0.096691
    18  C   -0.328879
    19  H    0.102951
    20  H    0.102131
    21  H    0.133627
    22  C   -0.330910
    23  H    0.102877
    24  H    0.108570
    25  H    0.103325
    26  C   -0.333335
    27  H    0.106171
    28  H    0.107145
    29  H    0.111215
    30  C   -0.347517
    31  H    0.107694
    32  H    0.106803
    33  H    0.107515
    34  N   -0.184422
    35  N   -0.193225
    36  C    0.064019
    37  C   -0.172190
    38  C   -0.171273
    39  C   -0.101244
    40  H    0.105667
    41  C   -0.126104
    42  H    0.105666
    43  C   -0.107040
    44  H    0.107586
    45  H    0.104696
    46  H    0.107640
    47  C    0.069628
    48  C   -0.161710
    49  C   -0.192152
    50  C   -0.103417
    51  H    0.107745
    52  C   -0.110841
    53  H    0.110184
    54  C   -0.103697
    55  H    0.109465
    56  H    0.106435
    57  H    0.109666
 Sum of Mulliken charges =  -0.00000

 Dipole moment (field-independent basis, Debye):
    X=             -0.2892    Y=             -0.3335    Z=              1.8753  Tot=              1.9265
 Quadrupole moment (field-independent basis, Debye-Ang):
   XX=           -159.1060   YY=           -161.1432   ZZ=           -170.4780
   XY=              1.2560   XZ=              0.3921   YZ=              2.4536

 Summary of Natural Population Analysis:

                                       Natural Population
                Natural  -----------------------------------------------
    Atom  No    Charge         Core      Valence    Rydberg      Total
 -----------------------------------------------------------------------
      P    1    1.02684      9.99804     3.93007    0.04505    13.97316
      P    2    1.02456      9.99814     3.93183    0.04548    13.97544
      C    3   -1.08137      1.99944     5.04486    0.03707     7.08137
      H    4    0.24421      0.00000     0.75397    0.00182     0.75579
      H    5    0.23247      0.00000     0.76492    0.00261     0.76753
      C    6   -0.19258      1.99938     4.17505    0.01815     6.19258
      H    7    0.16277      0.00000     0.83389    0.00334     0.83723
      H    8    0.20996      0.00000     0.78815    0.00189     0.79004
      C    9   -0.21110      1.99938     4.19383    0.01790     6.21110
      H   10    0.18059      0.00000     0.81704    0.00237     0.81941
      H   11    0.19288      0.00000     0.80367    0.00345     0.80712
      C   12   -0.20721      1.99937     4.19025    0.01759     6.20721
      H   13    0.20816      0.00000     0.79003    0.00181     0.79184
      H   14    0.15982      0.00000     0.83669    0.00348     0.84018
      C   15   -0.21236      1.99937     4.19606    0.01693     6.21236
      H   16    0.20119      0.00000     0.79634    0.00248     0.79881
      H   17    0.18042      0.00000     0.81722    0.00235     0.81958
      C   18   -0.60424      1.99946     4.59378    0.01101     6.60424
      H   19    0.20616      0.00000     0.79280    0.00104     0.79384
      H   20    0.19288      0.00000     0.80577    0.00135     0.80712
      H   21    0.20724      0.00000     0.79089    0.00187     0.79276
      C   22   -0.59976      1.99946     4.59362    0.00669     6.59976
      H   23    0.19645      0.00000     0.80182    0.00173     0.80355
      H   24    0.19921      0.00000     0.79928    0.00151     0.80079
      H   25    0.20302      0.00000     0.79562    0.00136     0.79698
      C   26   -0.60070      1.99946     4.59046    0.01078     6.60070
      H   27    0.19558      0.00000     0.80317    0.00125     0.80442
      H   28    0.20761      0.00000     0.79146    0.00093     0.79239
      H   29    0.20675      0.00000     0.79192    0.00133     0.79325
      C   30   -0.61200      1.99946     4.60564    0.00691     6.61200
      H   31    0.19851      0.00000     0.79988    0.00160     0.80149
      H   32    0.19524      0.00000     0.80335    0.00141     0.80476
      H   33    0.20677      0.00000     0.79199    0.00123     0.79323
      N   34   -0.72455      1.99955     5.69112    0.03388     7.72455
      N   35   -0.73832      1.99952     5.70585    0.03295     7.73832
      C   36   -0.34445      1.99900     4.31116    0.03429     6.34445
      C   37   -0.19982      1.99909     4.18031    0.02042     6.19982
      C   38   -0.21262      1.99908     4.19349    0.02005     6.21262
      C   39   -0.19957      1.99919     4.18158    0.01881     6.19957
      H   40    0.21092      0.00000     0.78719    0.00189     0.78908
      C   41   -0.19987      1.99919     4.18156    0.01913     6.19987
      H   42    0.19992      0.00000     0.79761    0.00246     0.80008
      C   43   -0.21231      1.99919     4.19354    0.01958     6.21231
      H   44    0.20795      0.00000     0.79077    0.00128     0.79205
      H   45    0.20623      0.00000     0.79247    0.00130     0.79377
      H   46    0.20734      0.00000     0.79149    0.00117     0.79266
      C   47   -0.35204      1.99900     4.31862    0.03442     6.35204
      C   48   -0.19062      1.99909     4.17121    0.02032     6.19062
      C   49   -0.20974      1.99908     4.19022    0.02044     6.20974
      C   50   -0.20154      1.99918     4.18363    0.01873     6.20154
      H   51    0.21544      0.00000     0.78260    0.00196     0.78456
      C   52   -0.20301      1.99918     4.18491    0.01892     6.20301
      H   53    0.20389      0.00000     0.79310    0.00301     0.79611
      C   54   -0.20631      1.99919     4.18770    0.01943     6.20631
      H   55    0.20923      0.00000     0.78950    0.00128     0.79077
      H   56    0.20763      0.00000     0.79104    0.00133     0.79237
      H   57    0.20827      0.00000     0.79055    0.00117     0.79173
 =======================================================================
   * Total *   -0.00000     65.97949   135.39654    0.62398   202.00000

 Normal termination of Gaussian 16 at Thu Jan 23 22:53:46 2025.
