 Gaussian 16, Revision B.01,
 Gaussian 16:  ES64L-G16RevB.01 20-Dec-2017

 --------------------------------------------
 # nmr=giao b3lyp/def2TZVP pop=nbo scfcyc=200
 --------------------------------------------

 --------------
 MB-51 SPE NoRh
 --------------
 Symbolic Z-matrix:
 Charge =  0 Multiplicity = 1

                         Standard orientation:
 ---------------------------------------------------------------------
 Center     Atomic      Atomic             Coordinates (Angstroms)
 Number     Number       Type             X           Y           Z
 ---------------------------------------------------------------------
      1         15           0       -1.169396    0.252616   -0.625937
      2         15           0        1.552354   -0.318832   -0.556542
      3          6           0        0.248472    0.376929    0.591980
      4          6           0       -2.300786    1.672759   -0.313017
      5          6           0       -3.686988    1.498108   -0.267216
      6          6           0       -4.524740    2.597261   -0.101672
      7          6           0       -3.990790    3.874533    0.014792
      8          6           0       -2.610964    4.056595   -0.042253
      9          6           0       -1.771050    2.964393   -0.214579
     10          6           0       -2.093576   -1.262027   -0.147150
     11          6           0       -2.298094   -2.270651   -1.090776
     12          6           0       -2.984001   -3.430632   -0.740930
     13          6           0       -3.465225   -3.590047    0.552741
     14          6           0       -3.263109   -2.588309    1.500928
     15          6           0       -2.581828   -1.428955    1.154715
     16          6           0        3.151030    0.500400   -0.157983
     17          6           0        4.207112    0.400136   -1.071068
     18          6           0        5.437872    0.984112   -0.792904
     19          6           0        5.624694    1.685710    0.392584
     20          6           0        4.579415    1.795108    1.304763
     21          6           0        3.350573    1.203779    1.033827
     22          6           0        1.734945   -2.119339   -0.020679
     23          1           0        0.457867    1.429445    0.777164
     24          1           0        0.103827   -0.131807    1.544234
     25          1           0        0.703463   -2.483936   -0.047217
     26          1           0       -4.117835    0.508585   -0.350048
     27          1           0       -5.596204    2.450648   -0.061738
     28          1           0       -4.644558    4.727228    0.147821
     29          1           0       -2.189026    5.049954    0.042557
     30          1           0       -0.701333    3.127786   -0.277238
     31          1           0       -1.913841   -2.151451   -2.096535
     32          1           0       -3.139228   -4.207693   -1.478413
     33          1           0       -3.998022   -4.492626    0.825958
     34          1           0       -3.640062   -2.711038    2.508492
     35          1           0       -2.442059   -0.653188    1.897887
     36          1           0        4.076994   -0.137937   -2.002340
     37          1           0        6.247727    0.895613   -1.506135
     38          1           0        6.581128    2.145944    0.606449
     39          1           0        4.720984    2.336640    2.230843
     40          1           0        2.555637    1.290639    1.763844
     41          6           0        2.281393   -2.265031    1.401804
     42          1           0        2.258057   -3.318195    1.691449
     43          1           0        3.316612   -1.925316    1.468165
     44          1           0        1.696185   -1.713536    2.138778
     45          6           0        2.557871   -2.923934   -1.029750
     46          1           0        2.583119   -3.972309   -0.727233
     47          1           0        2.130912   -2.879287   -2.032954
     48          1           0        3.591911   -2.576325   -1.075536
 ---------------------------------------------------------------------

 SCF Done:  E(RB3LYP) =  -1535.85125023     A.U. after   14 cycles

      1  P    Isotropic =   245.4572   Anisotropy =    93.1130

      2  P    Isotropic =   229.2435   Anisotropy =    99.4623

      3  C    Isotropic =   154.1694   Anisotropy =    23.1229

      4  C    Isotropic =    29.2444   Anisotropy =   199.2628

      5  C    Isotropic =    50.6150   Anisotropy =   182.6630

      6  C    Isotropic =    49.9489   Anisotropy =   183.0351

      7  C    Isotropic =    53.4058   Anisotropy =   179.4310

      8  C    Isotropic =    50.1074   Anisotropy =   182.7932

      9  C    Isotropic =    50.2883   Anisotropy =   183.4059

     10  C    Isotropic =    35.6755   Anisotropy =   206.6653

     11  C    Isotropic =    39.2373   Anisotropy =   182.7092

     12  C    Isotropic =    49.9988   Anisotropy =   184.1743

     13  C    Isotropic =    47.8658   Anisotropy =   190.2955

     14  C    Isotropic =    48.1174   Anisotropy =   186.3880

     15  C    Isotropic =    39.6868   Anisotropy =   188.5472

     16  C    Isotropic =    35.8900   Anisotropy =   201.6830

     17  C    Isotropic =    45.1571   Anisotropy =   182.2398

     18  C    Isotropic =    50.4030   Anisotropy =   182.6735

     19  C    Isotropic =    51.3851   Anisotropy =   184.8070

     20  C    Isotropic =    50.2029   Anisotropy =   183.0851

     21  C    Isotropic =    46.0368   Anisotropy =   182.9574

     22  C    Isotropic =   149.4173   Anisotropy =    10.4490

     23  H    Isotropic =    29.7032   Anisotropy =     7.2025

     24  H    Isotropic =    29.2826   Anisotropy =     3.6195

     25  H    Isotropic =    30.8406   Anisotropy =    11.9945

     26  H    Isotropic =    25.0817   Anisotropy =    13.1755

     27  H    Isotropic =    24.6020   Anisotropy =     6.4009

     28  H    Isotropic =    24.6260   Anisotropy =     4.1574

     29  H    Isotropic =    24.3723   Anisotropy =     6.0942

     30  H    Isotropic =    24.2697   Anisotropy =    10.8692

     31  H    Isotropic =    23.6076   Anisotropy =     7.9009

     32  H    Isotropic =    24.1564   Anisotropy =     5.1793

     33  H    Isotropic =    24.1621   Anisotropy =     4.2864

     34  H    Isotropic =    24.1517   Anisotropy =     5.7660

     35  H    Isotropic =    23.8265   Anisotropy =    10.3097

     36  H    Isotropic =    24.2317   Anisotropy =    10.1020

     37  H    Isotropic =    24.3039   Anisotropy =     5.5277

     38  H    Isotropic =    24.4212   Anisotropy =     4.3855

     39  H    Isotropic =    24.3418   Anisotropy =     6.2522

     40  H    Isotropic =    24.1737   Anisotropy =    11.6688

     41  C    Isotropic =   166.0180   Anisotropy =    25.5833

     42  H    Isotropic =    31.3717   Anisotropy =    10.5536

     43  H    Isotropic =    31.8694   Anisotropy =     5.6913

     44  H    Isotropic =    31.0020   Anisotropy =     6.1058

     45  C    Isotropic =   162.3719   Anisotropy =    33.6004

     46  H    Isotropic =    31.1669   Anisotropy =    10.3481

     47  H    Isotropic =    30.4569   Anisotropy =     8.5782

     48  H    Isotropic =    31.2070   Anisotropy =     7.7248

 The electronic state is 1-A.
 Alpha  occ. eigenvalues --  -77.04956 -77.04053 -10.18865 -10.18706 -10.18632
 Alpha  occ. eigenvalues --  -10.18619 -10.18473 -10.18456 -10.18439 -10.18382
 Alpha  occ. eigenvalues --  -10.18213 -10.18108 -10.17775 -10.17770 -10.17713
 Alpha  occ. eigenvalues --  -10.17689 -10.17660 -10.17632 -10.17545 -10.17450
 Alpha  occ. eigenvalues --  -10.17375 -10.17249 -10.16146 -10.15981  -6.53519
 Alpha  occ. eigenvalues --   -6.52634  -4.69673  -4.69640  -4.69153  -4.68814
 Alpha  occ. eigenvalues --   -4.68718  -4.68265  -0.86829  -0.85950  -0.85697
 Alpha  occ. eigenvalues --   -0.79771  -0.77435  -0.75853  -0.75474  -0.75054
 Alpha  occ. eigenvalues --   -0.74968  -0.74650  -0.72580  -0.68655  -0.63929
 Alpha  occ. eigenvalues --   -0.62146  -0.61595  -0.60836  -0.60550  -0.60231
 Alpha  occ. eigenvalues --   -0.59409  -0.56099  -0.54294  -0.52547  -0.50856
 Alpha  occ. eigenvalues --   -0.50159  -0.46517  -0.46312  -0.45807  -0.45743
 Alpha  occ. eigenvalues --   -0.45530  -0.45421  -0.45147  -0.44561  -0.43346
 Alpha  occ. eigenvalues --   -0.42905  -0.42645  -0.42373  -0.41651  -0.40892
 Alpha  occ. eigenvalues --   -0.39799  -0.38752  -0.38615  -0.37769  -0.37465
 Alpha  occ. eigenvalues --   -0.37376  -0.35747  -0.35682  -0.35084  -0.34913
 Alpha  occ. eigenvalues --   -0.34748  -0.34378  -0.32758  -0.31750  -0.30674
 Alpha  occ. eigenvalues --   -0.27433  -0.26893  -0.26598  -0.26361  -0.26043
 Alpha  occ. eigenvalues --   -0.25754  -0.22080  -0.18740
 Alpha virt. eigenvalues --   -0.03919  -0.02716  -0.02475  -0.01928  -0.01670
 Alpha virt. eigenvalues --   -0.01274   0.02115   0.03328   0.03648   0.04677
 Alpha virt. eigenvalues --    0.04984   0.05219   0.06606   0.06888   0.06985

 Mulliken charges:
               1
     1  P    0.177490
     2  P    0.135896
     3  C   -0.389194
     4  C    0.083718
     5  C   -0.170260
     6  C   -0.121989
     7  C   -0.111025
     8  C   -0.114214
     9  C   -0.214794
    10  C   -0.003946
    11  C   -0.139547
    12  C   -0.103073
    13  C   -0.096937
    14  C   -0.099517
    15  C   -0.186652
    16  C    0.092851
    17  C   -0.189889
    18  C   -0.108783
    19  C   -0.105887
    20  C   -0.117395
    21  C   -0.188966
    22  C   -0.061608
    23  H    0.133206
    24  H    0.123605
    25  H    0.099139
    26  H    0.137620
    27  H    0.106301
    28  H    0.106602
    29  H    0.106928
    30  H    0.112774
    31  H    0.118996
    32  H    0.113197
    33  H    0.114192
    34  H    0.111490
    35  H    0.126549
    36  H    0.117609
    37  H    0.108643
    38  H    0.108702
    39  H    0.106079
    40  H    0.116956
    41  C   -0.351155
    42  H    0.105585
    43  H    0.123784
    44  H    0.103752
    45  C   -0.357202
    46  H    0.107560
    47  H    0.119330
    48  H    0.113479
 Sum of Mulliken charges =  -0.00000

 Dipole moment (field-independent basis, Debye):
    X=             -0.2597    Y=             -1.1458    Z=              2.0677  Tot=              2.3782
 Quadrupole moment (field-independent basis, Debye-Ang):
   XX=           -148.5319   YY=           -148.7726   ZZ=           -159.9458
   XY=              6.1289   XZ=             -2.7349   YZ=              4.5419

 Summary of Natural Population Analysis:

                                       Natural Population
                Natural  -----------------------------------------------
    Atom  No    Charge         Core      Valence    Rydberg      Total
 -----------------------------------------------------------------------
      P    1    0.83375      9.99815     4.13439    0.03370    14.16625
      P    2    0.80227      9.99838     4.16490    0.03445    14.19773
      C    3   -1.00646      1.99945     4.97502    0.03199     7.00646
      C    4   -0.31511      1.99899     4.28633    0.02978     6.31511
      C    5   -0.21289      1.99908     4.19369    0.02011     6.21289
      C    6   -0.19555      1.99919     4.17739    0.01897     6.19555
      C    7   -0.21674      1.99919     4.19786    0.01969     6.21674
      C    8   -0.19568      1.99919     4.17751    0.01898     6.19568
      C    9   -0.21269      1.99908     4.19358    0.02002     6.21269
      C   10   -0.33968      1.99901     4.30701    0.03366     6.33968
      C   11   -0.18991      1.99910     4.17001    0.02081     6.18991
      C   12   -0.20692      1.99918     4.18824    0.01950     6.20692
      C   13   -0.19495      1.99919     4.17674    0.01902     6.19495
      C   14   -0.20542      1.99919     4.18712    0.01912     6.20542
      C   15   -0.19465      1.99908     4.17529    0.02028     6.19465
      C   16   -0.32969      1.99901     4.29992    0.03076     6.32969
      C   17   -0.20148      1.99910     4.18127    0.02111     6.20148
      C   18   -0.20205      1.99918     4.18305    0.01982     6.20205
      C   19   -0.20882      1.99919     4.19006    0.01958     6.20882
      C   20   -0.20142      1.99919     4.18284    0.01940     6.20142
      C   21   -0.20964      1.99908     4.18990    0.02066     6.20964
      C   22   -0.46227      1.99944     4.43947    0.02336     6.46227
      H   23    0.25147      0.00000     0.74680    0.00173     0.74853
      H   24    0.23384      0.00000     0.76333    0.00282     0.76616
      H   25    0.21787      0.00000     0.78028    0.00186     0.78213
      H   26    0.21315      0.00000     0.78499    0.00185     0.78685
      H   27    0.20703      0.00000     0.79165    0.00133     0.79297
      H   28    0.20731      0.00000     0.79149    0.00121     0.79269
      H   29    0.20776      0.00000     0.79093    0.00131     0.79224
      H   30    0.20195      0.00000     0.79584    0.00221     0.79805
      H   31    0.22115      0.00000     0.77723    0.00162     0.77885
      H   32    0.21118      0.00000     0.78755    0.00127     0.78882
      H   33    0.20982      0.00000     0.78902    0.00116     0.79018
      H   34    0.20943      0.00000     0.78920    0.00138     0.79057
      H   35    0.21002      0.00000     0.78750    0.00248     0.78998
      H   36    0.21328      0.00000     0.78497    0.00175     0.78672
      H   37    0.20848      0.00000     0.79019    0.00133     0.79152
      H   38    0.20779      0.00000     0.79099    0.00122     0.79221
      H   39    0.20656      0.00000     0.79203    0.00141     0.79344
      H   40    0.20179      0.00000     0.79584    0.00238     0.79821
      C   41   -0.59983      1.99943     4.58848    0.01192     6.59983
      H   42    0.20012      0.00000     0.79810    0.00178     0.79988
      H   43    0.20640      0.00000     0.79204    0.00156     0.79360
      H   44    0.19870      0.00000     0.79973    0.00157     0.80130
      C   45   -0.59651      1.99942     4.58525    0.01183     6.59651
      H   46    0.20333      0.00000     0.79511    0.00156     0.79667
      H   47    0.21211      0.00000     0.78644    0.00145     0.78789
      H   48    0.20179      0.00000     0.79667    0.00153     0.79821
 =======================================================================
   * Total *   -0.00000     63.97849   121.44321    0.57830   186.00000

 Normal termination of Gaussian 16 at Thu Jan 23 22:35:53 2025.
