 Gaussian 16, Revision B.01,
 Gaussian 16:  ES64L-G16RevB.01 20-Dec-2017

 --------------------------------------------
 # nmr=giao b3lyp/def2TZVP pop=nbo scfcyc=200
 --------------------------------------------

 --------------
 MB-53 SPE NoRh
 --------------
 Symbolic Z-matrix:
 Charge =  0 Multiplicity = 1

                         Standard orientation:
 ---------------------------------------------------------------------
 Center     Atomic      Atomic             Coordinates (Angstroms)
 Number     Number       Type             X           Y           Z
 ---------------------------------------------------------------------
      1         15           0       -1.397586   -0.251600   -1.122982
      2         15           0        1.369027   -0.517755   -1.225174
      3          6           0       -0.006439   -0.742644    0.022735
      4          6           0       -2.488639    3.956235    0.924831
      5          6           0       -1.860853    1.331891    2.439278
      6          6           0        4.462164   -3.709893    0.601452
      7          6           0        2.612554   -1.854861    2.242704
      8          1           0       -0.077665   -1.813712    0.213750
      9          1           0        0.061604   -0.223974    0.976177
     10          1           0       -2.970628    4.384403    1.806738
     11          1           0       -1.436659    4.250382    0.946058
     12          1           0       -2.946352    4.416661    0.045674
     13          1           0       -2.345521    1.724257    3.336582
     14          1           0       -1.949666    0.244162    2.477234
     15          1           0       -0.803003    1.597791    2.505412
     16          1           0        5.063496   -3.834796   -0.302657
     17          1           0        5.119329   -3.882785    1.457390
     18          1           0        3.700339   -4.493737    0.608812
     19          1           0        3.218294   -2.065954    3.127453
     20          1           0        2.188681   -0.857123    2.374718
     21          1           0        1.793672   -2.577523    2.231008
     22          6           0       -1.828875    1.504620   -0.730049
     23          1           0       -2.460153    1.846820   -1.556311
     24          1           0       -0.892760    2.060372   -0.839984
     25          6           0        2.640039   -1.827297   -0.920014
     26          1           0        3.348836   -1.744887   -1.750921
     27          1           0        2.114203   -2.773733   -1.080029
     28          6           0        5.053345   -0.672363    0.712637
     29          1           0        5.688354   -0.748023   -0.172628
     30          1           0        4.652261    0.341980    0.753690
     31          1           0        5.693419   -0.811782    1.586475
     32          6           0       -4.524898    1.624311    0.882843
     33          1           0       -5.021880    2.018880   -0.005795
     34          1           0       -4.689370    0.546589    0.910573
     35          1           0       -5.020954    2.059043    1.753794
     36         14           0       -2.691720    2.075761    0.907395
     37         14           0        3.695823   -1.983643    0.695329
     38          6           0        2.172568    1.104458   -0.874209
     39          6           0        2.962934    1.674105   -1.879022
     40          6           0        2.045353    1.775078    0.344107
     41          6           0        3.621983    2.878224   -1.664294
     42          1           0        3.066752    1.180207   -2.836477
     43          6           0        2.696588    2.987297    0.554552
     44          1           0        1.447398    1.361190    1.144903
     45          6           0        3.487044    3.540072   -0.446612
     46          1           0        4.233849    3.303982   -2.448641
     47          1           0        2.589148    3.495519    1.504612
     48          1           0        3.995190    4.480854   -0.279957
     49          6           0       -2.877137   -1.269684   -0.721809
     50          6           0       -3.999682   -1.155052   -1.550816
     51          6           0       -2.919285   -2.157421    0.355936
     52          6           0       -5.140924   -1.906673   -1.301427
     53          1           0       -3.994218   -0.470346   -2.391309
     54          6           0       -4.062951   -2.911937    0.600771
     55          1           0       -2.071366   -2.264791    1.019542
     56          6           0       -5.173929   -2.788965   -0.225861
     57          1           0       -6.003762   -1.804782   -1.947244
     58          1           0       -4.083629   -3.594104    1.441599
     59          1           0       -6.062058   -3.377375   -0.032446
 ---------------------------------------------------------------------

 SCF Done:  E(RB3LYP) =  -2082.89433956     A.U. after   18 cycles

      1  P    Isotropic =   252.5940   Anisotropy =   103.9418

      2  P    Isotropic =   258.7526   Anisotropy =   110.7052

      3  C    Isotropic =   161.7944   Anisotropy =    20.4450

      4  C    Isotropic =   181.7370   Anisotropy =    13.0344

      5  C    Isotropic =   183.0414   Anisotropy =     4.3210

      6  C    Isotropic =   181.7130   Anisotropy =    13.4397

      7  C    Isotropic =   183.0013   Anisotropy =     3.6479

      8  H    Isotropic =    30.2868   Anisotropy =     6.0837

      9  H    Isotropic =    29.0481   Anisotropy =     5.6511

     10  H    Isotropic =    32.1753   Anisotropy =    10.3558

     11  H    Isotropic =    32.1473   Anisotropy =     8.0969

     12  H    Isotropic =    32.1225   Anisotropy =     8.7502

     13  H    Isotropic =    31.9783   Anisotropy =    10.2147

     14  H    Isotropic =    31.5458   Anisotropy =     6.9667

     15  H    Isotropic =    31.6677   Anisotropy =     8.1960

     16  H    Isotropic =    31.9908   Anisotropy =     8.8788

     17  H    Isotropic =    32.0603   Anisotropy =    10.2230

     18  H    Isotropic =    31.9726   Anisotropy =     8.0331

     19  H    Isotropic =    31.9128   Anisotropy =    10.1931

     20  H    Isotropic =    31.5776   Anisotropy =     8.1955

     21  H    Isotropic =    31.7450   Anisotropy =     7.1518

     22  C    Isotropic =   164.4671   Anisotropy =    22.5781

     23  H    Isotropic =    31.0289   Anisotropy =     7.7322

     24  H    Isotropic =    31.4741   Anisotropy =     7.7685

     25  C    Isotropic =   157.1053   Anisotropy =    28.8146

     26  H    Isotropic =    30.9485   Anisotropy =     6.5920

     27  H    Isotropic =    30.9241   Anisotropy =     5.7291

     28  C    Isotropic =   185.0447   Anisotropy =     5.5375

     29  H    Isotropic =    32.6083   Anisotropy =     8.3464

     30  H    Isotropic =    33.0507   Anisotropy =    13.1466

     31  H    Isotropic =    32.5214   Anisotropy =    10.5153

     32  C    Isotropic =   184.2231   Anisotropy =     6.2178

     33  H    Isotropic =    32.5539   Anisotropy =     8.0935

     34  H    Isotropic =    33.1778   Anisotropy =    12.1419

     35  H    Isotropic =    32.5611   Anisotropy =    10.5732

     36  Si   Isotropic =   309.8700   Anisotropy =    14.8378

     37  Si   Isotropic =   311.6214   Anisotropy =    17.5302

     38  C    Isotropic =    34.4031   Anisotropy =   212.8668

     39  C    Isotropic =    43.9935   Anisotropy =   183.6532

     40  C    Isotropic =    46.5460   Anisotropy =   189.5822

     41  C    Isotropic =    49.3031   Anisotropy =   185.1960

     42  H    Isotropic =    24.0387   Anisotropy =     8.7506

     43  C    Isotropic =    50.1256   Anisotropy =   183.9731

     44  H    Isotropic =    23.9028   Anisotropy =     8.1073

     45  C    Isotropic =    50.6369   Anisotropy =   185.1649

     46  H    Isotropic =    24.2679   Anisotropy =     4.5090

     47  H    Isotropic =    24.2944   Anisotropy =     6.5641

     48  H    Isotropic =    24.3943   Anisotropy =     4.1958

     49  C    Isotropic =    30.1856   Anisotropy =   209.2854

     50  C    Isotropic =    47.1753   Anisotropy =   185.4095

     51  C    Isotropic =    49.5304   Anisotropy =   180.6525

     52  C    Isotropic =    49.7277   Anisotropy =   184.3841

     53  H    Isotropic =    24.3513   Anisotropy =     9.9687

     54  C    Isotropic =    50.0118   Anisotropy =   183.1111

     55  H    Isotropic =    24.1481   Anisotropy =    10.8462

     56  C    Isotropic =    53.0681   Anisotropy =   181.5744

     57  H    Isotropic =    24.3869   Anisotropy =     4.9188

     58  H    Isotropic =    24.3829   Anisotropy =     6.3002

     59  H    Isotropic =    24.5690   Anisotropy =     3.9091

 The electronic state is 1-A.
 Alpha  occ. eigenvalues --  -77.04433 -77.04208 -66.09042 -66.09004 -10.18525
 Alpha  occ. eigenvalues --  -10.18172 -10.18109 -10.18083 -10.18082 -10.18036
 Alpha  occ. eigenvalues --  -10.18003 -10.17999 -10.17617 -10.17586 -10.17561
 Alpha  occ. eigenvalues --  -10.17525 -10.17390 -10.15782 -10.15722 -10.14959
 Alpha  occ. eigenvalues --  -10.14894 -10.14519 -10.14378 -10.14374 -10.14197
 Alpha  occ. eigenvalues --   -6.52949  -6.52733  -5.25128  -5.25077  -4.69119
 Alpha  occ. eigenvalues --   -4.69055  -4.68909  -4.68835  -4.68573  -4.68359
 Alpha  occ. eigenvalues --   -3.60951  -3.60904  -3.60901  -3.60887  -3.60855
 Alpha  occ. eigenvalues --   -3.60834  -0.86317  -0.85787  -0.77482  -0.75827
 Alpha  occ. eigenvalues --   -0.75426  -0.74924  -0.73476  -0.72380  -0.71563
 Alpha  occ. eigenvalues --   -0.69506  -0.68404  -0.68084  -0.67828  -0.67668
 Alpha  occ. eigenvalues --   -0.67545  -0.61680  -0.61290  -0.60935  -0.60523
 Alpha  occ. eigenvalues --   -0.55537  -0.54317  -0.51257  -0.50606  -0.46410
 Alpha  occ. eigenvalues --   -0.46194  -0.45967  -0.45519  -0.45367  -0.45074
 Alpha  occ. eigenvalues --   -0.44792  -0.43148  -0.42952  -0.42562  -0.41904
 Alpha  occ. eigenvalues --   -0.41753  -0.41426  -0.41200  -0.41085  -0.40830
 Alpha  occ. eigenvalues --   -0.40491  -0.39999  -0.39727  -0.39146  -0.38779
 Alpha  occ. eigenvalues --   -0.38575  -0.38462  -0.38413  -0.38240  -0.37733
 Alpha  occ. eigenvalues --   -0.37156  -0.36605  -0.35344  -0.34892  -0.33269
 Alpha  occ. eigenvalues --   -0.32927  -0.31681  -0.31541  -0.31184  -0.30298
 Alpha  occ. eigenvalues --   -0.30153  -0.29896  -0.29771  -0.26669  -0.26472
 Alpha  occ. eigenvalues --   -0.26364  -0.25917  -0.21172  -0.17606
 Alpha virt. eigenvalues --   -0.03042  -0.02177  -0.02140  -0.01600   0.00960
 Alpha virt. eigenvalues --    0.02435   0.02914   0.03680   0.03847   0.04691
 Alpha virt. eigenvalues --    0.05268   0.05631   0.05955   0.06171   0.06459

 Mulliken charges:
               1
     1  P    0.159551
     2  P    0.137212
     3  C   -0.383777
     4  C   -0.463768
     5  C   -0.481480
     6  C   -0.462932
     7  C   -0.455360
     8  H    0.120153
     9  H    0.122355
    10  H    0.110655
    11  H    0.117954
    12  H    0.115353
    13  H    0.120239
    14  H    0.128353
    15  H    0.110276
    16  H    0.115469
    17  H    0.111798
    18  H    0.112865
    19  H    0.120894
    20  H    0.114327
    21  H    0.111919
    22  C   -0.392562
    23  H    0.118146
    24  H    0.144618
    25  C   -0.372536
    26  H    0.118030
    27  H    0.122001
    28  C   -0.463710
    29  H    0.112942
    30  H    0.154846
    31  H    0.112022
    32  C   -0.459002
    33  H    0.109890
    34  H    0.154119
    35  H    0.113028
    36  Si   0.443203
    37  Si   0.438307
    38  C    0.033865
    39  C   -0.143880
    40  C   -0.142073
    41  C   -0.120182
    42  H    0.107284
    43  C   -0.149482
    44  H    0.106912
    45  C   -0.087870
    46  H    0.110143
    47  H    0.106584
    48  H    0.110657
    49  C    0.103081
    50  C   -0.183552
    51  C   -0.173921
    52  C   -0.107270
    53  H    0.101353
    54  C   -0.132299
    55  H    0.113190
    56  C   -0.107075
    57  H    0.107262
    58  H    0.104782
    59  H    0.107097
 Sum of Mulliken charges =  -0.00000

 Dipole moment (field-independent basis, Debye):
    X=              0.5473    Y=              0.5244    Z=              1.9122  Tot=              2.0570
 Quadrupole moment (field-independent basis, Debye-Ang):
   XX=           -176.9717   YY=           -181.0795   ZZ=           -187.1607
   XY=              2.9586   XZ=             -1.2516   YZ=             -3.5335

 Summary of Natural Population Analysis:

                                       Natural Population
                Natural  -----------------------------------------------
    Atom  No    Charge         Core      Valence    Rydberg      Total
 -----------------------------------------------------------------------
      P    1    0.84597      9.99838     4.11697    0.03868    14.15403
      P    2    0.83924      9.99840     4.12324    0.03913    14.16076
      C    3   -1.02463      1.99946     4.99390    0.03126     7.02463
      C    4   -1.09224      1.99944     5.07387    0.01893     7.09224
      C    5   -1.09644      1.99943     5.07784    0.01917     7.09644
      C    6   -1.09134      1.99944     5.07302    0.01887     7.09134
      C    7   -1.09362      1.99943     5.07504    0.01915     7.09362
      H    8    0.25029      0.00000     0.74808    0.00163     0.74971
      H    9    0.23125      0.00000     0.76592    0.00282     0.76875
      H   10    0.22479      0.00000     0.77435    0.00085     0.77521
      H   11    0.22854      0.00000     0.77060    0.00087     0.77146
      H   12    0.22859      0.00000     0.77062    0.00079     0.77141
      H   13    0.22985      0.00000     0.76938    0.00077     0.77015
      H   14    0.23117      0.00000     0.76779    0.00105     0.76883
      H   15    0.22245      0.00000     0.77660    0.00095     0.77755
      H   16    0.22855      0.00000     0.77066    0.00079     0.77145
      H   17    0.22526      0.00000     0.77389    0.00085     0.77474
      H   18    0.22692      0.00000     0.77228    0.00080     0.77308
      H   19    0.22914      0.00000     0.77011    0.00075     0.77086
      H   20    0.22701      0.00000     0.77195    0.00104     0.77299
      H   21    0.22695      0.00000     0.77214    0.00091     0.77305
      C   22   -1.16533      1.99934     5.13967    0.02632     7.16533
      H   23    0.24645      0.00000     0.75258    0.00097     0.75355
      H   24    0.25219      0.00000     0.74665    0.00116     0.74781
      C   25   -1.16128      1.99935     5.13627    0.02566     7.16128
      H   26    0.24681      0.00000     0.75212    0.00106     0.75319
      H   27    0.24293      0.00000     0.75593    0.00113     0.75707
      C   28   -1.09524      1.99943     5.07653    0.01929     7.09524
      H   29    0.22930      0.00000     0.76990    0.00080     0.77070
      H   30    0.24015      0.00000     0.75891    0.00094     0.75985
      H   31    0.22630      0.00000     0.77293    0.00077     0.77370
      C   32   -1.09563      1.99943     5.07677    0.01943     7.09563
      H   33    0.22845      0.00000     0.77072    0.00083     0.77155
      H   34    0.24153      0.00000     0.75744    0.00102     0.75847
      H   35    0.22588      0.00000     0.77332    0.00080     0.77412
     Si   36    1.64686      9.99833     2.32851    0.02630    12.35314
     Si   37    1.64142      9.99834     2.33406    0.02618    12.35858
      C   38   -0.33116      1.99900     4.29855    0.03361     6.33116
      C   39   -0.19730      1.99910     4.17766    0.02054     6.19730
      C   40   -0.21581      1.99908     4.19642    0.02032     6.21581
      C   41   -0.19981      1.99919     4.18118    0.01944     6.19981
      H   42    0.21385      0.00000     0.78438    0.00178     0.78615
      C   43   -0.20364      1.99918     4.18528    0.01918     6.20364
      H   44    0.19966      0.00000     0.79774    0.00260     0.80034
      C   45   -0.20799      1.99919     4.18931    0.01948     6.20799
      H   46    0.20951      0.00000     0.78922    0.00128     0.79049
      H   47    0.20756      0.00000     0.79106    0.00138     0.79244
      H   48    0.20903      0.00000     0.78979    0.00118     0.79097
      C   49   -0.32445      1.99901     4.29539    0.03005     6.32445
      C   50   -0.20382      1.99908     4.18416    0.02058     6.20382
      C   51   -0.21881      1.99908     4.19947    0.02026     6.21881
      C   52   -0.19802      1.99918     4.17983    0.01901     6.19802
      H   53    0.20738      0.00000     0.79051    0.00211     0.79262
      C   54   -0.19976      1.99919     4.18117    0.01941     6.19976
      H   55    0.19970      0.00000     0.79785    0.00245     0.80030
      C   56   -0.21677      1.99919     4.19769    0.01989     6.21677
      H   57    0.20815      0.00000     0.79052    0.00133     0.79185
      H   58    0.20622      0.00000     0.79242    0.00136     0.79378
      H   59    0.20776      0.00000     0.79101    0.00123     0.79224
 =======================================================================
   * Total *   -0.00000     81.97766   135.39116    0.63118   218.00000

 Normal termination of Gaussian 16 at Thu Jan 23 22:47:46 2025.
