 Gaussian 16, Revision B.01,
 Gaussian 16:  ES64L-G16RevB.01 20-Dec-2017

 --------------------------------------------
 # nmr=giao b3lyp/def2TZVP pop=nbo scfcyc=200
 --------------------------------------------

 --------------
 MB-52 SPE NoRh
 --------------
 Symbolic Z-matrix:
 Charge =  0 Multiplicity = 1

                         Standard orientation:
 ---------------------------------------------------------------------
 Center     Atomic      Atomic             Coordinates (Angstroms)
 Number     Number       Type             X           Y           Z
 ---------------------------------------------------------------------
      1         15           0        1.628738   -0.344533   -0.614290
      2         15           0       -1.133252   -0.210998   -0.590518
      3          7           0        2.847839   -1.477508   -0.159242
      4          7           0        2.332210    1.191899   -0.248724
      5          6           0       -2.428897   -1.462298   -0.221100
      6          6           0       -2.402631   -2.680412   -0.906023
      7          1           0       -1.664174   -2.850649   -1.679816
      8          6           0       -3.317330   -3.679731   -0.591138
      9          1           0       -3.291513   -4.621350   -1.125236
     10          6           0       -4.263977   -3.466987    0.405651
     11          1           0       -4.978610   -4.243252    0.647621
     12          6           0       -4.292423   -2.255862    1.092122
     13          1           0       -5.026645   -2.090131    1.869624
     14          6           0       -3.377846   -1.255206    0.784392
     15          1           0       -3.411177   -0.317535    1.324969
     16          6           0       -1.846275    1.429326   -0.178126
     17          6           0       -3.095407    1.766801   -0.714211
     18          1           0       -3.660346    1.042998   -1.290499
     19          6           0       -3.636891    3.025462   -0.488889
     20          1           0       -4.608812    3.273155   -0.897916
     21          6           0       -2.935463    3.964059    0.263566
     22          1           0       -3.360191    4.944134    0.439401
     23          6           0       -1.690223    3.638969    0.786788
     24          1           0       -1.137474    4.364716    1.370189
     25          6           0       -1.141269    2.379177    0.565579
     26          1           0       -0.163959    2.159536    0.974487
     27          6           0        0.264314   -0.571701    0.617991
     28          1           0        0.314753    0.036011    1.520482
     29          1           0        0.174785   -1.623326    0.892251
     30          6           0        2.263359    2.316088   -1.074544
     31          1           0        1.782577    2.256061   -2.035219
     32          6           0        2.853339    3.359925   -0.425012
     33          1           0        2.961960    4.360216   -0.809823
     34          6           0        3.308391    2.879507    0.840841
     35          1           0        3.839015    3.445090    1.589784
     36          6           0        2.978961    1.558199    0.930506
     37          1           0        3.183857    0.833552    1.700198
     38          6           0        3.955345   -1.780036   -0.953823
     39          1           0        4.073297   -1.344576   -1.931140
     40          6           0        4.770328   -2.620887   -0.254101
     41          1           0        5.701346   -3.031653   -0.607731
     42          6           0        4.163698   -2.854006    1.015783
     43          1           0        4.545012   -3.480132    1.805589
     44          6           0        2.999116   -2.143891    1.058866
     45          1           0        2.264350   -2.059601    1.839980
 ---------------------------------------------------------------------

 SCF Done:  E(RB3LYP) =  -1604.84705166     A.U. after   18 cycles

      1  P    Isotropic =   169.9246   Anisotropy =   200.0106

      2  P    Isotropic =   251.2889   Anisotropy =    55.4683

      3  N    Isotropic =    59.2716   Anisotropy =   159.4331

      4  N    Isotropic =    57.9988   Anisotropy =   160.0862

      5  C    Isotropic =    33.4056   Anisotropy =   203.4650

      6  C    Isotropic =    42.9860   Anisotropy =   180.6407

      7  H    Isotropic =    23.7973   Anisotropy =     9.0746

      8  C    Isotropic =    49.0669   Anisotropy =   184.6436

      9  H    Isotropic =    24.2190   Anisotropy =     5.5760

     10  C    Isotropic =    48.3865   Anisotropy =   188.9686

     11  H    Isotropic =    24.2905   Anisotropy =     4.3455

     12  C    Isotropic =    49.1160   Anisotropy =   184.7101

     13  H    Isotropic =    24.4263   Anisotropy =     6.3198

     14  C    Isotropic =    43.4494   Anisotropy =   188.8605

     15  H    Isotropic =    24.1961   Anisotropy =    12.2822

     16  C    Isotropic =    37.0735   Anisotropy =   192.8887

     17  C    Isotropic =    48.3568   Anisotropy =   185.0652

     18  H    Isotropic =    24.4210   Anisotropy =    10.9049

     19  C    Isotropic =    50.1414   Anisotropy =   184.1906

     20  H    Isotropic =    24.4125   Anisotropy =     5.2511

     21  C    Isotropic =    52.1673   Anisotropy =   182.7255

     22  H    Isotropic =    24.5407   Anisotropy =     4.3947

     23  C    Isotropic =    49.1459   Anisotropy =   185.4370

     24  H    Isotropic =    24.5999   Anisotropy =     7.5173

     25  C    Isotropic =    50.5490   Anisotropy =   186.8338

     26  H    Isotropic =    25.4831   Anisotropy =     7.8811

     27  C    Isotropic =   145.9473   Anisotropy =    23.7988

     28  H    Isotropic =    28.7977   Anisotropy =     3.3867

     29  H    Isotropic =    29.6041   Anisotropy =     5.4897

     30  C    Isotropic =    52.3882   Anisotropy =   115.1990

     31  H    Isotropic =    24.8159   Anisotropy =     4.2645

     32  C    Isotropic =    68.7171   Anisotropy =   137.0925

     33  H    Isotropic =    25.5716   Anisotropy =     3.1031

     34  C    Isotropic =    62.9185   Anisotropy =   143.2476

     35  H    Isotropic =    25.2515   Anisotropy =     3.4514

     36  C    Isotropic =    56.8445   Anisotropy =   120.8857

     37  H    Isotropic =    24.9925   Anisotropy =     7.9832

     38  C    Isotropic =    53.3978   Anisotropy =   117.3645

     39  H    Isotropic =    24.8042   Anisotropy =     6.1403

     40  C    Isotropic =    65.1993   Anisotropy =   139.4068

     41  H    Isotropic =    25.3183   Anisotropy =     2.8434

     42  C    Isotropic =    65.7776   Anisotropy =   139.8610

     43  H    Isotropic =    25.3314   Anisotropy =     3.5812

     44  C    Isotropic =    56.6116   Anisotropy =   113.4280

     45  H    Isotropic =    24.6986   Anisotropy =     7.6801

 The electronic state is 1-A.
 Alpha  occ. eigenvalues --  -77.10452 -77.06193 -14.36043 -14.35869 -10.19984
 Alpha  occ. eigenvalues --  -10.19592 -10.19524 -10.19504 -10.19307 -10.19295
 Alpha  occ. eigenvalues --  -10.19258 -10.18847 -10.18735 -10.18662 -10.18622
 Alpha  occ. eigenvalues --  -10.18535 -10.18269 -10.18210 -10.18113 -10.18005
 Alpha  occ. eigenvalues --  -10.17873 -10.16175 -10.16160 -10.16050 -10.15957
 Alpha  occ. eigenvalues --   -6.58494  -6.54770  -4.74750  -4.74627  -4.74051
 Alpha  occ. eigenvalues --   -4.70943  -4.70874  -4.70403  -0.98146  -0.96530
 Alpha  occ. eigenvalues --   -0.87050  -0.86344  -0.80626  -0.77873  -0.76796
 Alpha  occ. eigenvalues --   -0.76013  -0.75566  -0.75225  -0.73956  -0.72559
 Alpha  occ. eigenvalues --   -0.72424  -0.64717  -0.62643  -0.61824  -0.61214
 Alpha  occ. eigenvalues --   -0.60740  -0.57640  -0.57128  -0.56612  -0.56444
 Alpha  occ. eigenvalues --   -0.55284  -0.54528  -0.52915  -0.51224  -0.49047
 Alpha  occ. eigenvalues --   -0.46775  -0.46532  -0.46218  -0.45604  -0.45447
 Alpha  occ. eigenvalues --   -0.43977  -0.43521  -0.42974  -0.42791  -0.42560
 Alpha  occ. eigenvalues --   -0.41896  -0.41632  -0.40693  -0.40358  -0.39877
 Alpha  occ. eigenvalues --   -0.39586  -0.38779  -0.38346  -0.38187  -0.37977
 Alpha  occ. eigenvalues --   -0.37632  -0.35880  -0.35492  -0.34003  -0.33229
 Alpha  occ. eigenvalues --   -0.28348  -0.27306  -0.27271  -0.27010  -0.26340
 Alpha  occ. eigenvalues --   -0.25995  -0.23807  -0.22575  -0.22472  -0.20634
 Alpha virt. eigenvalues --   -0.03959  -0.03340  -0.02790  -0.01871  -0.00704
 Alpha virt. eigenvalues --   -0.00058   0.02292   0.02909   0.04000   0.04511
 Alpha virt. eigenvalues --    0.04879   0.05325   0.06125   0.06495   0.06786

 Mulliken charges:
               1
     1  P    0.234374
     2  P    0.164724
     3  N   -0.036758
     4  N   -0.029745
     5  C    0.019432
     6  C   -0.178671
     7  H    0.119988
     8  C   -0.098534
     9  H    0.114170
    10  C   -0.099923
    11  H    0.114283
    12  C   -0.114498
    13  H    0.112060
    14  C   -0.165030
    15  H    0.139931
    16  C    0.080250
    17  C   -0.197028
    18  H    0.122214
    19  C   -0.104090
    20  H    0.110812
    21  C   -0.106431
    22  H    0.109583
    23  C   -0.149088
    24  H    0.110326
    25  C   -0.164916
    26  H    0.156193
    27  C   -0.394647
    28  H    0.145812
    29  H    0.157963
    30  C   -0.144229
    31  H    0.133562
    32  C   -0.135041
    33  H    0.110546
    34  C   -0.143879
    35  H    0.110034
    36  C   -0.154717
    37  H    0.133983
    38  C   -0.109529
    39  H    0.129309
    40  C   -0.154058
    41  H    0.111280
    42  C   -0.156166
    43  H    0.109897
    44  C   -0.149718
    45  H    0.135969
 Sum of Mulliken charges =  -0.00000

 Dipole moment (field-independent basis, Debye):
    X=             -2.3007    Y=             -0.4376    Z=              1.6445  Tot=              2.8617
 Quadrupole moment (field-independent basis, Debye-Ang):
   XX=           -158.1495   YY=           -153.0471   ZZ=           -159.9753
   XY=              1.8326   XZ=             -0.3334   YZ=              0.2778

 Summary of Natural Population Analysis:

                                       Natural Population
                Natural  -----------------------------------------------
    Atom  No    Charge         Core      Valence    Rydberg      Total
 -----------------------------------------------------------------------
      P    1    1.20295      9.99818     3.75054    0.04833    13.79705
      P    2    0.82867      9.99815     4.13934    0.03383    14.17133
      N    3   -0.63673      1.99943     5.60443    0.03287     7.63673
      N    4   -0.64200      1.99943     5.60795    0.03462     7.64200
      C    5   -0.32996      1.99899     4.29974    0.03123     6.32996
      C    6   -0.19622      1.99910     4.17648    0.02064     6.19622
      H    7    0.21739      0.00000     0.78104    0.00158     0.78261
      C    8   -0.20243      1.99918     4.18370    0.01954     6.20243
      H    9    0.21153      0.00000     0.78717    0.00129     0.78847
      C   10   -0.19701      1.99919     4.17873    0.01909     6.19701
      H   11    0.20995      0.00000     0.78886    0.00118     0.79005
      C   12   -0.20194      1.99919     4.18365    0.01911     6.20194
      H   13    0.20947      0.00000     0.78914    0.00139     0.79053
      C   14   -0.19528      1.99908     4.17607    0.02013     6.19528
      H   15    0.21576      0.00000     0.78209    0.00215     0.78424
      C   16   -0.33060      1.99900     4.29993    0.03166     6.33060
      C   17   -0.20699      1.99909     4.18796    0.01994     6.20699
      H   18    0.21253      0.00000     0.78551    0.00196     0.78747
      C   19   -0.19635      1.99918     4.17851    0.01865     6.19635
      H   20    0.20958      0.00000     0.78916    0.00126     0.79042
      C   21   -0.21134      1.99919     4.19273    0.01942     6.21134
      H   22    0.20890      0.00000     0.78993    0.00117     0.79110
      C   23   -0.19228      1.99919     4.17424    0.01885     6.19228
      H   24    0.21102      0.00000     0.78771    0.00127     0.78898
      C   25   -0.21193      1.99908     4.19221    0.02063     6.21193
      H   26    0.21109      0.00000     0.78600    0.00291     0.78891
      C   27   -1.04652      1.99945     5.01098    0.03609     7.04652
      H   28    0.25116      0.00000     0.74617    0.00267     0.74884
      H   29    0.26661      0.00000     0.73173    0.00166     0.73339
      C   30   -0.05393      1.99913     4.03239    0.02241     6.05393
      H   31    0.22052      0.00000     0.77826    0.00122     0.77948
      C   32   -0.29148      1.99914     4.27237    0.01997     6.29148
      H   33    0.21958      0.00000     0.77930    0.00112     0.78042
      C   34   -0.27506      1.99915     4.25675    0.01916     6.27506
      H   35    0.21716      0.00000     0.78168    0.00116     0.78284
      C   36   -0.08077      1.99912     4.05751    0.02414     6.08077
      H   37    0.21295      0.00000     0.78490    0.00215     0.78705
      C   38   -0.05590      1.99913     4.03401    0.02276     6.05590
      H   39    0.21713      0.00000     0.78166    0.00121     0.78287
      C   40   -0.28196      1.99914     4.26296    0.01986     6.28196
      H   41    0.21916      0.00000     0.77973    0.00111     0.78084
      C   42   -0.27945      1.99914     4.26094    0.01937     6.27945
      H   43    0.21744      0.00000     0.78142    0.00114     0.78256
      C   44   -0.08028      1.99912     4.05747    0.02369     6.08028
      H   45    0.20583      0.00000     0.79245    0.00172     0.79417
 =======================================================================
   * Total *   -0.00000     65.97719   123.37551    0.64730   190.00000

 Normal termination of Gaussian 16 at Thu Jan 23 22:41:19 2025.
