 Gaussian 16, Revision B.01,
 Gaussian 16:  ES64L-G16RevB.01 20-Dec-2017

 --------------------------------------------
 # nmr=giao b3lyp/def2TZVP pop=nbo scfcyc=200
 --------------------------------------------

 --------------
 MB-64 SPE NoRh
 --------------
 Symbolic Z-matrix:
 Charge =  0 Multiplicity = 1

                         Standard orientation:
 ---------------------------------------------------------------------
 Center     Atomic      Atomic             Coordinates (Angstroms)
 Number     Number       Type             X           Y           Z
 ---------------------------------------------------------------------
      1         15           0       -1.413227   -0.231735   -0.715196
      2         15           0        1.309566    0.264244   -0.946869
      3          6           0        0.011546    0.248640    0.391446
      4          1           0       -0.086986    1.285466    0.719483
      5          1           0        0.187175   -0.392958    1.252587
      6          6           0       -1.742677   -2.006375   -0.347979
      7          6           0       -2.247000   -2.396213    0.898869
      8          1           0       -2.488107   -1.652876    1.649278
      9          6           0       -2.456230   -3.741519    1.175765
     10          1           0       -2.850563   -4.034832    2.140855
     11          6           0       -2.164626   -4.708452    0.216174
     12          1           0       -2.332076   -5.755108    0.435164
     13          6           0       -1.662662   -4.326922   -1.022711
     14          1           0       -1.437517   -5.076651   -1.771961
     15          6           0       -1.451637   -2.980141   -1.305573
     16          1           0       -1.060664   -2.681380   -2.270496
     17          6           0       -2.933165    0.661704   -0.182156
     18          6           0       -2.868052    1.925657    0.410159
     19          1           0       -1.914362    2.384651    0.633981
     20          6           0       -4.035429    2.614203    0.722116
     21          1           0       -3.972935    3.587932    1.191789
     22          6           0       -5.276752    2.057242    0.434777
     23          1           0       -6.184015    2.595121    0.680173
     24          6           0       -5.348993    0.804434   -0.167486
     25          1           0       -6.311873    0.364048   -0.392826
     26          6           0       -4.184974    0.110826   -0.477682
     27          1           0       -4.258167   -0.868991   -0.934147
     28          6           0        2.363292   -1.309135   -0.783196
     29          1           0        2.870567   -1.416240   -1.748079
     30          1           0        1.637190   -2.123690   -0.734122
     31          6           0        2.480843    1.654052   -0.420605
     32          1           0        3.220928    1.786795   -1.221946
     33          1           0        2.999725    1.227859    0.438870
     34          7           0        3.280065   -1.346685    0.334999
     35          7           0        1.810588    2.878318   -0.039801
     36          6           0        3.156477   -2.523105    1.210874
     37          1           0        4.025210   -2.508484    1.872809
     38          1           0        3.215732   -3.460231    0.637893
     39          6           0        4.674646   -1.034107   -0.024302
     40          1           0        5.209102   -0.821436    0.904596
     41          1           0        4.674133   -0.102586   -0.594816
     42          6           0        1.895821   -2.533251    2.065855
     43          1           0        1.835133   -1.631462    2.678777
     44          1           0        0.987871   -2.608987    1.464665
     45          1           0        1.909068   -3.397480    2.732592
     46          6           0        5.433755   -2.107490   -0.812860
     47          1           0        6.438189   -1.750952   -1.049266
     48          1           0        5.538969   -3.031349   -0.242127
     49          1           0        4.943586   -2.351265   -1.758074
     50          6           0        2.392394    3.489797    1.170700
     51          1           0        3.379711    3.926201    0.948383
     52          1           0        2.556019    2.688883    1.892813
     53          6           0        1.605982    3.830169   -1.149064
     54          1           0        2.212469    4.726156   -0.975177
     55          1           0        1.992291    3.384079   -2.069731
     56          6           0        1.506552    4.549772    1.811882
     57          1           0        1.977387    4.912668    2.727593
     58          1           0        1.355911    5.413538    1.162342
     59          1           0        0.528193    4.140473    2.072422
     60          6           0        0.148485    4.227699   -1.368426
     61          1           0       -0.276729    4.697248   -0.480653
     62          1           0        0.070928    4.939509   -2.193926
     63          1           0       -0.456724    3.352349   -1.614593
 ---------------------------------------------------------------------

 SCF Done:  E(RB3LYP) =  -1690.70992959     A.U. after   14 cycles

      1  P    Isotropic =   237.1080   Anisotropy =    98.7814

      2  P    Isotropic =   242.6182   Anisotropy =    68.3312

      3  C    Isotropic =   163.5303   Anisotropy =    15.4547

      4  H    Isotropic =    29.0363   Anisotropy =    10.7298

      5  H    Isotropic =    30.0877   Anisotropy =     6.8743

      6  C    Isotropic =    32.8313   Anisotropy =   209.4876

      7  C    Isotropic =    38.8505   Anisotropy =   188.5112

      8  H    Isotropic =    23.9775   Anisotropy =    10.6558

      9  C    Isotropic =    48.3491   Anisotropy =   186.4067

     10  H    Isotropic =    24.3157   Anisotropy =     5.7960

     11  C    Isotropic =    48.8075   Anisotropy =   188.8630

     12  H    Isotropic =    24.2750   Anisotropy =     3.9166

     13  C    Isotropic =    50.6617   Anisotropy =   182.8574

     14  H    Isotropic =    24.2295   Anisotropy =     5.0314

     15  C    Isotropic =    40.3554   Anisotropy =   181.5062

     16  H    Isotropic =    23.6513   Anisotropy =     8.1499

     17  C    Isotropic =    29.2938   Anisotropy =   198.6325

     18  C    Isotropic =    50.9489   Anisotropy =   183.2095

     19  H    Isotropic =    24.0027   Anisotropy =     9.3900

     20  C    Isotropic =    50.7115   Anisotropy =   181.3735

     21  H    Isotropic =    24.3914   Anisotropy =     6.9062

     22  C    Isotropic =    54.1286   Anisotropy =   177.7334

     23  H    Isotropic =    24.6636   Anisotropy =     4.1611

     24  C    Isotropic =    49.8083   Anisotropy =   182.9528

     25  H    Isotropic =    24.5804   Anisotropy =     5.8581

     26  C    Isotropic =    50.2320   Anisotropy =   182.2035

     27  H    Isotropic =    24.9360   Anisotropy =    12.5179

     28  C    Isotropic =   132.9302   Anisotropy =    58.0475

     29  H    Isotropic =    28.7240   Anisotropy =     5.6699

     30  H    Isotropic =    29.4760   Anisotropy =     8.3186

     31  C    Isotropic =   121.2299   Anisotropy =    69.4212

     32  H    Isotropic =    29.3359   Anisotropy =     6.9302

     33  H    Isotropic =    28.5805   Anisotropy =     9.3896

     34  N    Isotropic =   205.8795   Anisotropy =    52.1509

     35  N    Isotropic =   200.2816   Anisotropy =    38.5068

     36  C    Isotropic =   131.0472   Anisotropy =    50.1513

     37  H    Isotropic =    29.8585   Anisotropy =     8.0747

     38  H    Isotropic =    29.7509   Anisotropy =     6.5288

     39  C    Isotropic =   125.6451   Anisotropy =    60.4799

     40  H    Isotropic =    29.2052   Anisotropy =     7.8677

     41  H    Isotropic =    29.5343   Anisotropy =     6.1693

     42  C    Isotropic =   165.0554   Anisotropy =    21.4102

     43  H    Isotropic =    31.3400   Anisotropy =     5.1122

     44  H    Isotropic =    32.0179   Anisotropy =    11.6966

     45  H    Isotropic =    31.3923   Anisotropy =     9.6860

     46  C    Isotropic =   177.3510   Anisotropy =    13.9851

     47  H    Isotropic =    31.5882   Anisotropy =    11.3894

     48  H    Isotropic =    31.0197   Anisotropy =     8.1579

     49  H    Isotropic =    30.8040   Anisotropy =     6.5857

     50  C    Isotropic =   120.6081   Anisotropy =    63.6076

     51  H    Isotropic =    29.1074   Anisotropy =     7.1256

     52  H    Isotropic =    29.3766   Anisotropy =     5.2715

     53  C    Isotropic =   125.8059   Anisotropy =    66.5171

     54  H    Isotropic =    29.3384   Anisotropy =     7.1761

     55  H    Isotropic =    29.2326   Anisotropy =     5.8632

     56  C    Isotropic =   165.4343   Anisotropy =    24.1792

     57  H    Isotropic =    30.8511   Anisotropy =    11.0340

     58  H    Isotropic =    30.6620   Anisotropy =     6.7649

     59  H    Isotropic =    30.5746   Anisotropy =     6.1916

     60  C    Isotropic =   162.4098   Anisotropy =    29.7991

     61  H    Isotropic =    30.8039   Anisotropy =     5.3167

     62  H    Isotropic =    31.0160   Anisotropy =    11.0478

     63  H    Isotropic =    30.4691   Anisotropy =     6.6036

 The electronic state is 1-A.
 Alpha  occ. eigenvalues --  -77.04167 -77.02839 -14.30837 -14.30721 -10.19691
 Alpha  occ. eigenvalues --  -10.19613 -10.19537 -10.19500 -10.19065 -10.18756
 Alpha  occ. eigenvalues --  -10.18303 -10.18205 -10.18112 -10.18022 -10.18006
 Alpha  occ. eigenvalues --  -10.17938 -10.17774 -10.17079 -10.17031 -10.16994
 Alpha  occ. eigenvalues --  -10.16967 -10.16892 -10.16725 -10.16240 -10.16145
 Alpha  occ. eigenvalues --  -10.15984 -10.15189  -6.52731  -6.51452  -4.68877
 Alpha  occ. eigenvalues --   -4.68861  -4.68365  -4.67612  -4.67548  -4.67073
 Alpha  occ. eigenvalues --   -0.92179  -0.91808  -0.86284  -0.85164  -0.77098
 Alpha  occ. eigenvalues --   -0.76522  -0.75980  -0.75385  -0.75308  -0.74414
 Alpha  occ. eigenvalues --   -0.74150  -0.74017  -0.72131  -0.68101  -0.66254
 Alpha  occ. eigenvalues --   -0.63084  -0.62781  -0.62593  -0.61089  -0.60121
 Alpha  occ. eigenvalues --   -0.59749  -0.58040  -0.56937  -0.55496  -0.52267
 Alpha  occ. eigenvalues --   -0.51892  -0.49978  -0.49104  -0.48723  -0.47575
 Alpha  occ. eigenvalues --   -0.47153  -0.45926  -0.45756  -0.45539  -0.44930
 Alpha  occ. eigenvalues --   -0.44787  -0.44552  -0.43438  -0.43359  -0.42839
 Alpha  occ. eigenvalues --   -0.42164  -0.41823  -0.41286  -0.40776  -0.40513
 Alpha  occ. eigenvalues --   -0.39996  -0.39368  -0.39114  -0.38808  -0.38515
 Alpha  occ. eigenvalues --   -0.37594  -0.37023  -0.36874  -0.36321  -0.35806
 Alpha  occ. eigenvalues --   -0.35613  -0.35531  -0.35175  -0.34847  -0.34499
 Alpha  occ. eigenvalues --   -0.34210  -0.34079  -0.33482  -0.32520  -0.31935
 Alpha  occ. eigenvalues --   -0.30934  -0.26912  -0.26373  -0.25972  -0.25216
 Alpha  occ. eigenvalues --   -0.22713  -0.21160  -0.20681  -0.17535
 Alpha virt. eigenvalues --   -0.03269  -0.02127  -0.01497  -0.00799   0.01969
 Alpha virt. eigenvalues --    0.02438   0.03125   0.04287   0.04506   0.04704
 Alpha virt. eigenvalues --    0.05345   0.05720   0.06168   0.06515   0.07164

 Mulliken charges:
               1
     1  P    0.148089
     2  P    0.176370
     3  C   -0.352911
     4  H    0.135746
     5  H    0.119586
     6  C    0.014054
     7  C   -0.175250
     8  H    0.126496
     9  C   -0.099168
    10  H    0.108983
    11  C   -0.098840
    12  H    0.111703
    13  C   -0.099313
    14  H    0.110646
    15  C   -0.170630
    16  H    0.121910
    17  C    0.051073
    18  C   -0.178726
    19  H    0.132444
    20  C   -0.137273
    21  H    0.100838
    22  C   -0.104668
    23  H    0.103756
    24  C   -0.125289
    25  H    0.104807
    26  C   -0.159495
    27  H    0.124948
    28  C   -0.270597
    29  H    0.110210
    30  H    0.144042
    31  C   -0.232701
    32  H    0.094242
    33  H    0.123420
    34  N   -0.137960
    35  N   -0.182139
    36  C   -0.138685
    37  H    0.092976
    38  H    0.083542
    39  C   -0.145318
    40  H    0.104544
    41  H    0.106376
    42  C   -0.327448
    43  H    0.098053
    44  H    0.133350
    45  H    0.106731
    46  C   -0.332932
    47  H    0.110378
    48  H    0.113047
    49  H    0.106379
    50  C   -0.101466
    51  H    0.075321
    52  H    0.096828
    53  C   -0.074255
    54  H    0.082087
    55  H    0.090496
    56  C   -0.337153
    57  H    0.109484
    58  H    0.113849
    59  H    0.105669
    60  C   -0.341298
    61  H    0.103492
    62  H    0.098823
    63  H    0.128732
 Sum of Mulliken charges =  -0.00000

 Dipole moment (field-independent basis, Debye):
    X=              2.0861    Y=             -1.1381    Z=              1.8819  Tot=              3.0312
 Quadrupole moment (field-independent basis, Debye-Ang):
   XX=           -175.1482   YY=           -169.0473   ZZ=           -185.3396
   XY=              2.4297   XZ=             -2.7195   YZ=              2.4653

 Summary of Natural Population Analysis:

                                       Natural Population
                Natural  -----------------------------------------------
    Atom  No    Charge         Core      Valence    Rydberg      Total
 -----------------------------------------------------------------------
      P    1    0.83018      9.99814     4.13732    0.03437    14.16982
      P    2    0.74506      9.99878     4.22066    0.03549    14.25494
      C    3   -1.01984      1.99946     4.98910    0.03128     7.01984
      H    4    0.26171      0.00000     0.73528    0.00302     0.73829
      H    5    0.23802      0.00000     0.75879    0.00319     0.76198
      C    6   -0.33072      1.99901     4.29822    0.03349     6.33072
      C    7   -0.19335      1.99908     4.17421    0.02006     6.19335
      H    8    0.21311      0.00000     0.78456    0.00233     0.78689
      C    9   -0.20521      1.99919     4.18699    0.01904     6.20521
      H   10    0.20837      0.00000     0.79024    0.00139     0.79163
      C   11   -0.19913      1.99919     4.18084    0.01911     6.19913
      H   12    0.20870      0.00000     0.79013    0.00117     0.79130
      C   13   -0.20824      1.99918     4.18944    0.01962     6.20824
      H   14    0.20963      0.00000     0.78909    0.00128     0.79037
      C   15   -0.19771      1.99910     4.17768    0.02093     6.19771
      H   16    0.21990      0.00000     0.77843    0.00168     0.78010
      C   17   -0.31608      1.99899     4.28710    0.02999     6.31608
      C   18   -0.21760      1.99908     4.19844    0.02008     6.21760
      H   19    0.20349      0.00000     0.79388    0.00263     0.79651
      C   20   -0.19634      1.99919     4.17817    0.01899     6.19634
      H   21    0.20550      0.00000     0.79316    0.00134     0.79450
      C   22   -0.22073      1.99919     4.20176    0.01978     6.22073
      H   23    0.20614      0.00000     0.79265    0.00121     0.79386
      C   24   -0.19605      1.99919     4.17799    0.01888     6.19605
      H   25    0.20648      0.00000     0.79219    0.00132     0.79352
      C   26   -0.21085      1.99908     4.19167    0.02009     6.21085
      H   27    0.21071      0.00000     0.78747    0.00182     0.78929
      C   28   -0.49145      1.99933     4.46708    0.02503     6.49145
      H   29    0.20078      0.00000     0.79646    0.00276     0.79922
      H   30    0.21598      0.00000     0.78088    0.00314     0.78402
      C   31   -0.48648      1.99934     4.46352    0.02362     6.48648
      H   32    0.18141      0.00000     0.81526    0.00333     0.81859
      H   33    0.21014      0.00000     0.78592    0.00393     0.78986
      N   34   -0.45893      1.99951     5.42461    0.03481     7.45893
      N   35   -0.45323      1.99947     5.41943    0.03433     7.45323
      C   36   -0.20275      1.99937     4.18697    0.01641     6.20275
      H   37    0.18849      0.00000     0.80960    0.00192     0.81151
      H   38    0.15596      0.00000     0.84016    0.00388     0.84404
      C   39   -0.20179      1.99937     4.18486    0.01756     6.20179
      H   40    0.18800      0.00000     0.81005    0.00195     0.81200
      H   41    0.18694      0.00000     0.81040    0.00266     0.81306
      C   42   -0.59859      1.99946     4.58763    0.01150     6.59859
      H   43    0.20139      0.00000     0.79689    0.00173     0.79861
      H   44    0.20242      0.00000     0.79590    0.00168     0.79758
      H   45    0.20640      0.00000     0.79254    0.00107     0.79360
      C   46   -0.61959      1.99946     4.61345    0.00668     6.61959
      H   47    0.20770      0.00000     0.79102    0.00129     0.79230
      H   48    0.19895      0.00000     0.79966    0.00139     0.80105
      H   49    0.19779      0.00000     0.80056    0.00165     0.80221
      C   50   -0.19318      1.99938     4.17861    0.01519     6.19318
      H   51    0.15194      0.00000     0.84362    0.00444     0.84806
      H   52    0.18839      0.00000     0.80997    0.00164     0.81161
      C   53   -0.21154      1.99938     4.19575    0.01641     6.21154
      H   54    0.16860      0.00000     0.82791    0.00349     0.83140
      H   55    0.18797      0.00000     0.80933    0.00270     0.81203
      C   56   -0.59912      1.99946     4.58870    0.01096     6.59912
      H   57    0.20698      0.00000     0.79210    0.00093     0.79302
      H   58    0.19877      0.00000     0.79999    0.00124     0.80123
      H   59    0.20197      0.00000     0.79654    0.00149     0.79803
      C   60   -0.59292      1.99946     4.58284    0.01062     6.59292
      H   61    0.19650      0.00000     0.80215    0.00135     0.80350
      H   62    0.20042      0.00000     0.79845    0.00113     0.79958
      H   63    0.21056      0.00000     0.78807    0.00137     0.78944
 =======================================================================
   * Total *   -0.00000     69.97885   147.36231    0.65885   218.00000

 Normal termination of Gaussian 16 at Thu Jan 23 23:30:54 2025.
