 Gaussian 16, Revision B.01,
 Gaussian 16:  ES64L-G16RevB.01 20-Dec-2017

 --------------------------------------------
 # nmr=giao b3lyp/def2TZVP pop=nbo scfcyc=200
 --------------------------------------------

 --------------
 MB-68 SPE NoRh
 --------------
 Symbolic Z-matrix:
 Charge =  0 Multiplicity = 1

                         Standard orientation:
 ---------------------------------------------------------------------
 Center     Atomic      Atomic             Coordinates (Angstroms)
 Number     Number       Type             X           Y           Z
 ---------------------------------------------------------------------
      1         15           0        1.583318   -0.409638   -0.638134
      2          6           0        2.963315   -1.573817   -0.268470
      3          6           0        2.694007   -2.935081   -0.085933
      4          6           0        3.731718   -3.834880    0.122497
      5          6           0        5.051175   -3.390230    0.131880
      6          6           0        5.326834   -2.042778   -0.069601
      7          6           0        4.290259   -1.136121   -0.270774
      8          1           0        4.521153   -0.089583   -0.416785
      9          1           0        6.350980   -1.690707   -0.066073
     10          1           0        5.859111   -4.092512    0.292569
     11          1           0        3.510287   -4.883667    0.274112
     12          1           0        1.675977   -3.305189   -0.108098
     13          6           0        2.185968    1.261778   -0.170174
     14          6           0        2.166152    2.290266   -1.113724
     15          6           0        2.608911    3.564572   -0.770164
     16          6           0        3.070744    3.817399    0.515125
     17          6           0        3.090419    2.795643    1.463222
     18          6           0        2.650152    1.522904    1.123577
     19          1           0        2.681700    0.734028    1.866703
     20          1           0        3.449630    2.990865    2.465044
     21          1           0        3.415833    4.808297    0.782994
     22          1           0        2.590342    4.358148   -1.507086
     23          1           0        1.795273    2.096640   -2.112335
     24          6           0        0.177117   -0.783973    0.538992
     25         15           0       -1.198499   -0.383651   -0.669273
     26          6           0       -1.770457    1.315183   -0.237994
     27          6           0       -1.891548    1.742787    1.088876
     28          6           0       -2.358070    3.019742    1.376238
     29          6           0       -2.710834    3.884964    0.344238
     30          6           0       -2.588466    3.470413   -0.977943
     31          6           0       -2.117041    2.194458   -1.267294
     32          1           0       -2.008960    1.888578   -2.299031
     33          1           0       -2.855087    4.141366   -1.784742
     34          1           0       -3.074263    4.879012    0.570434
     35          1           0       -2.446269    3.340020    2.406413
     36          1           0       -1.621787    1.088115    1.907081
     37          1           0        0.157108   -1.853422    0.746385
     38          1           0        0.193144   -0.238811    1.480748
     39          6           0       -2.617098   -1.558627   -0.293086
     40          6           0       -3.010201   -1.633323    1.191404
     41          6           0       -3.842460   -1.248322   -1.170724
     42          1           0       -2.210533   -2.532310   -0.596260
     43          6           0       -4.123239   -2.669278    1.410425
     44          1           0       -3.367548   -0.653392    1.520511
     45          1           0       -2.146396   -1.884076    1.811034
     46          6           0       -4.958413   -2.278576   -0.943957
     47          1           0       -4.217584   -0.250569   -0.922224
     48          1           0       -3.568242   -1.226624   -2.227865
     49          6           0       -5.344814   -2.380409    0.533849
     50          1           0       -4.405910   -2.679241    2.466206
     51          1           0       -3.737198   -3.668989    1.182320
     52          1           0       -5.828540   -2.008568   -1.547861
     53          1           0       -4.622960   -3.258652   -1.301466
     54          1           0       -6.100124   -3.158210    0.672132
     55          1           0       -5.806212   -1.439395    0.853332
 ---------------------------------------------------------------------

 SCF Done:  E(RB3LYP) =  -1652.62477264     A.U. after   14 cycles

      1  P    Isotropic =   242.1553   Anisotropy =    99.5537

      2  C    Isotropic =    28.7245   Anisotropy =   200.1852

      3  C    Isotropic =    50.8828   Anisotropy =   181.9051

      4  C    Isotropic =    50.3900   Anisotropy =   182.0538

      5  C    Isotropic =    53.8848   Anisotropy =   178.7862

      6  C    Isotropic =    49.8486   Anisotropy =   183.3302

      7  C    Isotropic =    50.8326   Anisotropy =   182.7334

      8  H    Isotropic =    25.1624   Anisotropy =    13.4187

      9  H    Isotropic =    24.6280   Anisotropy =     6.3442

     10  H    Isotropic =    24.6508   Anisotropy =     4.0732

     11  H    Isotropic =    24.3473   Anisotropy =     6.0366

     12  H    Isotropic =    24.2012   Anisotropy =    10.8907

     13  C    Isotropic =    36.0066   Anisotropy =   206.8803

     14  C    Isotropic =    39.0622   Anisotropy =   185.2660

     15  C    Isotropic =    50.6433   Anisotropy =   184.9108

     16  C    Isotropic =    48.6712   Anisotropy =   190.5123

     17  C    Isotropic =    48.8981   Anisotropy =   186.4877

     18  C    Isotropic =    40.1988   Anisotropy =   188.4653

     19  H    Isotropic =    24.0651   Anisotropy =    10.2856

     20  H    Isotropic =    24.4378   Anisotropy =     5.5510

     21  H    Isotropic =    24.5105   Anisotropy =     3.8079

     22  H    Isotropic =    24.6091   Anisotropy =     5.1204

     23  H    Isotropic =    24.0330   Anisotropy =     7.6797

     24  C    Isotropic =   152.8461   Anisotropy =    17.3555

     25  P    Isotropic =   234.3249   Anisotropy =   106.6577

     26  C    Isotropic =    39.7695   Anisotropy =   208.0035

     27  C    Isotropic =    42.2722   Anisotropy =   190.8997

     28  C    Isotropic =    51.0565   Anisotropy =   184.1349

     29  C    Isotropic =    49.4089   Anisotropy =   188.7109

     30  C    Isotropic =    50.4774   Anisotropy =   183.8694

     31  C    Isotropic =    41.0479   Anisotropy =   181.8472

     32  H    Isotropic =    24.0313   Anisotropy =     8.2617

     33  H    Isotropic =    24.4445   Anisotropy =     4.9116

     34  H    Isotropic =    24.5588   Anisotropy =     3.7712

     35  H    Isotropic =    24.6713   Anisotropy =     5.7211

     36  H    Isotropic =    24.2931   Anisotropy =     9.4536

     37  H    Isotropic =    29.9643   Anisotropy =     6.4429

     38  H    Isotropic =    29.0896   Anisotropy =     4.3151

     39  C    Isotropic =   135.7848   Anisotropy =    22.5191

     40  C    Isotropic =   151.4329   Anisotropy =    10.0222

     41  C    Isotropic =   151.4339   Anisotropy =    10.3927

     42  H    Isotropic =    30.0688   Anisotropy =     4.0094

     43  C    Isotropic =   151.5562   Anisotropy =     8.1088

     44  H    Isotropic =    30.6461   Anisotropy =     7.4510

     45  H    Isotropic =    29.9519   Anisotropy =     6.3666

     46  C    Isotropic =   151.4155   Anisotropy =     7.0445

     47  H    Isotropic =    31.5721   Anisotropy =     7.0796

     48  H    Isotropic =    30.0277   Anisotropy =     6.8657

     49  C    Isotropic =   153.0594   Anisotropy =     2.8064

     50  H    Isotropic =    30.1816   Anisotropy =     9.6104

     51  H    Isotropic =    30.6583   Anisotropy =     8.1278

     52  H    Isotropic =    30.2452   Anisotropy =    10.0875

     53  H    Isotropic =    30.5975   Anisotropy =     8.5015

     54  H    Isotropic =    30.3328   Anisotropy =    10.8134

     55  H    Isotropic =    30.9904   Anisotropy =     7.6406

 The electronic state is 1-A.
 Alpha  occ. eigenvalues --  -77.04581 -77.03810 -10.18331 -10.18243 -10.18166
 Alpha  occ. eigenvalues --  -10.18157 -10.18130 -10.18097 -10.18056 -10.17949
 Alpha  occ. eigenvalues --  -10.17931 -10.17921 -10.17895 -10.17824 -10.17783
 Alpha  occ. eigenvalues --  -10.17756 -10.17597 -10.17492 -10.17384 -10.17267
 Alpha  occ. eigenvalues --  -10.17130 -10.17054 -10.16498 -10.16481 -10.16326
 Alpha  occ. eigenvalues --  -10.16307 -10.16231  -6.53146  -6.52392  -4.69297
 Alpha  occ. eigenvalues --   -4.69267  -4.68780  -4.68561  -4.68489  -4.68016
 Alpha  occ. eigenvalues --   -0.86314  -0.86043  -0.85475  -0.83258  -0.77576
 Alpha  occ. eigenvalues --   -0.76123  -0.75300  -0.75164  -0.74753  -0.74374
 Alpha  occ. eigenvalues --   -0.74203  -0.74137  -0.72100  -0.63717  -0.62189
 Alpha  occ. eigenvalues --   -0.61121  -0.61101  -0.60644  -0.60417  -0.60348
 Alpha  occ. eigenvalues --   -0.59913  -0.56001  -0.55526  -0.54690  -0.52166
 Alpha  occ. eigenvalues --   -0.50872  -0.50204  -0.47609  -0.46049  -0.45884
 Alpha  occ. eigenvalues --   -0.45675  -0.45285  -0.45204  -0.44854  -0.44473
 Alpha  occ. eigenvalues --   -0.43998  -0.43644  -0.43265  -0.42801  -0.42568
 Alpha  occ. eigenvalues --   -0.42236  -0.41170  -0.39979  -0.38679  -0.38299
 Alpha  occ. eigenvalues --   -0.38041  -0.37578  -0.37541  -0.37221  -0.36282
 Alpha  occ. eigenvalues --   -0.35363  -0.35206  -0.35040  -0.34708  -0.34504
 Alpha  occ. eigenvalues --   -0.33446  -0.32392  -0.32074  -0.31718  -0.30431
 Alpha  occ. eigenvalues --   -0.29304  -0.27127  -0.26570  -0.26333  -0.26019
 Alpha  occ. eigenvalues --   -0.25621  -0.25496  -0.21936  -0.18494
 Alpha virt. eigenvalues --   -0.03719  -0.02642  -0.02292  -0.01689  -0.01522
 Alpha virt. eigenvalues --   -0.00914   0.02097   0.03095   0.03942   0.04181
 Alpha virt. eigenvalues --    0.04741   0.05041   0.05619   0.06471   0.06623

 Mulliken charges:
               1
     1  P    0.181412
     2  C    0.078771
     3  C   -0.205675
     4  C   -0.115983
     5  C   -0.111910
     6  C   -0.121304
     7  C   -0.172410
     8  H    0.136311
     9  H    0.105778
    10  H    0.105600
    11  H    0.104436
    12  H    0.102327
    13  C    0.038076
    14  C   -0.139189
    15  C   -0.101032
    16  C   -0.097542
    17  C   -0.095727
    18  C   -0.201134
    19  H    0.123397
    20  H    0.108511
    21  H    0.111028
    22  H    0.109216
    23  H    0.114200
    24  C   -0.380363
    25  P    0.121348
    26  C    0.074756
    27  C   -0.183593
    28  C   -0.121212
    29  C   -0.095100
    30  C   -0.105395
    31  C   -0.163715
    32  H    0.107007
    33  H    0.108399
    34  H    0.109447
    35  H    0.105531
    36  H    0.124979
    37  H    0.124724
    38  H    0.127254
    39  C   -0.061908
    40  C   -0.209127
    41  C   -0.232331
    42  H    0.065817
    43  C   -0.158626
    44  H    0.091749
    45  H    0.094002
    46  C   -0.150495
    47  H    0.103327
    48  H    0.100191
    49  C   -0.162132
    50  H    0.089210
    51  H    0.077818
    52  H    0.091897
    53  H    0.079588
    54  H    0.091244
    55  H    0.078555
 Sum of Mulliken charges =  -0.00000

 Dipole moment (field-independent basis, Debye):
    X=             -0.7245    Y=              1.0571    Z=              2.0457  Tot=              2.4140
 Quadrupole moment (field-independent basis, Debye-Ang):
   XX=           -173.4726   YY=           -162.2384   ZZ=           -177.1154
   XY=              1.8668   XZ=              3.2595   YZ=             -2.5586

 Summary of Natural Population Analysis:

                                       Natural Population
                Natural  -----------------------------------------------
    Atom  No    Charge         Core      Valence    Rydberg      Total
 -----------------------------------------------------------------------
      P    1    0.83494      9.99816     4.13320    0.03370    14.16506
      C    2   -0.31457      1.99899     4.28578    0.02980     6.31457
      C    3   -0.21398      1.99908     4.19495    0.01994     6.21398
      C    4   -0.19635      1.99919     4.17815    0.01901     6.19635
      C    5   -0.21894      1.99919     4.20000    0.01975     6.21894
      C    6   -0.19483      1.99919     4.17668    0.01897     6.19483
      C    7   -0.21309      1.99908     4.19390    0.02011     6.21309
      H    8    0.21361      0.00000     0.78456    0.00184     0.78639
      H    9    0.20679      0.00000     0.79189    0.00133     0.79321
      H   10    0.20689      0.00000     0.79191    0.00121     0.79311
      H   11    0.20656      0.00000     0.79212    0.00132     0.79344
      H   12    0.19818      0.00000     0.79951    0.00230     0.80182
      C   13   -0.33666      1.99901     4.30395    0.03371     6.33666
      C   14   -0.18281      1.99910     4.16312    0.02059     6.18281
      C   15   -0.20525      1.99918     4.18663    0.01944     6.20525
      C   16   -0.19468      1.99919     4.17650    0.01899     6.19468
      C   17   -0.20606      1.99919     4.18782    0.01905     6.20606
      C   18   -0.19280      1.99908     4.17355    0.02017     6.19280
      H   19    0.20896      0.00000     0.78856    0.00247     0.79104
      H   20    0.20784      0.00000     0.79077    0.00138     0.79216
      H   21    0.20836      0.00000     0.79046    0.00117     0.79164
      H   22    0.20983      0.00000     0.78890    0.00128     0.79017
      H   23    0.21998      0.00000     0.77841    0.00161     0.78002
      C   24   -1.00287      1.99945     4.97083    0.03260     7.00287
      P   25    0.80458      9.99838     4.16224    0.03480    14.19542
      C   26   -0.33467      1.99900     4.30191    0.03376     6.33467
      C   27   -0.19954      1.99908     4.18035    0.02010     6.19954
      C   28   -0.20406      1.99919     4.18581    0.01906     6.20406
      C   29   -0.19936      1.99919     4.18101    0.01916     6.19936
      C   30   -0.20552      1.99918     4.18680    0.01954     6.20552
      C   31   -0.19082      1.99910     4.17089    0.02083     6.19082
      H   32    0.21666      0.00000     0.78153    0.00181     0.78334
      H   33    0.20852      0.00000     0.79020    0.00128     0.79148
      H   34    0.20782      0.00000     0.79100    0.00118     0.79218
      H   35    0.20678      0.00000     0.79183    0.00139     0.79322
      H   36    0.20221      0.00000     0.79516    0.00262     0.79779
      H   37    0.24544      0.00000     0.75285    0.00171     0.75456
      H   38    0.23541      0.00000     0.76207    0.00252     0.76459
      C   39   -0.46680      1.99938     4.44304    0.02439     6.46680
      C   40   -0.39678      1.99938     4.38296    0.01444     6.39678
      C   41   -0.39592      1.99938     4.38117    0.01537     6.39592
      H   42    0.20619      0.00000     0.79157    0.00224     0.79381
      C   43   -0.38225      1.99943     4.36928    0.01354     6.38225
      H   44    0.19328      0.00000     0.80424    0.00248     0.80672
      H   45    0.19578      0.00000     0.80232    0.00190     0.80422
      C   46   -0.37974      1.99943     4.36677    0.01355     6.37974
      H   47    0.19498      0.00000     0.80280    0.00222     0.80502
      H   48    0.21096      0.00000     0.78702    0.00202     0.78904
      C   49   -0.38661      1.99942     4.37378    0.01340     6.38661
      H   50    0.19998      0.00000     0.79857    0.00145     0.80002
      H   51    0.18555      0.00000     0.81260    0.00185     0.81445
      H   52    0.20231      0.00000     0.79634    0.00135     0.79769
      H   53    0.18690      0.00000     0.81128    0.00182     0.81310
      H   54    0.20135      0.00000     0.79732    0.00133     0.79865
      H   55    0.18833      0.00000     0.80985    0.00182     0.81167
 =======================================================================
   * Total *    0.00000     69.97662   137.38670    0.63668   208.00000

 Normal termination of Gaussian 16 at Fri Jan 24 00:03:47 2025.
