 Gaussian 16, Revision B.01,
 Gaussian 16:  ES64L-G16RevB.01 20-Dec-2017

 --------------------------------------------
 # nmr=giao b3lyp/def2TZVP pop=nbo scfcyc=200
 --------------------------------------------

 --------------
 MB-62 SPE NoRh
 --------------
 Symbolic Z-matrix:
 Charge =  0 Multiplicity = 1

                         Standard orientation:
 ---------------------------------------------------------------------
 Center     Atomic      Atomic             Coordinates (Angstroms)
 Number     Number       Type             X           Y           Z
 ---------------------------------------------------------------------
      1         15           0       -2.429403   -0.229065   -0.565865
      2         15           0        0.420199   -0.193133   -0.563968
      3          6           0       -0.997329   -0.287845    0.650399
      4          1           0       -0.977417    0.504140    1.395799
      5          1           0       -1.004654   -1.236682    1.179672
      6          6           0       -3.331644    1.431498   -0.207448
      7          6           0       -2.285178    2.544628   -0.394710
      8          1           0       -2.783080    3.511580   -0.293469
      9          1           0       -1.823971    2.507829   -1.382445
     10          1           0       -1.491431    2.509582    0.351153
     11          6           0       -4.457797    1.660451   -1.229083
     12          1           0       -5.251545    0.919721   -1.164183
     13          1           0       -4.082801    1.674563   -2.252116
     14          1           0       -4.908834    2.637762   -1.037806
     15          6           0       -3.905119    1.510863    1.215432
     16          1           0       -4.230068    2.537161    1.406904
     17          1           0       -3.170992    1.257321    1.981246
     18          1           0       -4.775134    0.870254    1.345753
     19          6           0       -3.479258   -1.780869   -0.105658
     20          6           0       -4.815889   -1.771554   -0.863664
     21          1           0       -4.695752   -1.585390   -1.931892
     22          1           0       -5.509842   -1.033336   -0.464338
     23          1           0       -5.290638   -2.750061   -0.756302
     24          6           0       -3.755773   -1.908955    1.401153
     25          1           0       -4.270236   -2.857176    1.579926
     26          1           0       -4.396116   -1.117152    1.781703
     27          1           0       -2.843977   -1.925180    1.999815
     28          6           0       -2.654967   -3.002078   -0.558768
     29          1           0       -1.702914   -3.083210   -0.033280
     30          1           0       -2.445329   -2.980789   -1.627781
     31          1           0       -3.222991   -3.909543   -0.339755
     32          6           0        1.212086    1.443407   -0.279392
     33          6           0        1.713951    1.810808    0.985727
     34          6           0        2.327850    3.052747    1.155745
     35          1           0        2.718298    3.345066    2.119230
     36          6           0        2.436484    3.927424    0.080680
     37          1           0        2.914825    4.887774    0.228203
     38          6           0        1.936017    3.582943   -1.168988
     39          1           0        2.017404    4.268013   -2.002194
     40          6           0        1.329517    2.343711   -1.336571
     41          1           0        0.933784    2.065216   -2.304294
     42          8           0        1.545668    0.908507    1.989371
     43          6           0        2.118577    1.174230    3.270746
     44          1           0        3.201576    1.302219    3.198650
     45          1           0        1.898218    0.300207    3.877943
     46          1           0        1.671096    2.059224    3.729647
     47          6           0        1.672590   -1.462732   -0.073435
     48          6           0        2.881070   -1.523620   -0.794134
     49          6           0        3.847569   -2.475695   -0.469620
     50          1           0        4.777890   -2.522605   -1.016064
     51          6           0        3.612689   -3.378391    0.562703
     52          1           0        4.368401   -4.116085    0.803139
     53          6           0        2.425309   -3.334558    1.277669
     54          1           0        2.242716   -4.032549    2.084506
     55          6           0        1.468588   -2.378146    0.957229
     56          1           0        0.560051   -2.344427    1.542500
     57          8           0        3.026141   -0.613919   -1.797076
     58          6           0        4.269004   -0.540897   -2.497598
     59          1           0        5.093720   -0.333823   -1.812748
     60          1           0        4.166499    0.284465   -3.197381
     61          1           0        4.466740   -1.462040   -3.051087
 ---------------------------------------------------------------------

 SCF Done:  E(RB3LYP) =  -1730.48090852     A.U. after   15 cycles

      1  P    Isotropic =   193.5125   Anisotropy =    92.3905

      2  P    Isotropic =   260.4455   Anisotropy =    94.4491

      3  C    Isotropic =   165.7522   Anisotropy =    18.4974

      4  H    Isotropic =    30.0058   Anisotropy =     5.7227

      5  H    Isotropic =    29.7625   Anisotropy =     6.0707

      6  C    Isotropic =   142.6299   Anisotropy =    15.7700

      7  C    Isotropic =   150.2543   Anisotropy =    43.3391

      8  H    Isotropic =    31.7780   Anisotropy =     7.7111

      9  H    Isotropic =    31.0856   Anisotropy =     8.4761

     10  H    Isotropic =    31.8541   Anisotropy =    10.8040

     11  C    Isotropic =   152.7253   Anisotropy =    44.5491

     12  H    Isotropic =    30.5859   Anisotropy =     7.6579

     13  H    Isotropic =    30.7109   Anisotropy =     8.0252

     14  H    Isotropic =    31.2932   Anisotropy =     9.6614

     15  C    Isotropic =   154.7692   Anisotropy =    35.2167

     16  H    Isotropic =    31.2639   Anisotropy =     9.5672

     17  H    Isotropic =    30.7596   Anisotropy =     4.7115

     18  H    Isotropic =    30.6590   Anisotropy =     7.3912

     19  C    Isotropic =   140.4860   Anisotropy =    19.2766

     20  C    Isotropic =   153.1449   Anisotropy =    38.9880

     21  H    Isotropic =    30.5819   Anisotropy =     7.7739

     22  H    Isotropic =    30.7462   Anisotropy =     7.3860

     23  H    Isotropic =    31.1147   Anisotropy =     9.6458

     24  C    Isotropic =   155.3449   Anisotropy =    38.3641

     25  H    Isotropic =    31.0690   Anisotropy =     9.8126

     26  H    Isotropic =    30.4526   Anisotropy =     6.4435

     27  H    Isotropic =    30.4171   Anisotropy =     5.2088

     28  C    Isotropic =   151.0666   Anisotropy =    45.5119

     29  H    Isotropic =    30.8478   Anisotropy =     7.8708

     30  H    Isotropic =    30.6922   Anisotropy =     7.3861

     31  H    Isotropic =    31.4539   Anisotropy =     9.1277

     32  C    Isotropic =    49.2000   Anisotropy =   164.2918

     33  C    Isotropic =    12.8886   Anisotropy =   139.3833

     34  C    Isotropic =    71.4779   Anisotropy =   155.5814

     35  H    Isotropic =    25.2730   Anisotropy =     8.1581

     36  C    Isotropic =    47.0403   Anisotropy =   185.0704

     37  H    Isotropic =    24.3877   Anisotropy =     4.2494

     38  C    Isotropic =    59.9222   Anisotropy =   169.2172

     39  H    Isotropic =    24.7548   Anisotropy =     4.6245

     40  C    Isotropic =    37.3619   Anisotropy =   180.2195

     41  H    Isotropic =    23.7220   Anisotropy =     7.6959

     42  O    Isotropic =   209.4270   Anisotropy =    98.7557

     43  C    Isotropic =   127.0367   Anisotropy =    77.0195

     44  H    Isotropic =    28.7295   Anisotropy =     9.3718

     45  H    Isotropic =    28.1410   Anisotropy =     8.4060

     46  H    Isotropic =    28.3168   Anisotropy =     9.7179

     47  C    Isotropic =    46.0992   Anisotropy =   167.6258

     48  C    Isotropic =    16.4558   Anisotropy =   134.0940

     49  C    Isotropic =    71.4737   Anisotropy =   155.8106

     50  H    Isotropic =    25.2641   Anisotropy =     7.9129

     51  C    Isotropic =    51.6996   Anisotropy =   177.3313

     52  H    Isotropic =    24.5900   Anisotropy =     4.2353

     53  C    Isotropic =    60.0598   Anisotropy =   168.0161

     54  H    Isotropic =    24.7797   Anisotropy =     5.8638

     55  C    Isotropic =    48.8250   Anisotropy =   180.9270

     56  H    Isotropic =    24.0221   Anisotropy =    10.9941

     57  O    Isotropic =   213.3283   Anisotropy =   108.5992

     58  C    Isotropic =   127.2695   Anisotropy =    76.7695

     59  H    Isotropic =    28.8181   Anisotropy =     9.0135

     60  H    Isotropic =    28.2444   Anisotropy =     8.5053

     61  H    Isotropic =    28.3724   Anisotropy =    10.1238

 The electronic state is 1-A.
 Alpha  occ. eigenvalues --  -77.03787 -77.02745 -19.16129 -19.15379 -10.23713
 Alpha  occ. eigenvalues --  -10.23075 -10.22996 -10.22375 -10.18516 -10.18431
 Alpha  occ. eigenvalues --  -10.17839 -10.17417 -10.17350 -10.17343 -10.17259
 Alpha  occ. eigenvalues --  -10.16964 -10.16957 -10.16934 -10.16798 -10.16699
 Alpha  occ. eigenvalues --  -10.16226 -10.15705 -10.15536 -10.15476 -10.15469
 Alpha  occ. eigenvalues --  -10.15405 -10.15345  -6.52290  -6.51277  -4.68447
 Alpha  occ. eigenvalues --   -4.68415  -4.67920  -4.67442  -4.67371  -4.66903
 Alpha  occ. eigenvalues --   -1.07050  -1.06261  -0.85487  -0.84926  -0.81407
 Alpha  occ. eigenvalues --   -0.79905  -0.77017  -0.75568  -0.75035  -0.74496
 Alpha  occ. eigenvalues --   -0.72101  -0.70054  -0.69409  -0.68738  -0.68410
 Alpha  occ. eigenvalues --   -0.67941  -0.67907  -0.63159  -0.60566  -0.59878
 Alpha  occ. eigenvalues --   -0.59435  -0.58649  -0.55505  -0.54394  -0.53606
 Alpha  occ. eigenvalues --   -0.52012  -0.50365  -0.48720  -0.48172  -0.47882
 Alpha  occ. eigenvalues --   -0.47629  -0.46942  -0.46821  -0.46262  -0.44696
 Alpha  occ. eigenvalues --   -0.44515  -0.44290  -0.43727  -0.43496  -0.43149
 Alpha  occ. eigenvalues --   -0.42524  -0.42263  -0.41706  -0.41210  -0.39916
 Alpha  occ. eigenvalues --   -0.39424  -0.38900  -0.38581  -0.38432  -0.37945
 Alpha  occ. eigenvalues --   -0.37863  -0.37540  -0.36916  -0.36471  -0.36182
 Alpha  occ. eigenvalues --   -0.35817  -0.35399  -0.35237  -0.34051  -0.33621
 Alpha  occ. eigenvalues --   -0.33365  -0.32947  -0.32816  -0.32496  -0.32184
 Alpha  occ. eigenvalues --   -0.31649  -0.29489  -0.27762  -0.26249  -0.25335
 Alpha  occ. eigenvalues --   -0.22874  -0.22807  -0.20628  -0.17604
 Alpha virt. eigenvalues --   -0.02589  -0.01187  -0.00118   0.00366   0.02394
 Alpha virt. eigenvalues --    0.03010   0.03623   0.04079   0.04284   0.04716
 Alpha virt. eigenvalues --    0.05584   0.05900   0.06277   0.06664   0.07681

 Mulliken charges:
               1
     1  P    0.106848
     2  P    0.160704
     3  C   -0.344784
     4  H    0.121507
     5  H    0.083112
     6  C    0.098802
     7  C   -0.376985
     8  H    0.106149
     9  H    0.118798
    10  H    0.122331
    11  C   -0.355391
    12  H    0.109853
    13  H    0.118000
    14  H    0.102135
    15  C   -0.361388
    16  H    0.099610
    17  H    0.114322
    18  H    0.101201
    19  C    0.065638
    20  C   -0.380898
    21  H    0.126846
    22  H    0.104284
    23  H    0.106507
    24  C   -0.340628
    25  H    0.097440
    26  H    0.108684
    27  H    0.107129
    28  C   -0.354686
    29  H    0.114849
    30  H    0.125716
    31  H    0.101532
    32  C   -0.046702
    33  C    0.331272
    34  C   -0.282859
    35  H    0.113042
    36  C   -0.086568
    37  H    0.107333
    38  C   -0.149527
    39  H    0.103154
    40  C   -0.119579
    41  H    0.111546
    42  O   -0.290929
    43  C   -0.205414
    44  H    0.124211
    45  H    0.135133
    46  H    0.120984
    47  C    0.017839
    48  C    0.300449
    49  C   -0.266624
    50  H    0.111887
    51  C   -0.104875
    52  H    0.102984
    53  C   -0.171745
    54  H    0.097078
    55  C   -0.153879
    56  H    0.104523
    57  O   -0.280948
    58  C   -0.203002
    59  H    0.118494
    60  H    0.134501
    61  H    0.120984
 Sum of Mulliken charges =  -0.00000

 Dipole moment (field-independent basis, Debye):
    X=              1.9582    Y=              1.1351    Z=              2.3096  Tot=              3.2338
 Quadrupole moment (field-independent basis, Debye-Ang):
   XX=           -167.1089   YY=           -177.1319   ZZ=           -173.3037
   XY=              2.4557   XZ=             -3.0325   YZ=             -0.5949

 Summary of Natural Population Analysis:

                                       Natural Population
                Natural  -----------------------------------------------
    Atom  No    Charge         Core      Valence    Rydberg      Total
 -----------------------------------------------------------------------
      P    1    0.78669      9.99843     4.18542    0.02947    14.21331
      P    2    0.84661      9.99819     4.12164    0.03356    14.15339
      C    3   -1.02230      1.99943     4.99078    0.03208     7.02230
      H    4    0.24388      0.00000     0.75311    0.00301     0.75612
      H    5    0.23829      0.00000     0.75931    0.00240     0.76171
      C    6   -0.27481      1.99945     4.25074    0.02462     6.27481
      C    7   -0.60325      1.99937     4.59071    0.01317     6.60325
      H    8    0.20218      0.00000     0.79570    0.00212     0.79782
      H    9    0.21524      0.00000     0.78332    0.00143     0.78476
      H   10    0.20586      0.00000     0.79280    0.00134     0.79414
      C   11   -0.59966      1.99937     4.58808    0.01221     6.59966
      H   12    0.20306      0.00000     0.79561    0.00134     0.79694
      H   13    0.21206      0.00000     0.78646    0.00149     0.78794
      H   14    0.19861      0.00000     0.79934    0.00205     0.80139
      C   15   -0.60152      1.99937     4.59000    0.01216     6.60152
      H   16    0.19505      0.00000     0.80259    0.00236     0.80495
      H   17    0.20087      0.00000     0.79771    0.00142     0.79913
      H   18    0.19806      0.00000     0.80045    0.00149     0.80194
      C   19   -0.26992      1.99946     4.24579    0.02467     6.26992
      C   20   -0.60068      1.99937     4.58928    0.01203     6.60068
      H   21    0.21246      0.00000     0.78597    0.00157     0.78754
      H   22    0.19870      0.00000     0.79983    0.00147     0.80130
      H   23    0.20077      0.00000     0.79712    0.00212     0.79923
      C   24   -0.60232      1.99936     4.59076    0.01220     6.60232
      H   25    0.19491      0.00000     0.80274    0.00235     0.80509
      H   26    0.20305      0.00000     0.79555    0.00140     0.79695
      H   27    0.19698      0.00000     0.80156    0.00146     0.80302
      C   28   -0.60239      1.99937     4.59081    0.01221     6.60239
      H   29    0.20205      0.00000     0.79662    0.00133     0.79795
      H   30    0.21698      0.00000     0.78169    0.00133     0.78302
      H   31    0.19996      0.00000     0.79792    0.00212     0.80004
      C   32   -0.36485      1.99889     4.33186    0.03410     6.36485
      C   33    0.29586      1.99865     3.68158    0.02390     5.70414
      C   34   -0.30023      1.99906     4.28224    0.01894     6.30023
      H   35    0.21026      0.00000     0.78796    0.00178     0.78974
      C   36   -0.17692      1.99921     4.15832    0.01939     6.17692
      H   37    0.20652      0.00000     0.79225    0.00123     0.79348
      C   38   -0.24355      1.99917     4.22451    0.01986     6.24355
      H   39    0.20914      0.00000     0.78970    0.00116     0.79086
      C   40   -0.16116      1.99911     4.14090    0.02115     6.16116
      H   41    0.21923      0.00000     0.77919    0.00158     0.78077
      O   42   -0.46531      1.99974     6.43961    0.02595     8.46531
      C   43   -0.24694      1.99927     4.23482    0.01286     6.24694
      H   44    0.17431      0.00000     0.82339    0.00230     0.82569
      H   45    0.19549      0.00000     0.80318    0.00133     0.80451
      H   46    0.16925      0.00000     0.82843    0.00232     0.83075
      C   47   -0.34511      1.99888     4.31442    0.03181     6.34511
      C   48    0.28833      1.99868     3.68888    0.02411     5.71167
      C   49   -0.29280      1.99906     4.27466    0.01908     6.29280
      H   50    0.21092      0.00000     0.78739    0.00168     0.78908
      C   51   -0.19460      1.99920     4.17538    0.02002     6.19460
      H   52    0.20547      0.00000     0.79332    0.00122     0.79453
      C   53   -0.23497      1.99917     4.21620    0.01960     6.23497
      H   54    0.20549      0.00000     0.79326    0.00124     0.79451
      C   55   -0.18814      1.99909     4.16966    0.01939     6.18814
      H   56    0.19592      0.00000     0.80146    0.00262     0.80408
      O   57   -0.45684      1.99975     6.43978    0.01730     8.45684
      C   58   -0.24652      1.99927     4.23365    0.01361     6.24652
      H   59    0.17120      0.00000     0.82646    0.00235     0.82880
      H   60    0.19503      0.00000     0.80360    0.00136     0.80497
      H   61    0.17004      0.00000     0.82764    0.00232     0.82996
 =======================================================================
   * Total *    0.00000     69.97737   147.40310    0.61953   218.00000

 Normal termination of Gaussian 16 at Thu Jan 23 23:30:55 2025.
