 Gaussian 16, Revision B.01,
 Gaussian 16:  ES64L-G16RevB.01 20-Dec-2017

 --------------------------------------------
 # nmr=giao b3lyp/def2TZVP pop=nbo scfcyc=200
 --------------------------------------------

 --------------
 MB-67 SPE NoRh
 --------------
 Symbolic Z-matrix:
 Charge =  0 Multiplicity = 1

                         Standard orientation:
 ---------------------------------------------------------------------
 Center     Atomic      Atomic             Coordinates (Angstroms)
 Number     Number       Type             X           Y           Z
 ---------------------------------------------------------------------
      1         15           0        1.388945   -0.358962   -0.589985
      2          6           0        2.762833   -1.520311   -0.188522
      3          6           0        2.487879   -2.875503    0.027478
      4          6           0        3.520723   -3.773785    0.264276
      5          6           0        4.842465   -3.333844    0.268378
      6          6           0        5.124385   -1.993315    0.035781
      7          6           0        4.092560   -1.087928   -0.193369
      8          1           0        4.327858   -0.046383   -0.364014
      9          1           0        6.149162   -1.645101    0.035509
     10          1           0        5.646769   -4.034909    0.451806
     11          1           0        3.295349   -4.818109    0.441539
     12          1           0        1.469034   -3.241106    0.011861
     13          6           0        2.018980    1.322018   -0.200385
     14          6           0        2.083515    2.284722   -1.208540
     15          6           0        2.560059    3.562564   -0.928291
     16          6           0        2.969149    3.884932    0.359672
     17          6           0        2.903658    2.929143    1.371861
     18          6           0        2.432106    1.652827    1.094889
     19          1           0        2.398516    0.915058    1.888632
     20          1           0        3.223033    3.179225    2.376464
     21          1           0        3.339116    4.878351    0.578654
     22          1           0        2.608646    4.303838   -1.716305
     23          1           0        1.755150    2.037683   -2.210326
     24          6           0       -0.005324   -0.672824    0.624667
     25         15           0       -1.396081   -0.340558   -0.591240
     26          6           0       -2.771285   -1.508536   -0.217940
     27          6           0       -4.098182   -1.073377   -0.163093
     28          6           0       -5.126485   -1.988021    0.046794
     29          6           0       -4.842907   -3.340255    0.200209
     30          6           0       -3.524001   -3.781793    0.134570
     31          6           0       -2.494717   -2.874274   -0.082950
     32          1           0       -1.476993   -3.239407   -0.153127
     33          1           0       -3.296964   -4.834558    0.248100
     34          1           0       -5.644690   -4.048190    0.367252
     35          1           0       -6.150200   -1.638699    0.092575
     36          1           0       -4.335281   -0.023893   -0.272886
     37          6           0       -2.021397    1.336469   -0.173355
     38          6           0       -2.449640    1.640263    1.123745
     39          6           0       -2.912367    2.914127    1.424934
     40          6           0       -2.952786    3.895838    0.436915
     41          6           0       -2.526506    3.600549   -0.852917
     42          6           0       -2.059772    2.325063   -1.157319
     43          1           0       -1.715828    2.101715   -2.159359
     44          1           0       -2.553846    4.362395   -1.621805
     45          1           0       -3.315027    4.887841    0.674173
     46          1           0       -3.243279    3.142515    2.430099
     47          1           0       -2.434290    0.883933    1.899175
     48          1           0       -0.014554   -1.722692    0.913992
     49          1           0       -0.002296   -0.055207    1.521433
 ---------------------------------------------------------------------

 SCF Done:  E(RB3LYP) =  -1648.99753596     A.U. after   14 cycles

      1  P    Isotropic =   236.2634   Anisotropy =   105.1959

      2  C    Isotropic =    27.9845   Anisotropy =   197.8504

      3  C    Isotropic =    50.4087   Anisotropy =   179.9551

      4  C    Isotropic =    50.2284   Anisotropy =   182.2228

      5  C    Isotropic =    53.4756   Anisotropy =   179.3910

      6  C    Isotropic =    49.8307   Anisotropy =   183.4605

      7  C    Isotropic =    50.6265   Anisotropy =   182.4324

      8  H    Isotropic =    25.2365   Anisotropy =    13.5133

      9  H    Isotropic =    24.6211   Anisotropy =     6.5041

     10  H    Isotropic =    24.6077   Anisotropy =     4.2067

     11  H    Isotropic =    24.2568   Anisotropy =     5.9224

     12  H    Isotropic =    23.9392   Anisotropy =    10.6133

     13  C    Isotropic =    36.4851   Anisotropy =   206.4132

     14  C    Isotropic =    39.1894   Anisotropy =   184.2633

     15  C    Isotropic =    50.4962   Anisotropy =   184.5792

     16  C    Isotropic =    48.3957   Anisotropy =   190.6384

     17  C    Isotropic =    48.6237   Anisotropy =   187.0086

     18  C    Isotropic =    40.0309   Anisotropy =   188.8943

     19  H    Isotropic =    24.1230   Anisotropy =    10.1510

     20  H    Isotropic =    24.4341   Anisotropy =     5.4735

     21  H    Isotropic =    24.4407   Anisotropy =     3.8501

     22  H    Isotropic =    24.3989   Anisotropy =     5.0099

     23  H    Isotropic =    23.7645   Anisotropy =     7.8010

     24  C    Isotropic =   144.2982   Anisotropy =    18.1886

     25  P    Isotropic =   237.1446   Anisotropy =   103.8574

     26  C    Isotropic =    28.2894   Anisotropy =   197.5693

     27  C    Isotropic =    50.6020   Anisotropy =   182.3511

     28  C    Isotropic =    49.7602   Anisotropy =   183.4782

     29  C    Isotropic =    53.3696   Anisotropy =   179.7982

     30  C    Isotropic =    50.1737   Anisotropy =   182.4702

     31  C    Isotropic =    49.8246   Anisotropy =   180.0632

     32  H    Isotropic =    23.9052   Anisotropy =    10.5391

     33  H    Isotropic =    24.2417   Anisotropy =     5.9177

     34  H    Isotropic =    24.5876   Anisotropy =     4.2281

     35  H    Isotropic =    24.6013   Anisotropy =     6.5003

     36  H    Isotropic =    25.1745   Anisotropy =    13.4898

     37  C    Isotropic =    36.4967   Anisotropy =   206.3508

     38  C    Isotropic =    40.0044   Anisotropy =   188.6720

     39  C    Isotropic =    48.8295   Anisotropy =   186.8148

     40  C    Isotropic =    48.3674   Anisotropy =   190.7512

     41  C    Isotropic =    50.3044   Anisotropy =   184.9244

     42  C    Isotropic =    39.4460   Anisotropy =   184.1485

     43  H    Isotropic =    23.8159   Anisotropy =     7.7618

     44  H    Isotropic =    24.4261   Anisotropy =     5.0699

     45  H    Isotropic =    24.4406   Anisotropy =     3.8997

     46  H    Isotropic =    24.4279   Anisotropy =     5.4735

     47  H    Isotropic =    24.0918   Anisotropy =    10.1810

     48  H    Isotropic =    29.2636   Anisotropy =     7.0848

     49  H    Isotropic =    28.8373   Anisotropy =     3.4701

 The electronic state is 1-A.
 Alpha  occ. eigenvalues --  -77.04918 -77.04904 -10.18656 -10.18614 -10.18606
 Alpha  occ. eigenvalues --  -10.18416 -10.18413 -10.18406 -10.18366 -10.18360
 Alpha  occ. eigenvalues --  -10.18351 -10.18344 -10.18335 -10.18186 -10.18174
 Alpha  occ. eigenvalues --  -10.18171 -10.18164 -10.17765 -10.17715 -10.17619
 Alpha  occ. eigenvalues --  -10.17585 -10.17486 -10.17439 -10.17376 -10.17335
 Alpha  occ. eigenvalues --  -10.17300 -10.17251  -6.53483  -6.53469  -4.69635
 Alpha  occ. eigenvalues --   -4.69622  -4.69602  -4.69588  -4.69119  -4.69104
 Alpha  occ. eigenvalues --   -0.86622  -0.86525  -0.85712  -0.85669  -0.78001
 Alpha  occ. eigenvalues --   -0.76609  -0.75588  -0.75552  -0.75039  -0.74917
 Alpha  occ. eigenvalues --   -0.74613  -0.74571  -0.72460  -0.64143  -0.62457
 Alpha  occ. eigenvalues --   -0.61397  -0.61320  -0.60795  -0.60554  -0.60176
 Alpha  occ. eigenvalues --   -0.60121  -0.56290  -0.55484  -0.52558  -0.52308
 Alpha  occ. eigenvalues --   -0.50805  -0.50080  -0.46419  -0.46172  -0.46081
 Alpha  occ. eigenvalues --   -0.46028  -0.45512  -0.45360  -0.45212  -0.44885
 Alpha  occ. eigenvalues --   -0.44151  -0.43133  -0.43076  -0.42544  -0.42466
 Alpha  occ. eigenvalues --   -0.42010  -0.40899  -0.39695  -0.38585  -0.37881
 Alpha  occ. eigenvalues --   -0.37675  -0.37387  -0.37215  -0.35649  -0.35473
 Alpha  occ. eigenvalues --   -0.35427  -0.34888  -0.34850  -0.32860  -0.32476
 Alpha  occ. eigenvalues --   -0.32225  -0.27753  -0.27206  -0.26943  -0.26686
 Alpha  occ. eigenvalues --   -0.26395  -0.25787  -0.25746  -0.25433  -0.22068
 Alpha  occ. eigenvalues --   -0.18884
 Alpha virt. eigenvalues --   -0.04172  -0.03145  -0.02795  -0.02349  -0.02028
 Alpha virt. eigenvalues --   -0.01541  -0.01225  -0.00900   0.01713   0.03598
 Alpha virt. eigenvalues --    0.04286   0.04817   0.05238   0.05576   0.06431

 Mulliken charges:
               1
     1  P    0.166183
     2  C    0.044651
     3  C   -0.177992
     4  C   -0.130600
     5  C   -0.103519
     6  C   -0.129737
     7  C   -0.154155
     8  H    0.136813
     9  H    0.106431
    10  H    0.106306
    11  H    0.104357
    12  H    0.115916
    13  C    0.031081
    14  C   -0.141487
    15  C   -0.106195
    16  C   -0.094967
    17  C   -0.099631
    18  C   -0.190586
    19  H    0.124644
    20  H    0.109340
    21  H    0.112126
    22  H    0.110051
    23  H    0.116273
    24  C   -0.374985
    25  P    0.163011
    26  C    0.044038
    27  C   -0.157062
    28  C   -0.127662
    29  C   -0.104067
    30  C   -0.130979
    31  C   -0.187596
    32  H    0.129637
    33  H    0.104546
    34  H    0.106621
    35  H    0.106645
    36  H    0.137919
    37  C    0.041278
    38  C   -0.202062
    39  C   -0.095370
    40  C   -0.097368
    41  C   -0.104776
    42  C   -0.142155
    43  H    0.115780
    44  H    0.109932
    45  H    0.112205
    46  H    0.109406
    47  H    0.125472
    48  H    0.128874
    49  H    0.133412
 Sum of Mulliken charges =  -0.00000

 Dipole moment (field-independent basis, Debye):
    X=             -0.0199    Y=              1.7548    Z=              2.1032  Tot=              2.7392
 Quadrupole moment (field-independent basis, Debye-Ang):
   XX=           -166.2605   YY=           -153.8834   ZZ=           -175.0845
   XY=              0.2939   XZ=             -0.3487   YZ=             -4.2649

 Summary of Natural Population Analysis:

                                       Natural Population
                Natural  -----------------------------------------------
    Atom  No    Charge         Core      Valence    Rydberg      Total
 -----------------------------------------------------------------------
      P    1    0.82696      9.99816     4.14097    0.03391    14.17304
      C    2   -0.31460      1.99899     4.28588    0.02973     6.31460
      C    3   -0.21311      1.99908     4.19411    0.01991     6.21311
      C    4   -0.19587      1.99919     4.17773    0.01896     6.19587
      C    5   -0.21708      1.99919     4.19822    0.01968     6.21708
      C    6   -0.19480      1.99919     4.17670    0.01892     6.19480
      C    7   -0.21184      1.99908     4.19271    0.02004     6.21184
      H    8    0.21368      0.00000     0.78447    0.00185     0.78632
      H    9    0.20716      0.00000     0.79152    0.00132     0.79284
      H   10    0.20736      0.00000     0.79144    0.00120     0.79264
      H   11    0.20724      0.00000     0.79145    0.00131     0.79276
      H   12    0.19764      0.00000     0.80035    0.00202     0.80236
      C   13   -0.33725      1.99901     4.30473    0.03351     6.33725
      C   14   -0.18511      1.99910     4.16535    0.02065     6.18511
      C   15   -0.20571      1.99918     4.18709    0.01943     6.20571
      C   16   -0.19425      1.99919     4.17610    0.01896     6.19425
      C   17   -0.20466      1.99919     4.18643    0.01905     6.20466
      C   18   -0.19163      1.99908     4.17240    0.02015     6.19163
      H   19    0.20896      0.00000     0.78859    0.00245     0.79104
      H   20    0.20873      0.00000     0.78990    0.00138     0.79127
      H   21    0.20894      0.00000     0.78989    0.00117     0.79106
      H   22    0.20995      0.00000     0.78877    0.00127     0.79005
      H   23    0.21898      0.00000     0.77939    0.00163     0.78102
      C   24   -0.98966      1.99944     4.95705    0.03317     6.98966
      P   25    0.82609      9.99816     4.14190    0.03385    14.17391
      C   26   -0.31526      1.99899     4.28660    0.02967     6.31526
      C   27   -0.21214      1.99908     4.19301    0.02005     6.21214
      C   28   -0.19471      1.99919     4.17661    0.01891     6.19471
      C   29   -0.21657      1.99919     4.19773    0.01966     6.21657
      C   30   -0.19619      1.99919     4.17804    0.01896     6.19619
      C   31   -0.21230      1.99908     4.19322    0.01999     6.21230
      H   32    0.19878      0.00000     0.79928    0.00194     0.80122
      H   33    0.20744      0.00000     0.79125    0.00131     0.79256
      H   34    0.20752      0.00000     0.79128    0.00120     0.79248
      H   35    0.20719      0.00000     0.79149    0.00132     0.79281
      H   36    0.21421      0.00000     0.78393    0.00186     0.78579
      C   37   -0.33666      1.99901     4.30425    0.03340     6.33666
      C   38   -0.19279      1.99908     4.17354    0.02016     6.19279
      C   39   -0.20520      1.99919     4.18697    0.01905     6.20520
      C   40   -0.19421      1.99919     4.17608    0.01894     6.19421
      C   41   -0.20526      1.99918     4.18667    0.01940     6.20526
      C   42   -0.18475      1.99910     4.16501    0.02064     6.18475
      H   43    0.21884      0.00000     0.77953    0.00163     0.78116
      H   44    0.20990      0.00000     0.78883    0.00127     0.79010
      H   45    0.20895      0.00000     0.78988    0.00117     0.79105
      H   46    0.20855      0.00000     0.79008    0.00138     0.79145
      H   47    0.20907      0.00000     0.78850    0.00243     0.79093
      H   48    0.24802      0.00000     0.75017    0.00181     0.75198
      H   49    0.24145      0.00000     0.75617    0.00238     0.75855
 =======================================================================
   * Total *    0.00000     69.97470   131.37124    0.65407   202.00000

 Normal termination of Gaussian 16 at Thu Jan 23 23:46:56 2025.
