 Gaussian 16, Revision B.01,
 Gaussian 16:  ES64L-G16RevB.01 20-Dec-2017

 --------------------------------------------
 # nmr=giao b3lyp/def2TZVP pop=nbo scfcyc=200
 --------------------------------------------

 --------------
 MB-66 SPE NoRh
 --------------
 Symbolic Z-matrix:
 Charge =  0 Multiplicity = 1

                         Standard orientation:
 ---------------------------------------------------------------------
 Center     Atomic      Atomic             Coordinates (Angstroms)
 Number     Number       Type             X           Y           Z
 ---------------------------------------------------------------------
      1         15           0        1.527567    0.065930   -0.811494
      2         15           0       -1.245961   -0.011107   -0.822632
      3          6           0        0.117300    0.872896    0.108608
      4          6           0        4.686028   -1.893165    0.426666
      5          6           0        2.806962    3.863568   -0.875523
      6          6           0       -4.073181   -2.440164    0.559338
      7          6           0       -4.848425    1.521177   -0.106603
      8          1           0        0.135554    1.942520   -0.101287
      9          1           0        0.114120    0.740401    1.191163
     10          1           0        4.692966   -2.326958    1.438802
     11          1           0        4.955025   -0.841788    0.541167
     12          1           0        3.758269    4.086927   -1.385812
     13          1           0        2.033563    3.845008   -1.645481
     14          1           0       -3.890607   -2.943452    1.520121
     15          1           0       -4.492448   -1.462068    0.799875
     16          1           0       -5.256873    2.222201   -0.851319
     17          1           0       -5.050238    0.517635   -0.485850
     18          6           0        2.758539    1.452278   -1.224046
     19          1           0        2.400468    1.842633   -2.176522
     20          1           0        3.713727    0.948796   -1.428947
     21          6           0        2.386454   -1.039912    0.451982
     22          1           0        1.596673   -1.565048    1.001470
     23          1           0        2.876835   -0.383282    1.170818
     24          6           0       -1.969678   -1.198417    0.439346
     25          1           0       -2.555078   -0.556325    1.101252
     26          1           0       -1.140411   -1.610376    1.029578
     27          6           0       -2.669381    1.189682   -1.157163
     28          1           0       -3.337610    0.624097   -1.808562
     29          1           0       -2.246732    1.995302   -1.769711
     30          6           0       -5.098204   -3.230606   -0.244216
     31          1           0       -6.039949   -3.275277    0.306137
     32          1           0       -5.288348   -2.755843   -1.208607
     33          1           0       -4.782900   -4.258726   -0.426552
     34          6           0       -5.583909    1.701653    1.216066
     35          1           0       -5.522657    2.724075    1.591850
     36          1           0       -6.641795    1.472804    1.078685
     37          1           0       -5.185958    1.032672    1.981688
     38          6           0        2.488288    4.987048    0.103830
     39          1           0        3.266058    5.110820    0.857647
     40          1           0        2.410784    5.931048   -0.438596
     41          1           0        1.541093    4.805282    0.615909
     42          6           0        5.748700   -2.573534   -0.427957
     43          1           0        5.756717   -2.163228   -1.438774
     44          1           0        6.733328   -2.412113    0.014881
     45          1           0        5.598788   -3.652258   -0.496284
     46          6           0       -2.906887    2.927286    0.557757
     47          1           0       -1.822349    2.856958    0.654739
     48          1           0       -3.286944    3.020944    1.575466
     49          6           0       -3.269638    4.185598   -0.240333
     50          1           0       -2.825999    5.063123    0.233690
     51          1           0       -2.901461    4.144914   -1.267237
     52          1           0       -4.348067    4.345639   -0.278365
     53          6           0       -2.095141   -3.405101   -0.594167
     54          1           0       -1.215700   -3.070473   -1.149890
     55          1           0       -2.718975   -3.944649   -1.309536
     56          6           0       -1.663928   -4.364650    0.522560
     57          1           0       -1.086380   -5.188751    0.097709
     58          1           0       -1.037013   -3.875983    1.271209
     59          1           0       -2.520077   -4.800568    1.038635
     60          6           0        2.803955   -3.276336   -0.426872
     61          1           0        1.828267   -3.142957   -0.899873
     62          1           0        3.437221   -3.763862   -1.169544
     63          6           0        2.660965   -4.191295    0.796001
     64          1           0        2.037247   -3.747225    1.573963
     65          1           0        2.195406   -5.133087    0.499695
     66          1           0        3.628143   -4.430663    1.240107
     67          6           0        3.902759    2.368273    0.760401
     68          1           0        4.424886    1.423701    0.584462
     69          1           0        4.658121    3.150239    0.624058
     70          6           0        3.394962    2.398143    2.201263
     71          1           0        2.676055    1.597725    2.386488
     72          1           0        4.227108    2.273038    2.897851
     73          1           0        2.901401    3.341961    2.431877
     74          7           0        2.849597    2.524624   -0.259986
     75          7           0        3.343200   -1.932256   -0.174108
     76          7           0       -3.385482    1.646950    0.012438
     77          7           0       -2.819685   -2.197088   -0.176054
 ---------------------------------------------------------------------

 SCF Done:  E(RB3LYP) =  -1732.42227246     A.U. after   14 cycles

      1  P    Isotropic =   247.0437   Anisotropy =   147.4098

      2  P    Isotropic =   266.2760   Anisotropy =    95.8190

      3  C    Isotropic =   169.1295   Anisotropy =    20.5505

      4  C    Isotropic =   130.7495   Anisotropy =    54.1301

      5  C    Isotropic =   121.0441   Anisotropy =    64.4731

      6  C    Isotropic =   131.0639   Anisotropy =    54.9451

      7  C    Isotropic =   130.9841   Anisotropy =    56.1384

      8  H    Isotropic =    30.7475   Anisotropy =     7.7587

      9  H    Isotropic =    30.9017   Anisotropy =     3.5586

     10  H    Isotropic =    28.9260   Anisotropy =     6.3066

     11  H    Isotropic =    29.5269   Anisotropy =     5.9918

     12  H    Isotropic =    29.2359   Anisotropy =     7.7272

     13  H    Isotropic =    29.5442   Anisotropy =     6.0566

     14  H    Isotropic =    28.9892   Anisotropy =     6.1537

     15  H    Isotropic =    29.7028   Anisotropy =     7.0158

     16  H    Isotropic =    29.0383   Anisotropy =     7.2886

     17  H    Isotropic =    29.7898   Anisotropy =     5.7505

     18  C    Isotropic =   122.7241   Anisotropy =    74.6048

     19  H    Isotropic =    28.8586   Anisotropy =     6.0528

     20  H    Isotropic =    29.0847   Anisotropy =     4.9962

     21  C    Isotropic =   130.8292   Anisotropy =    80.1171

     22  H    Isotropic =    29.3769   Anisotropy =     7.5186

     23  H    Isotropic =    28.7019   Anisotropy =     6.8989

     24  C    Isotropic =   132.3798   Anisotropy =    87.7183

     25  H    Isotropic =    28.3180   Anisotropy =     5.8337

     26  H    Isotropic =    29.3777   Anisotropy =     7.7075

     27  C    Isotropic =   126.4782   Anisotropy =    66.9257

     28  H    Isotropic =    29.3952   Anisotropy =     3.9908

     29  H    Isotropic =    28.5729   Anisotropy =     5.2367

     30  C    Isotropic =   168.5373   Anisotropy =    25.6513

     31  H    Isotropic =    31.0353   Anisotropy =    10.7356

     32  H    Isotropic =    31.0553   Anisotropy =     7.4169

     33  H    Isotropic =    30.7719   Anisotropy =     7.8992

     34  C    Isotropic =   169.0865   Anisotropy =    23.1808

     35  H    Isotropic =    30.7825   Anisotropy =     7.7585

     36  H    Isotropic =    31.0149   Anisotropy =    10.8511

     37  H    Isotropic =    30.9092   Anisotropy =     6.4555

     38  C    Isotropic =   165.5255   Anisotropy =    23.5693

     39  H    Isotropic =    30.9260   Anisotropy =     6.6337

     40  H    Isotropic =    30.9631   Anisotropy =    10.9435

     41  H    Isotropic =    30.8210   Anisotropy =     6.2284

     42  C    Isotropic =   168.4642   Anisotropy =    25.5966

     43  H    Isotropic =    30.9547   Anisotropy =     7.7147

     44  H    Isotropic =    31.0149   Anisotropy =    10.9105

     45  H    Isotropic =    30.7718   Anisotropy =     7.7024

     46  C    Isotropic =   137.5962   Anisotropy =    46.5035

     47  H    Isotropic =    29.1163   Anisotropy =     8.4390

     48  H    Isotropic =    28.9863   Anisotropy =     5.5880

     49  C    Isotropic =   180.2394   Anisotropy =    10.5317

     50  H    Isotropic =    31.6352   Anisotropy =    10.5016

     51  H    Isotropic =    30.8145   Anisotropy =     6.9493

     52  H    Isotropic =    30.9239   Anisotropy =     8.8934

     53  C    Isotropic =   138.7589   Anisotropy =    43.7702

     54  H    Isotropic =    28.7215   Anisotropy =     5.6010

     55  H    Isotropic =    28.9326   Anisotropy =     7.1653

     56  C    Isotropic =   180.5363   Anisotropy =     8.7234

     57  H    Isotropic =    31.5870   Anisotropy =     9.9019

     58  H    Isotropic =    30.7735   Anisotropy =     7.1565

     59  H    Isotropic =    30.9497   Anisotropy =     8.5266

     60  C    Isotropic =   138.2097   Anisotropy =    44.5445

     61  H    Isotropic =    28.9620   Anisotropy =     6.3117

     62  H    Isotropic =    28.9532   Anisotropy =     7.0947

     63  C    Isotropic =   179.9369   Anisotropy =     9.2322

     64  H    Isotropic =    30.8580   Anisotropy =     6.4256

     65  H    Isotropic =    31.5648   Anisotropy =     9.9702

     66  H    Isotropic =    30.9155   Anisotropy =     8.5568

     67  C    Isotropic =   125.7408   Anisotropy =    66.1309

     68  H    Isotropic =    29.5432   Anisotropy =     5.2722

     69  H    Isotropic =    29.4329   Anisotropy =     6.7634

     70  C    Isotropic =   163.2578   Anisotropy =    30.5708

     71  H    Isotropic =    30.7452   Anisotropy =     5.3403

     72  H    Isotropic =    31.1185   Anisotropy =    11.0050

     73  H    Isotropic =    30.9344   Anisotropy =     5.9857

     74  N    Isotropic =   195.4108   Anisotropy =    27.2885

     75  N    Isotropic =   206.8010   Anisotropy =    67.1693

     76  N    Isotropic =   209.1458   Anisotropy =    57.3568

     77  N    Isotropic =   205.4824   Anisotropy =    67.2766

 The electronic state is 1-A.
 Alpha  occ. eigenvalues --  -77.02252 -77.02106 -14.30514 -14.30291 -14.30029
 Alpha  occ. eigenvalues --  -14.30006 -10.19596 -10.19556 -10.19284 -10.19127
 Alpha  occ. eigenvalues --  -10.19061 -10.18927 -10.18890 -10.18860 -10.18755
 Alpha  occ. eigenvalues --  -10.18491 -10.18413 -10.18277 -10.16660 -10.16219
 Alpha  occ. eigenvalues --  -10.16025 -10.15923 -10.15906 -10.15900 -10.15729
 Alpha  occ. eigenvalues --  -10.15689 -10.15544  -6.50865  -6.50714  -4.67034
 Alpha  occ. eigenvalues --   -4.66951  -4.66880  -4.66800  -4.66481  -4.66340
 Alpha  occ. eigenvalues --   -0.91884  -0.91582  -0.91527  -0.91157  -0.76296
 Alpha  occ. eigenvalues --   -0.76145  -0.75872  -0.75698  -0.75481  -0.74950
 Alpha  occ. eigenvalues --   -0.74225  -0.73750  -0.72209  -0.68197  -0.66180
 Alpha  occ. eigenvalues --   -0.65770  -0.65541  -0.63676  -0.63553  -0.63265
 Alpha  occ. eigenvalues --   -0.63125  -0.57746  -0.56758  -0.56127  -0.55867
 Alpha  occ. eigenvalues --   -0.52302  -0.51674  -0.49151  -0.48863  -0.48478
 Alpha  occ. eigenvalues --   -0.48467  -0.48070  -0.47872  -0.47633  -0.47268
 Alpha  occ. eigenvalues --   -0.45293  -0.44497  -0.44203  -0.43804  -0.43029
 Alpha  occ. eigenvalues --   -0.42373  -0.42198  -0.41855  -0.41679  -0.41429
 Alpha  occ. eigenvalues --   -0.41264  -0.40943  -0.40482  -0.40190  -0.39308
 Alpha  occ. eigenvalues --   -0.39085  -0.38886  -0.38634  -0.38419  -0.38202
 Alpha  occ. eigenvalues --   -0.38077  -0.37631  -0.37191  -0.36684  -0.36516
 Alpha  occ. eigenvalues --   -0.36058  -0.35890  -0.35777  -0.35488  -0.35108
 Alpha  occ. eigenvalues --   -0.34759  -0.34313  -0.34160  -0.33927  -0.33842
 Alpha  occ. eigenvalues --   -0.33615  -0.33603  -0.33497  -0.32336  -0.31723
 Alpha  occ. eigenvalues --   -0.29553  -0.22585  -0.22031  -0.20392  -0.20026
 Alpha  occ. eigenvalues --   -0.19891  -0.16376
 Alpha virt. eigenvalues --    0.01259   0.01743   0.02315   0.02910   0.03820
 Alpha virt. eigenvalues --    0.04281   0.04414   0.04856   0.05101   0.05497
 Alpha virt. eigenvalues --    0.06276   0.06571   0.06720   0.06918   0.07126

 Mulliken charges:
               1
     1  P    0.210328
     2  P    0.192844
     3  C   -0.379512
     4  C   -0.105617
     5  C   -0.110709
     6  C   -0.117396
     7  C   -0.117416
     8  H    0.124078
     9  H    0.112337
    10  H    0.080582
    11  H    0.095907
    12  H    0.075288
    13  H    0.094888
    14  H    0.079439
    15  H    0.110866
    16  H    0.083808
    17  H    0.114059
    18  C   -0.261011
    19  H    0.121319
    20  H    0.110959
    21  C   -0.265991
    22  H    0.098876
    23  H    0.114937
    24  C   -0.210121
    25  H    0.117902
    26  H    0.085660
    27  C   -0.220117
    28  H    0.116651
    29  H    0.092462
    30  C   -0.344046
    31  H    0.106400
    32  H    0.108799
    33  H    0.111829
    34  C   -0.356741
    35  H    0.113746
    36  H    0.110679
    37  H    0.110993
    38  C   -0.332672
    39  H    0.111590
    40  H    0.109263
    41  H    0.106778
    42  C   -0.346624
    43  H    0.112125
    44  H    0.106787
    45  H    0.112048
    46  C   -0.148161
    47  H    0.101397
    48  H    0.108352
    49  C   -0.340534
    50  H    0.108060
    51  H    0.105192
    52  H    0.110039
    53  C   -0.159607
    54  H    0.122843
    55  H    0.106932
    56  C   -0.349813
    57  H    0.108183
    58  H    0.103159
    59  H    0.112005
    60  C   -0.169163
    61  H    0.126771
    62  H    0.108773
    63  C   -0.344778
    64  H    0.104035
    65  H    0.110135
    66  H    0.112101
    67  C   -0.122353
    68  H    0.088945
    69  H    0.086047
    70  C   -0.310943
    71  H    0.103787
    72  H    0.098803
    73  H    0.109499
    74  N   -0.142314
    75  N   -0.123716
    76  N   -0.159390
    77  N   -0.150539
 Sum of Mulliken charges =  -0.00000

 Dipole moment (field-independent basis, Debye):
    X=              0.3099    Y=              1.1447    Z=              1.9538  Tot=              2.2855
 Quadrupole moment (field-independent basis, Debye-Ang):
   XX=           -182.3389   YY=           -183.6503   ZZ=           -199.6573
   XY=              0.3818   XZ=              1.0573   YZ=             -3.0390

 Summary of Natural Population Analysis:

                                       Natural Population
                Natural  -----------------------------------------------
    Atom  No    Charge         Core      Valence    Rydberg      Total
 -----------------------------------------------------------------------
      P    1    0.76397      9.99877     4.20050    0.03676    14.23603
      P    2    0.76033      9.99876     4.20401    0.03691    14.23967
      C    3   -1.03540      1.99947     5.00318    0.03274     7.03540
      C    4   -0.19764      1.99937     4.18337    0.01490     6.19764
      C    5   -0.19574      1.99938     4.18007    0.01629     6.19574
      C    6   -0.20061      1.99937     4.18616    0.01508     6.20061
      C    7   -0.20243      1.99938     4.18782    0.01524     6.20243
      H    8    0.24936      0.00000     0.74761    0.00303     0.75064
      H    9    0.22992      0.00000     0.76659    0.00349     0.77008
      H   10    0.15371      0.00000     0.84236    0.00392     0.84629
      H   11    0.18344      0.00000     0.81454    0.00202     0.81656
      H   12    0.15093      0.00000     0.84448    0.00459     0.84907
      H   13    0.18774      0.00000     0.81037    0.00189     0.81226
      H   14    0.15325      0.00000     0.84278    0.00397     0.84675
      H   15    0.18912      0.00000     0.80879    0.00210     0.81088
      H   16    0.15368      0.00000     0.84226    0.00406     0.84632
      H   17    0.18877      0.00000     0.80896    0.00227     0.81123
      C   18   -0.48145      1.99935     4.45771    0.02440     6.48145
      H   19    0.21222      0.00000     0.78600    0.00177     0.78778
      H   20    0.19280      0.00000     0.80271    0.00449     0.80720
      C   21   -0.49414      1.99934     4.46928    0.02552     6.49414
      H   22    0.18784      0.00000     0.80801    0.00415     0.81216
      H   23    0.19722      0.00000     0.79902    0.00376     0.80278
      C   24   -0.49948      1.99934     4.47463    0.02551     6.49948
      H   25    0.21789      0.00000     0.77677    0.00533     0.78211
      H   26    0.17741      0.00000     0.81787    0.00472     0.82259
      C   27   -0.49186      1.99935     4.46780    0.02472     6.49186
      H   28    0.22162      0.00000     0.77628    0.00210     0.77838
      H   29    0.18758      0.00000     0.80875    0.00367     0.81242
      C   30   -0.60092      1.99946     4.59055    0.01091     6.60092
      H   31    0.20570      0.00000     0.79337    0.00093     0.79430
      H   32    0.20497      0.00000     0.79330    0.00173     0.79503
      H   33    0.19693      0.00000     0.80179    0.00129     0.80307
      C   34   -0.60280      1.99946     4.59215    0.01119     6.60280
      H   35    0.19694      0.00000     0.80178    0.00127     0.80306
      H   36    0.20780      0.00000     0.79129    0.00091     0.79220
      H   37    0.20346      0.00000     0.79484    0.00170     0.79654
      C   38   -0.59928      1.99946     4.58876    0.01106     6.59928
      H   39    0.19731      0.00000     0.80136    0.00133     0.80269
      H   40    0.20687      0.00000     0.79219    0.00094     0.79313
      H   41    0.20221      0.00000     0.79605    0.00175     0.79779
      C   42   -0.60078      1.99946     4.59032    0.01100     6.60078
      H   43    0.20691      0.00000     0.79140    0.00170     0.79309
      H   44    0.20607      0.00000     0.79300    0.00093     0.79393
      H   45    0.19724      0.00000     0.80148    0.00128     0.80276
      C   46   -0.20850      1.99936     4.19229    0.01684     6.20850
      H   47    0.19084      0.00000     0.80677    0.00240     0.80916
      H   48    0.18938      0.00000     0.80882    0.00179     0.81062
      C   49   -0.62052      1.99946     4.61429    0.00677     6.62052
      H   50    0.20659      0.00000     0.79209    0.00132     0.79341
      H   51    0.19800      0.00000     0.80057    0.00143     0.80200
      H   52    0.19736      0.00000     0.80123    0.00141     0.80264
      C   53   -0.21551      1.99937     4.19835    0.01780     6.21551
      H   54    0.20504      0.00000     0.79256    0.00240     0.79496
      H   55    0.18898      0.00000     0.80933    0.00169     0.81102
      C   56   -0.62056      1.99946     4.61428    0.00681     6.62056
      H   57    0.20735      0.00000     0.79128    0.00137     0.79265
      H   58    0.19590      0.00000     0.80255    0.00155     0.80410
      H   59    0.19563      0.00000     0.80288    0.00148     0.80437
      C   60   -0.21211      1.99937     4.19513    0.01762     6.21211
      H   61    0.20195      0.00000     0.79575    0.00230     0.79805
      H   62    0.19040      0.00000     0.80792    0.00168     0.80960
      C   63   -0.62047      1.99946     4.61425    0.00676     6.62047
      H   64    0.19652      0.00000     0.80194    0.00154     0.80348
      H   65    0.20811      0.00000     0.79048    0.00141     0.79189
      H   66    0.19586      0.00000     0.80267    0.00148     0.80414
      C   67   -0.21149      1.99939     4.19599    0.01611     6.21149
      H   68    0.18075      0.00000     0.81608    0.00317     0.81925
      H   69    0.17188      0.00000     0.82439    0.00373     0.82812
      C   70   -0.59208      1.99946     4.58185    0.01077     6.59208
      H   71    0.19927      0.00000     0.79922    0.00152     0.80073
      H   72    0.19910      0.00000     0.79971    0.00119     0.80090
      H   73    0.20210      0.00000     0.79658    0.00132     0.79790
      N   74   -0.45922      1.99947     5.42392    0.03583     7.45922
      N   75   -0.44674      1.99951     5.41197    0.03525     7.44674
      N   76   -0.45841      1.99951     5.42444    0.03445     7.45841
      N   77   -0.44404      1.99952     5.41008    0.03445     7.44404
 =======================================================================
   * Total *   -0.00000     69.98307   163.35198    0.66495   234.00000

 Normal termination of Gaussian 16 at Thu Jan 23 23:49:42 2025.
