 Gaussian 16, Revision B.01,
 Gaussian 16:  ES64L-G16RevB.01 20-Dec-2017

 --------------------------------------------
 # nmr=giao b3lyp/def2TZVP pop=nbo scfcyc=200
 --------------------------------------------

 --------------
 MB-61 SPE NoRh
 --------------
 Symbolic Z-matrix:
 Charge =  0 Multiplicity = 1

                         Standard orientation:
 ---------------------------------------------------------------------
 Center     Atomic      Atomic             Coordinates (Angstroms)
 Number     Number       Type             X           Y           Z
 ---------------------------------------------------------------------
      1         15           0       -2.314166   -1.168914   -0.581895
      2         15           0        0.319532   -0.278454   -0.623548
      3          6           0       -0.961777   -0.847154    0.661329
      4          1           0       -1.176352   -0.053541    1.372600
      5          1           0       -0.686415   -1.748286    1.196194
      6          6           0       -3.982522   -0.524305    0.021865
      7          6           0       -4.925430   -0.016025   -1.059295
      8          1           0       -5.963353   -0.113169   -0.726126
      9          1           0       -4.832328   -0.543480   -2.006486
     10          1           0       -4.735549    1.041345   -1.250847
     11          6           0       -4.030764    0.357719    1.256180
     12          1           0       -5.035723    0.326806    1.687225
     13          1           0       -3.819642    1.394668    0.989515
     14          1           0       -3.334337    0.066402    2.038850
     15          6           0       -3.802153   -2.038158    0.188060
     16          6           0       -3.642109   -2.616518    1.584590
     17          1           0       -4.622055   -2.692086    2.066056
     18          1           0       -3.002812   -2.025810    2.237067
     19          1           0       -3.225709   -3.624004    1.529558
     20          6           0       -4.588546   -2.976756   -0.715314
     21          1           0       -4.636580   -2.649016   -1.751381
     22          1           0       -5.615595   -3.067202   -0.349299
     23          1           0       -4.143926   -3.972849   -0.698989
     24          6           0        0.342255    1.534117   -0.185033
     25          6           0        0.806007    1.926367    1.097501
     26          6           0        0.731564    3.269468    1.458518
     27          1           0        1.085955    3.558568    2.441998
     28          6           0        0.220021    4.247156    0.608375
     29          6           0       -0.225437    3.840928   -0.641927
     30          1           0       -0.630196    4.580309   -1.322728
     31          6           0       -0.171561    2.508565   -1.064268
     32          6           0        2.023363   -0.985268   -0.353762
     33          6           0        3.154901   -0.235354   -0.756793
     34          6           0        4.427551   -0.765906   -0.546081
     35          1           0        5.285328   -0.177710   -0.852359
     36          6           0        4.634268   -2.021785    0.014626
     37          6           0        3.507529   -2.780927    0.305976
     38          1           0        3.634916   -3.792388    0.676777
     39          6           0        2.209717   -2.306368    0.116565
     40          6           0        1.430644    0.986263    2.104115
     41          1           0        2.459114    0.739744    1.829459
     42          1           0        1.456661    1.456810    3.086591
     43          1           0        0.900604    0.040807    2.207256
     44          6           0        3.093810    1.110680   -1.443736
     45          1           0        2.289909    1.170899   -2.177582
     46          1           0        2.949694    1.932107   -0.741002
     47          1           0        4.029478    1.290260   -1.972857
     48          6           0        1.093193   -3.288154    0.392491
     49          1           0        0.713829   -3.206279    1.414897
     50          1           0        0.255177   -3.174730   -0.296250
     51          1           0        1.468432   -4.305129    0.283333
     52          6           0        6.021680   -2.544246    0.274657
     53          1           0        6.739868   -2.143786   -0.441879
     54          1           0        6.361158   -2.254409    1.272971
     55          1           0        6.054869   -3.632766    0.221075
     56          6           0       -0.631916    2.235226   -2.474746
     57          1           0        0.217313    2.210164   -3.163405
     58          1           0       -1.157048    1.281696   -2.577816
     59          1           0       -1.298331    3.027439   -2.815385
     60          6           0        0.171502    5.690844    1.030442
     61          1           0       -0.205837    5.793841    2.050061
     62          1           0        1.170395    6.133629    1.008965
     63          1           0       -0.466153    6.279215    0.369581
 ---------------------------------------------------------------------

 SCF Done:  E(RB3LYP) =  -1657.43202442     A.U. after   14 cycles

      1  P    Isotropic =   430.9455   Anisotropy =   648.7534

      2  P    Isotropic =   269.6551   Anisotropy =    89.6069

      3  C    Isotropic =   154.1233   Anisotropy =    27.5510

      4  H    Isotropic =    30.9405   Anisotropy =     6.8484

      5  H    Isotropic =    28.8500   Anisotropy =     8.3609

      6  C    Isotropic =   139.8251   Anisotropy =    18.9741

      7  C    Isotropic =   158.2881   Anisotropy =    37.9753

      8  H    Isotropic =    30.7150   Anisotropy =    11.3265

      9  H    Isotropic =    30.8730   Anisotropy =     8.6600

     10  H    Isotropic =    30.7007   Anisotropy =     8.5649

     11  C    Isotropic =   162.3307   Anisotropy =    28.8148

     12  H    Isotropic =    30.6332   Anisotropy =    10.6868

     13  H    Isotropic =    31.1934   Anisotropy =     8.3879

     14  H    Isotropic =    31.0883   Anisotropy =     5.4902

     15  C    Isotropic =   140.5026   Anisotropy =    20.7234

     16  C    Isotropic =   161.0396   Anisotropy =    31.5903

     17  H    Isotropic =    30.3979   Anisotropy =    10.8616

     18  H    Isotropic =    30.9177   Anisotropy =     5.9811

     19  H    Isotropic =    30.6069   Anisotropy =     8.9970

     20  C    Isotropic =   158.7197   Anisotropy =    38.4748

     21  H    Isotropic =    30.8746   Anisotropy =     8.8628

     22  H    Isotropic =    30.7049   Anisotropy =    11.2902

     23  H    Isotropic =    30.6363   Anisotropy =     9.5493

     24  C    Isotropic =    38.6548   Anisotropy =   174.9932

     25  C    Isotropic =    28.1049   Anisotropy =   194.9253

     26  C    Isotropic =    48.3381   Anisotropy =   136.8205

     27  H    Isotropic =    24.8072   Anisotropy =     9.6557

     28  C    Isotropic =    36.5377   Anisotropy =   197.3476

     29  C    Isotropic =    48.6088   Anisotropy =   130.1173

     30  H    Isotropic =    24.7391   Anisotropy =     8.6222

     31  C    Isotropic =    31.6296   Anisotropy =   196.0003

     32  C    Isotropic =    36.6300   Anisotropy =   162.7328

     33  C    Isotropic =    38.3079   Anisotropy =   187.2355

     34  C    Isotropic =    48.0984   Anisotropy =   130.7391

     35  H    Isotropic =    25.0602   Anisotropy =     9.5687

     36  C    Isotropic =    41.4215   Anisotropy =   190.3745

     37  C    Isotropic =    47.9381   Anisotropy =   132.1923

     38  H    Isotropic =    24.8966   Anisotropy =     9.4488

     39  C    Isotropic =    38.8405   Anisotropy =   183.8840

     40  C    Isotropic =   157.2716   Anisotropy =    29.6715

     41  H    Isotropic =    30.1047   Anisotropy =     7.4659

     42  H    Isotropic =    30.0708   Anisotropy =     9.0054

     43  H    Isotropic =    29.6988   Anisotropy =     6.1287

     44  C    Isotropic =   158.2453   Anisotropy =    25.3389

     45  H    Isotropic =    30.2620   Anisotropy =     6.1888

     46  H    Isotropic =    30.7300   Anisotropy =     8.6422

     47  H    Isotropic =    30.1937   Anisotropy =     9.5895

     48  C    Isotropic =   155.5020   Anisotropy =    24.9153

     49  H    Isotropic =    29.0861   Anisotropy =     5.0656

     50  H    Isotropic =    29.5022   Anisotropy =     7.6033

     51  H    Isotropic =    29.5792   Anisotropy =     8.3808

     52  C    Isotropic =   160.7654   Anisotropy =    42.4810

     53  H    Isotropic =    29.7770   Anisotropy =     7.7914

     54  H    Isotropic =    29.4858   Anisotropy =     8.7683

     55  H    Isotropic =    29.7866   Anisotropy =     7.7551

     56  C    Isotropic =   158.1528   Anisotropy =    33.0118

     57  H    Isotropic =    29.2943   Anisotropy =     7.3141

     58  H    Isotropic =    28.2655   Anisotropy =     7.1886

     59  H    Isotropic =    29.6829   Anisotropy =     7.5640

     60  C    Isotropic =   160.7745   Anisotropy =    41.8751

     61  H    Isotropic =    29.5620   Anisotropy =     7.8657

     62  H    Isotropic =    29.4013   Anisotropy =     8.9144

     63  H    Isotropic =    29.8663   Anisotropy =     7.4191

 The electronic state is 1-A.
 Alpha  occ. eigenvalues --  -77.04855 -77.02975 -10.18920 -10.18696 -10.18576
 Alpha  occ. eigenvalues --  -10.18525 -10.18232 -10.18218 -10.18119 -10.18039
 Alpha  occ. eigenvalues --  -10.17813 -10.17799 -10.17451 -10.16973 -10.16779
 Alpha  occ. eigenvalues --  -10.16528 -10.16426 -10.16405 -10.16401 -10.16302
 Alpha  occ. eigenvalues --  -10.16257 -10.16100 -10.16050 -10.16049 -10.16047
 Alpha  occ. eigenvalues --  -10.15957 -10.15925  -6.53337  -6.51597  -4.69509
 Alpha  occ. eigenvalues --   -4.69448  -4.68986  -4.67816  -4.67474  -4.67355
 Alpha  occ. eigenvalues --   -0.86425  -0.85868  -0.84126  -0.78954  -0.78228
 Alpha  occ. eigenvalues --   -0.78191  -0.77668  -0.75370  -0.73512  -0.70186
 Alpha  occ. eigenvalues --   -0.70144  -0.70072  -0.68967  -0.68027  -0.67635
 Alpha  occ. eigenvalues --   -0.67547  -0.67409  -0.65757  -0.59562  -0.57516
 Alpha  occ. eigenvalues --   -0.57346  -0.56872  -0.54220  -0.51908  -0.50616
 Alpha  occ. eigenvalues --   -0.48880  -0.48449  -0.47892  -0.47062  -0.46042
 Alpha  occ. eigenvalues --   -0.44792  -0.44340  -0.43763  -0.43206  -0.43045
 Alpha  occ. eigenvalues --   -0.42646  -0.42522  -0.41883  -0.41842  -0.41505
 Alpha  occ. eigenvalues --   -0.41350  -0.40468  -0.40348  -0.40060  -0.39845
 Alpha  occ. eigenvalues --   -0.39771  -0.39470  -0.39347  -0.39157  -0.39077
 Alpha  occ. eigenvalues --   -0.38302  -0.38179  -0.37687  -0.37184  -0.37116
 Alpha  occ. eigenvalues --   -0.36578  -0.36453  -0.35942  -0.34264  -0.33942
 Alpha  occ. eigenvalues --   -0.33701  -0.33417  -0.33070  -0.32736  -0.31236
 Alpha  occ. eigenvalues --   -0.28721  -0.25847  -0.24282  -0.24118  -0.23828
 Alpha  occ. eigenvalues --   -0.23490  -0.22383  -0.18841
 Alpha virt. eigenvalues --   -0.02648  -0.01724  -0.00856  -0.00679   0.00208
 Alpha virt. eigenvalues --    0.02097   0.03412   0.03785   0.04426   0.04605
 Alpha virt. eigenvalues --    0.05145   0.05913   0.06166   0.06403   0.06781

 Mulliken charges:
               1
     1  P   -0.019251
     2  P    0.090602
     3  C   -0.415144
     4  H    0.147579
     5  H    0.144910
     6  C    0.071771
     7  C   -0.341273
     8  H    0.101834
     9  H    0.113416
    10  H    0.108855
    11  C   -0.346660
    12  H    0.104163
    13  H    0.120534
    14  H    0.102359
    15  C    0.095013
    16  C   -0.356361
    17  H    0.104381
    18  H    0.111611
    19  H    0.111752
    20  C   -0.339573
    21  H    0.113272
    22  H    0.102032
    23  H    0.106296
    24  C   -0.179110
    25  C    0.131167
    26  C   -0.333441
    27  H    0.081920
    28  C    0.239296
    29  C   -0.328923
    30  H    0.083672
    31  C    0.249250
    32  C   -0.100990
    33  C    0.135347
    34  C   -0.302694
    35  H    0.083642
    36  C    0.205259
    37  C   -0.302543
    38  H    0.082426
    39  C    0.185530
    40  C   -0.316796
    41  H    0.139221
    42  H    0.112227
    43  H    0.125011
    44  C   -0.346437
    45  H    0.121686
    46  H    0.134405
    47  H    0.113597
    48  C   -0.418309
    49  H    0.120291
    50  H    0.149343
    51  H    0.122411
    52  C   -0.366467
    53  H    0.114677
    54  H    0.120103
    55  H    0.113730
    56  C   -0.362265
    57  H    0.116092
    58  H    0.151187
    59  H    0.107526
    60  C   -0.368423
    61  H    0.118128
    62  H    0.122410
    63  H    0.114728
 Sum of Mulliken charges =  -0.00000

 Dipole moment (field-independent basis, Debye):
    X=             -0.0270    Y=              0.7863    Z=              1.9951  Tot=              2.1446
 Quadrupole moment (field-independent basis, Debye-Ang):
   XX=           -175.3314   YY=           -172.7335   ZZ=           -184.1290
   XY=             -0.4388   XZ=             -0.4208   YZ=             -4.0509

 Summary of Natural Population Analysis:

                                       Natural Population
                Natural  -----------------------------------------------
    Atom  No    Charge         Core      Valence    Rydberg      Total
 -----------------------------------------------------------------------
      P    1    0.63892      9.99845     4.33056    0.03207    14.36108
      P    2    0.79199      9.99812     4.17952    0.03036    14.20801
      C    3   -1.00284      1.99944     4.97337    0.03002     7.00284
      H    4    0.23908      0.00000     0.75807    0.00284     0.76092
      H    5    0.24454      0.00000     0.75329    0.00217     0.75546
      C    6   -0.22499      1.99933     4.19512    0.03054     6.22499
      C    7   -0.59327      1.99936     4.58118    0.01273     6.59327
      H    8    0.19933      0.00000     0.79878    0.00189     0.80067
      H    9    0.21143      0.00000     0.78723    0.00133     0.78857
      H   10    0.20806      0.00000     0.79039    0.00154     0.79194
      C   11   -0.59680      1.99936     4.58504    0.01240     6.59680
      H   12    0.20257      0.00000     0.79542    0.00201     0.79743
      H   13    0.20992      0.00000     0.78852    0.00156     0.79008
      H   14    0.20433      0.00000     0.79431    0.00136     0.79567
      C   15   -0.23648      1.99934     4.20720    0.02994     6.23648
      C   16   -0.59548      1.99936     4.58353    0.01258     6.59548
      H   17    0.20118      0.00000     0.79672    0.00210     0.79882
      H   18    0.20462      0.00000     0.79400    0.00138     0.79538
      H   19    0.20588      0.00000     0.79258    0.00154     0.79412
      C   20   -0.59228      1.99936     4.58025    0.01267     6.59228
      H   21    0.21162      0.00000     0.78708    0.00130     0.78838
      H   22    0.19942      0.00000     0.79864    0.00194     0.80058
      H   23    0.20692      0.00000     0.79151    0.00157     0.79308
      C   24   -0.31594      1.99882     4.28717    0.02996     6.31594
      C   25    0.00473      1.99903     3.97474    0.02149     5.99527
      C   26   -0.21761      1.99899     4.20124    0.01738     6.21761
      H   27    0.19528      0.00000     0.80286    0.00185     0.80472
      C   28    0.00394      1.99909     3.97884    0.01813     5.99606
      C   29   -0.21666      1.99899     4.20245    0.01521     6.21666
      H   30    0.19649      0.00000     0.80128    0.00223     0.80351
      C   31    0.00657      1.99904     3.97352    0.02086     5.99343
      C   32   -0.30828      1.99881     4.28223    0.02725     6.30828
      C   33   -0.00911      1.99905     3.98939    0.02067     6.00911
      C   34   -0.20573      1.99899     4.18986    0.01688     6.20573
      H   35    0.19561      0.00000     0.80258    0.00181     0.80439
      C   36   -0.01483      1.99909     3.99756    0.01818     6.01483
      C   37   -0.20483      1.99899     4.18900    0.01683     6.20483
      H   38    0.19453      0.00000     0.80372    0.00175     0.80547
      C   39   -0.01637      1.99905     3.99726    0.02005     6.01637
      C   40   -0.61885      1.99938     4.60711    0.01236     6.61885
      H   41    0.22543      0.00000     0.77285    0.00172     0.77457
      H   42    0.20829      0.00000     0.79060    0.00111     0.79171
      H   43    0.21502      0.00000     0.78338    0.00160     0.78498
      C   44   -0.61323      1.99939     4.60211    0.01173     6.61323
      H   45    0.21286      0.00000     0.78515    0.00200     0.78714
      H   46    0.22065      0.00000     0.77761    0.00174     0.77935
      H   47    0.20983      0.00000     0.78903    0.00114     0.79017
      C   48   -0.61309      1.99940     4.60125    0.01243     6.61309
      H   49    0.20613      0.00000     0.79238    0.00149     0.79387
      H   50    0.21609      0.00000     0.78227    0.00164     0.78391
      H   51    0.21499      0.00000     0.78394    0.00106     0.78501
      C   52   -0.60628      1.99941     4.59523    0.01164     6.60628
      H   53    0.20987      0.00000     0.78903    0.00110     0.79013
      H   54    0.21261      0.00000     0.78608    0.00131     0.78739
      H   55    0.20938      0.00000     0.78952    0.00111     0.79062
      C   56   -0.61923      1.99939     4.60818    0.01166     6.61923
      H   57    0.21365      0.00000     0.78494    0.00141     0.78635
      H   58    0.23475      0.00000     0.76393    0.00132     0.76525
      H   59    0.20676      0.00000     0.79217    0.00107     0.79324
      C   60   -0.60937      1.99941     4.59809    0.01187     6.60937
      H   61    0.21280      0.00000     0.78607    0.00114     0.78720
      H   62    0.21548      0.00000     0.78328    0.00124     0.78452
      H   63    0.20997      0.00000     0.78898    0.00105     0.79003
 =======================================================================
   * Total *    0.00000     69.97647   145.44922    0.57431   216.00000

 Normal termination of Gaussian 16 at Thu Jan 23 23:33:22 2025.
