 Gaussian 16, Revision B.01,
 Gaussian 16:  ES64L-G16RevB.01 20-Dec-2017

 --------------------------------------------
 # nmr=giao b3lyp/def2TZVP pop=nbo scfcyc=200
 --------------------------------------------

 --------------
 MB-71 SPE NoRh
 --------------
 Symbolic Z-matrix:
 Charge =  0 Multiplicity = 1

                         Standard orientation:
 ---------------------------------------------------------------------
 Center     Atomic      Atomic             Coordinates (Angstroms)
 Number     Number       Type             X           Y           Z
 ---------------------------------------------------------------------
      1         15           0        1.488408   -0.485856   -0.693892
      2          6           0        2.810680   -1.700982   -0.279130
      3          6           0        2.781439   -2.464764    0.891423
      4          6           0        3.806745   -3.362176    1.172773
      5          6           0        4.874368   -3.505188    0.293912
      6          6           0        4.915633   -2.746538   -0.871939
      7          6           0        3.889116   -1.854066   -1.159623
      8          1           0        3.937921   -1.274096   -2.072945
      9          1           0        5.743774   -2.851613   -1.560486
     10          1           0        5.671415   -4.203952    0.514792
     11          1           0        3.770813   -3.947300    2.083708
     12          1           0        1.968636   -2.362730    1.598040
     13          6           0        0.064194   -0.773219    0.480814
     14         15           0       -1.313294   -0.319977   -0.709240
     15          1           0       -0.004086   -1.840434    0.687812
     16          1           0        0.088556   -0.234086    1.428157
     17          6           0       -2.695006   -1.570318   -0.413515
     18          6           0       -2.975270   -1.956384    1.050487
     19          6           0       -4.000810   -1.192493   -1.136790
     20          1           0       -2.285207   -2.457144   -0.913453
     21          6           0       -3.990161   -3.108795    1.116994
     22          1           0       -3.374562   -1.097240    1.594791
     23          1           0       -2.055830   -2.252129    1.559741
     24          6           0       -5.017537   -2.342038   -1.064589
     25          1           0       -4.435223   -0.306032   -0.665331
     26          1           0       -3.810646   -0.929605   -2.180766
     27          6           0       -5.288737   -2.764337    0.381580
     28          1           0       -4.196938   -3.348792    2.162710
     29          1           0       -3.545331   -4.006693    0.673619
     30          1           0       -5.946398   -2.036925   -1.553144
     31          1           0       -4.633647   -3.197438   -1.630497
     32          1           0       -5.969846   -3.618617    0.401824
     33          1           0       -5.799134   -1.950165    0.908472
     34          6           0       -1.808435    1.424608   -0.193581
     35          6           0       -2.579726    2.190342   -1.282890
     36          6           0       -2.511128    1.540710    1.170575
     37          1           0       -0.828618    1.908078   -0.100903
     38          6           0       -2.789477    3.657354   -0.880454
     39          1           0       -3.552937    1.720806   -1.452108
     40          1           0       -2.035175    2.143767   -2.227915
     41          6           0       -2.704005    3.013103    1.562748
     42          1           0       -3.492069    1.060850    1.116816
     43          1           0       -1.946636    1.021026    1.948540
     44          6           0       -3.469924    3.786549    0.485341
     45          1           0       -3.378976    4.164004   -1.648682
     46          1           0       -1.817648    4.163488   -0.851286
     47          1           0       -3.230192    3.067894    2.518693
     48          1           0       -1.724102    3.478276    1.720513
     49          1           0       -3.554675    4.838444    0.765356
     50          1           0       -4.492664    3.399964    0.420339
     51          6           0        2.182877    1.201985   -0.221652
     52          6           0        2.766737    1.247956    1.199608
     53          6           0        3.193674    1.727937   -1.253516
     54          1           0        1.301878    1.852807   -0.261064
     55          6           0        3.237503    2.666135    1.556625
     56          1           0        3.614631    0.559494    1.262392
     57          1           0        2.033698    0.908210    1.935434
     58          6           0        3.666544    3.143265   -0.889469
     59          1           0        4.061910    1.062360   -1.286667
     60          1           0        2.748520    1.729204   -2.251273
     61          6           0        4.237594    3.204283    0.529923
     62          1           0        3.680569    2.659243    2.554431
     63          1           0        2.369639    3.334557    1.605324
     64          1           0        4.412682    3.475043   -1.614953
     65          1           0        2.821294    3.836607   -0.972824
     66          1           0        4.517907    4.229950    0.778928
     67          1           0        5.158660    2.610839    0.576916
 ---------------------------------------------------------------------

 SCF Done:  E(RB3LYP) =  -1659.87355137     A.U. after   14 cycles

      1  P    Isotropic =   236.0362   Anisotropy =   105.1341

      2  C    Isotropic =    33.4488   Anisotropy =   205.0710

      3  C    Isotropic =    47.1139   Anisotropy =   182.6213

      4  C    Isotropic =    50.1824   Anisotropy =   181.8039

      5  C    Isotropic =    52.0035   Anisotropy =   182.3221

      6  C    Isotropic =    50.3769   Anisotropy =   182.4242

      7  C    Isotropic =    46.2986   Anisotropy =   182.7296

      8  H    Isotropic =    24.3460   Anisotropy =    10.5580

      9  H    Isotropic =    24.3657   Anisotropy =     5.5979

     10  H    Isotropic =    24.4963   Anisotropy =     4.2180

     11  H    Isotropic =    24.4019   Anisotropy =     6.4149

     12  H    Isotropic =    24.2893   Anisotropy =    11.8730

     13  C    Isotropic =   166.7555   Anisotropy =    18.4882

     14  P    Isotropic =   233.0243   Anisotropy =    86.8036

     15  H    Isotropic =    30.5745   Anisotropy =     7.3789

     16  H    Isotropic =    29.9149   Anisotropy =     3.0450

     17  C    Isotropic =   135.2012   Anisotropy =    25.3212

     18  C    Isotropic =   148.5176   Anisotropy =    14.0321

     19  C    Isotropic =   149.4255   Anisotropy =     9.5869

     20  H    Isotropic =    30.1904   Anisotropy =     3.6803

     21  C    Isotropic =   150.6903   Anisotropy =     8.6179

     22  H    Isotropic =    30.3760   Anisotropy =     6.5191

     23  H    Isotropic =    29.8874   Anisotropy =     7.4553

     24  C    Isotropic =   150.5980   Anisotropy =     7.6187

     25  H    Isotropic =    30.6710   Anisotropy =     7.3416

     26  H    Isotropic =    29.9110   Anisotropy =     5.7271

     27  C    Isotropic =   152.3955   Anisotropy =     3.0369

     28  H    Isotropic =    30.1460   Anisotropy =     9.5034

     29  H    Isotropic =    30.8147   Anisotropy =     8.0118

     30  H    Isotropic =    30.0999   Anisotropy =     9.8213

     31  H    Isotropic =    30.7093   Anisotropy =     8.4128

     32  H    Isotropic =    30.2193   Anisotropy =    10.6619

     33  H    Isotropic =    30.6551   Anisotropy =     7.5974

     34  C    Isotropic =   134.9066   Anisotropy =    24.5664

     35  C    Isotropic =   146.5379   Anisotropy =    16.8828

     36  C    Isotropic =   147.4056   Anisotropy =    11.3700

     37  H    Isotropic =    30.6258   Anisotropy =     8.9045

     38  C    Isotropic =   150.1892   Anisotropy =     7.0749

     39  H    Isotropic =    30.5210   Anisotropy =     6.3284

     40  H    Isotropic =    29.8103   Anisotropy =     5.9801

     41  C    Isotropic =   150.0914   Anisotropy =     8.4206

     42  H    Isotropic =    30.3786   Anisotropy =     7.8397

     43  H    Isotropic =    29.8193   Anisotropy =     4.8942

     44  C    Isotropic =   152.6705   Anisotropy =     2.8212

     45  H    Isotropic =    30.0733   Anisotropy =    10.0301

     46  H    Isotropic =    30.6034   Anisotropy =     7.5031

     47  H    Isotropic =    30.0658   Anisotropy =     9.3581

     48  H    Isotropic =    30.7752   Anisotropy =     6.9822

     49  H    Isotropic =    30.2344   Anisotropy =    10.4508

     50  H    Isotropic =    30.6690   Anisotropy =     8.2746

     51  C    Isotropic =   138.7285   Anisotropy =    20.9729

     52  C    Isotropic =   151.9258   Anisotropy =     7.1396

     53  C    Isotropic =   148.6685   Anisotropy =    13.5139

     54  H    Isotropic =    30.5119   Anisotropy =     9.1423

     55  C    Isotropic =   151.1866   Anisotropy =     8.3530

     56  H    Isotropic =    31.4277   Anisotropy =     7.4629

     57  H    Isotropic =    30.2115   Anisotropy =     5.7773

     58  C    Isotropic =   150.8157   Anisotropy =     7.0057

     59  H    Isotropic =    30.7133   Anisotropy =     7.2054

     60  H    Isotropic =    29.8164   Anisotropy =     6.5649

     61  C    Isotropic =   153.0258   Anisotropy =     2.8106

     62  H    Isotropic =    30.3240   Anisotropy =     9.6143

     63  H    Isotropic =    30.7701   Anisotropy =     7.3025

     64  H    Isotropic =    30.1259   Anisotropy =    10.2400

     65  H    Isotropic =    30.5650   Anisotropy =     7.4372

     66  H    Isotropic =    30.3647   Anisotropy =    10.7493

     67  H    Isotropic =    30.9263   Anisotropy =     8.3351

 The electronic state is 1-A.
 Alpha  occ. eigenvalues --  -77.03692 -77.03199 -10.17797 -10.17785 -10.17726
 Alpha  occ. eigenvalues --  -10.17626 -10.17502 -10.17466 -10.17453 -10.17410
 Alpha  occ. eigenvalues --  -10.17396 -10.17321 -10.16763 -10.16672 -10.16477
 Alpha  occ. eigenvalues --  -10.16452 -10.16445 -10.16424 -10.16421 -10.16406
 Alpha  occ. eigenvalues --  -10.16374 -10.16345 -10.16336 -10.16334 -10.16312
 Alpha  occ. eigenvalues --  -10.16246 -10.16202  -6.52257  -6.51771  -4.68432
 Alpha  occ. eigenvalues --   -4.68348  -4.67941  -4.67889  -4.67872  -4.67389
 Alpha  occ. eigenvalues --   -0.85639  -0.83638  -0.83215  -0.83007  -0.76952
 Alpha  occ. eigenvalues --   -0.75492  -0.74775  -0.74405  -0.74194  -0.74140
 Alpha  occ. eigenvalues --   -0.73963  -0.73774  -0.71678  -0.63355  -0.62071
 Alpha  occ. eigenvalues --   -0.61258  -0.60951  -0.60735  -0.60580  -0.60345
 Alpha  occ. eigenvalues --   -0.60076  -0.56435  -0.55783  -0.55271  -0.54539
 Alpha  occ. eigenvalues --   -0.52768  -0.50639  -0.48200  -0.47581  -0.46745
 Alpha  occ. eigenvalues --   -0.45323  -0.45081  -0.44859  -0.44464  -0.44317
 Alpha  occ. eigenvalues --   -0.44202  -0.44140  -0.43905  -0.43324  -0.42774
 Alpha  occ. eigenvalues --   -0.42421  -0.42159  -0.41983  -0.40145  -0.38580
 Alpha  occ. eigenvalues --   -0.38231  -0.38114  -0.38104  -0.37871  -0.37625
 Alpha  occ. eigenvalues --   -0.37512  -0.36974  -0.36105  -0.35832  -0.35242
 Alpha  occ. eigenvalues --   -0.35049  -0.34785  -0.34382  -0.34245  -0.34072
 Alpha  occ. eigenvalues --   -0.33960  -0.32844  -0.32205  -0.31827  -0.31419
 Alpha  occ. eigenvalues --   -0.30812  -0.30512  -0.30392  -0.29203  -0.29022
 Alpha  occ. eigenvalues --   -0.27731  -0.26315  -0.25741  -0.21491  -0.17898
 Alpha virt. eigenvalues --   -0.02153  -0.01431   0.01358   0.02281   0.02534
 Alpha virt. eigenvalues --    0.03283   0.03801   0.03903   0.04779   0.05140
 Alpha virt. eigenvalues --    0.05506   0.06068   0.06193   0.06844   0.06913

 Mulliken charges:
               1
     1  P    0.151820
     2  C    0.089197
     3  C   -0.181921
     4  C   -0.121700
     5  C   -0.106270
     6  C   -0.115498
     7  C   -0.183821
     8  H    0.120111
     9  H    0.106989
    10  H    0.106878
    11  H    0.103857
    12  H    0.112915
    13  C   -0.387928
    14  P    0.152396
    15  H    0.125250
    16  H    0.114170
    17  C   -0.081445
    18  C   -0.197570
    19  C   -0.221027
    20  H    0.070792
    21  C   -0.159622
    22  H    0.090596
    23  H    0.089946
    24  C   -0.159628
    25  H    0.078876
    26  H    0.108234
    27  C   -0.156454
    28  H    0.089693
    29  H    0.080891
    30  H    0.091540
    31  H    0.084320
    32  H    0.092269
    33  H    0.074875
    34  C   -0.054671
    35  C   -0.199263
    36  C   -0.223598
    37  H    0.036868
    38  C   -0.168973
    39  H    0.091426
    40  H    0.102293
    41  C   -0.162329
    42  H    0.076654
    43  H    0.102750
    44  C   -0.153870
    45  H    0.093061
    46  H    0.080777
    47  H    0.089506
    48  H    0.082300
    49  H    0.092543
    50  H    0.075612
    51  C   -0.043840
    52  C   -0.218455
    53  C   -0.223948
    54  H    0.047113
    55  C   -0.160674
    56  H    0.109581
    57  H    0.087759
    58  C   -0.167580
    59  H    0.086425
    60  H    0.104106
    61  C   -0.155594
    62  H    0.090244
    63  H    0.078292
    64  H    0.092494
    65  H    0.080206
    66  H    0.091269
    67  H    0.078783
 Sum of Mulliken charges =  -0.00000

 Dipole moment (field-independent basis, Debye):
    X=             -0.5494    Y=              0.5758    Z=              1.9081  Tot=              2.0674
 Quadrupole moment (field-independent basis, Debye-Ang):
   XX=           -177.4758   YY=           -182.5537   ZZ=           -188.6209
   XY=             -0.7561   XZ=             -1.0940   YZ=             -3.6330

 Summary of Natural Population Analysis:

                                       Natural Population
                Natural  -----------------------------------------------
    Atom  No    Charge         Core      Valence    Rydberg      Total
 -----------------------------------------------------------------------
      P    1    0.82583      9.99835     4.14151    0.03431    14.17417
      C    2   -0.32504      1.99901     4.29566    0.03036     6.32504
      C    3   -0.21243      1.99908     4.19292    0.02043     6.21243
      C    4   -0.20094      1.99919     4.18245    0.01930     6.20094
      C    5   -0.21272      1.99919     4.19385    0.01969     6.21272
      C    6   -0.20049      1.99918     4.18228    0.01903     6.20049
      C    7   -0.20533      1.99909     4.18545    0.02080     6.20533
      H    8    0.20969      0.00000     0.78802    0.00229     0.79031
      H    9    0.20750      0.00000     0.79118    0.00133     0.79250
      H   10    0.20711      0.00000     0.79167    0.00123     0.79289
      H   11    0.20564      0.00000     0.79299    0.00137     0.79436
      H   12    0.20081      0.00000     0.79679    0.00240     0.79919
      C   13   -1.02377      1.99946     4.99360    0.03072     7.02377
      P   14    0.80981      9.99855     4.15832    0.03331    14.19019
      H   15    0.24874      0.00000     0.74941    0.00185     0.75126
      H   16    0.22935      0.00000     0.76767    0.00298     0.77065
      C   17   -0.47789      1.99937     4.45400    0.02452     6.47789
      C   18   -0.39299      1.99938     4.37960    0.01400     6.39299
      C   19   -0.39259      1.99938     4.37819    0.01501     6.39259
      H   20    0.20953      0.00000     0.78811    0.00236     0.79047
      C   21   -0.38337      1.99943     4.37037    0.01356     6.38337
      H   22    0.19000      0.00000     0.80786    0.00214     0.81000
      H   23    0.19557      0.00000     0.80236    0.00207     0.80443
      C   24   -0.38097      1.99943     4.36798    0.01357     6.38097
      H   25    0.18505      0.00000     0.81264    0.00231     0.81495
      H   26    0.21217      0.00000     0.78582    0.00201     0.78783
      C   27   -0.38635      1.99943     4.37352    0.01340     6.38635
      H   28    0.20001      0.00000     0.79855    0.00144     0.79999
      H   29    0.18688      0.00000     0.81129    0.00183     0.81312
      H   30    0.20154      0.00000     0.79709    0.00137     0.79846
      H   31    0.18900      0.00000     0.80920    0.00180     0.81100
      H   32    0.20184      0.00000     0.79683    0.00134     0.79816
      H   33    0.18632      0.00000     0.81185    0.00183     0.81368
      C   34   -0.48195      1.99937     4.45654    0.02604     6.48195
      C   35   -0.39280      1.99938     4.37804    0.01538     6.39280
      C   36   -0.39415      1.99938     4.38025    0.01452     6.39415
      H   37    0.20492      0.00000     0.79210    0.00298     0.79508
      C   38   -0.38195      1.99943     4.36889    0.01363     6.38195
      H   39    0.18910      0.00000     0.80862    0.00227     0.81090
      H   40    0.21351      0.00000     0.78454    0.00195     0.78649
      C   41   -0.38389      1.99943     4.37095    0.01352     6.38389
      H   42    0.18633      0.00000     0.81125    0.00242     0.81367
      H   43    0.19762      0.00000     0.80014    0.00224     0.80238
      C   44   -0.38652      1.99942     4.37379    0.01331     6.38652
      H   45    0.20256      0.00000     0.79610    0.00134     0.79744
      H   46    0.18631      0.00000     0.81187    0.00182     0.81369
      H   47    0.19984      0.00000     0.79869    0.00147     0.80016
      H   48    0.18581      0.00000     0.81230    0.00189     0.81419
      H   49    0.20163      0.00000     0.79703    0.00134     0.79837
      H   50    0.18684      0.00000     0.81133    0.00183     0.81316
      C   51   -0.46320      1.99937     4.43814    0.02569     6.46320
      C   52   -0.39732      1.99938     4.38327    0.01467     6.39732
      C   53   -0.39554      1.99938     4.38067    0.01550     6.39554
      H   54    0.20460      0.00000     0.79252    0.00288     0.79540
      C   55   -0.38200      1.99943     4.36911    0.01347     6.38200
      H   56    0.19828      0.00000     0.79924    0.00248     0.80172
      H   57    0.19445      0.00000     0.80312    0.00243     0.80555
      C   58   -0.38069      1.99943     4.36769    0.01357     6.38069
      H   59    0.19233      0.00000     0.80533    0.00234     0.80767
      H   60    0.21181      0.00000     0.78626    0.00192     0.78819
      C   61   -0.38677      1.99942     4.37397    0.01337     6.38677
      H   62    0.20077      0.00000     0.79779    0.00144     0.79923
      H   63    0.18412      0.00000     0.81398    0.00190     0.81588
      H   64    0.20248      0.00000     0.79617    0.00135     0.79752
      H   65    0.18606      0.00000     0.81210    0.00184     0.81394
      H   66    0.20112      0.00000     0.79754    0.00134     0.79888
      H   67    0.18877      0.00000     0.80941    0.00182     0.81123
 =======================================================================
   * Total *    0.00000     69.98031   149.42778    0.59191   220.00000

 Normal termination of Gaussian 16 at Fri Jan 24 00:14:21 2025.
