 Gaussian 16, Revision B.01,
 Gaussian 16:  ES64L-G16RevB.01 20-Dec-2017

 --------------------------------------------
 # nmr=giao b3lyp/def2TZVP pop=nbo scfcyc=200
 --------------------------------------------

 ------------------
 Ligand 49 SPE NoRh
 ------------------
 Symbolic Z-matrix:
 Charge =  0 Multiplicity = 1

                         Standard orientation:
 ---------------------------------------------------------------------
 Center     Atomic      Atomic             Coordinates (Angstroms)
 Number     Number       Type             X           Y           Z
 ---------------------------------------------------------------------
      1         15           0        0.334322    0.765305   -0.922626
      2         15           0       -2.434157    0.164661   -0.891833
      3          6           0        1.829758   -0.309007   -1.116667
      4          6           0        2.652669    0.068998   -2.188092
      5          1           0        2.407107    0.954119   -2.761210
      6          6           0        3.790722   -0.649268   -2.527289
      7          1           0        4.411686   -0.325860   -3.353344
      8          6           0        4.111275   -1.788584   -1.798910
      9          1           0        4.985679   -2.374781   -2.051181
     10          6           0        3.310663   -2.160296   -0.725456
     11          1           0        3.578033   -3.025234   -0.132286
     12          6           0        2.176543   -1.423707   -0.350779
     13          6           0        1.451767   -1.870777    0.874946
     14          6           0        0.859751   -3.138483    0.916503
     15          1           0        0.887120   -3.769506    0.035475
     16          6           0        0.239800   -3.597500    2.074008
     17          1           0       -0.212591   -4.581218    2.087250
     18          6           0        0.213375   -2.800835    3.215079
     19          1           0       -0.258731   -3.162158    4.120482
     20          6           0        0.814595   -1.546750    3.191487
     21          1           0        0.819370   -0.930152    4.082348
     22          6           0        1.429775   -1.084941    2.032420
     23          1           0        1.910863   -0.115458    2.034764
     24          6           0        0.963765    2.286875   -0.080147
     25          6           0        0.186766    3.449606   -0.124351
     26          1           0       -0.746032    3.451339   -0.675480
     27          6           0        0.614914    4.607381    0.513574
     28          1           0        0.003708    5.501561    0.474541
     29          6           0        1.832945    4.623812    1.186893
     30          1           0        2.170665    5.527221    1.676997
     31          6           0        2.621927    3.478568    1.214228
     32          1           0        3.577738    3.489213    1.722929
     33          6           0        2.191053    2.315490    0.584755
     34          1           0        2.826238    1.439228    0.597925
     35          6           0       -0.938723   -0.013327    0.218645
     36          1           0       -1.023803    0.523481    1.162618
     37          1           0       -0.717052   -1.055387    0.444480
     38          6           0       -3.783256    0.947513    0.162329
     39          1           0       -3.822098    0.329775    1.065028
     40          6           0       -3.424470    2.378477    0.574018
     41          1           0       -2.473890    2.438006    1.105433
     42          1           0       -4.194799    2.768310    1.243953
     43          1           0       -3.372134    3.042071   -0.290471
     44          6           0       -5.151966    0.892372   -0.528383
     45          1           0       -5.160056    1.460629   -1.460699
     46          1           0       -5.905692    1.335848    0.125904
     47          1           0       -5.472539   -0.125020   -0.749542
     48          6           0       -3.030329   -1.587622   -1.237282
     49          1           0       -3.905935   -1.436559   -1.876097
     50          6           0       -3.460651   -2.352234    0.018801
     51          1           0       -3.807862   -3.348392   -0.264233
     52          1           0       -4.276958   -1.864014    0.552379
     53          1           0       -2.629937   -2.485400    0.716006
     54          6           0       -1.988643   -2.370320   -2.045379
     55          1           0       -1.094708   -2.579957   -1.453967
     56          1           0       -1.681940   -1.831998   -2.943468
     57          1           0       -2.408069   -3.331841   -2.349372
 ---------------------------------------------------------------------

 SCF Done:  E(RB3LYP) =  -1653.82465703     A.U. after   15 cycles

      1  P    Isotropic =   239.0998   Anisotropy =   117.1811

      2  P    Isotropic =   222.4886   Anisotropy =    94.1510

      3  C    Isotropic =    40.0336   Anisotropy =   187.4675

      4  C    Isotropic =    42.4866   Anisotropy =   183.3921

      5  H    Isotropic =    24.1962   Anisotropy =    10.8079

      6  C    Isotropic =    50.9841   Anisotropy =   181.8174

      7  H    Isotropic =    24.3429   Anisotropy =     4.8438

      8  C    Isotropic =    51.4336   Anisotropy =   181.2683

      9  H    Isotropic =    24.3713   Anisotropy =     4.1989

     10  C    Isotropic =    45.5898   Anisotropy =   165.8514

     11  H    Isotropic =    24.4637   Anisotropy =     9.9062

     12  C    Isotropic =    29.7693   Anisotropy =   187.4863

     13  C    Isotropic =    28.9837   Anisotropy =   200.8434

     14  C    Isotropic =    48.0594   Anisotropy =   173.7014

     15  H    Isotropic =    24.1976   Anisotropy =     6.8034

     16  C    Isotropic =    49.0515   Anisotropy =   187.6303

     17  H    Isotropic =    24.1951   Anisotropy =     4.2074

     18  C    Isotropic =    51.1424   Anisotropy =   186.6493

     19  H    Isotropic =    24.3393   Anisotropy =     3.6539

     20  C    Isotropic =    49.8467   Anisotropy =   186.6562

     21  H    Isotropic =    24.4105   Anisotropy =     5.9217

     22  C    Isotropic =    46.3309   Anisotropy =   183.7955

     23  H    Isotropic =    24.1101   Anisotropy =     7.3699

     24  C    Isotropic =    29.8084   Anisotropy =   204.4316

     25  C    Isotropic =    44.2971   Anisotropy =   181.3280

     26  H    Isotropic =    23.8128   Anisotropy =     8.7504

     27  C    Isotropic =    50.6603   Anisotropy =   182.1832

     28  H    Isotropic =    24.3543   Anisotropy =     5.9491

     29  C    Isotropic =    50.8554   Anisotropy =   184.0506

     30  H    Isotropic =    24.4654   Anisotropy =     4.0979

     31  C    Isotropic =    49.7155   Anisotropy =   182.7586

     32  H    Isotropic =    24.4485   Anisotropy =     6.8559

     33  C    Isotropic =    44.8624   Anisotropy =   184.2746

     34  H    Isotropic =    24.4210   Anisotropy =    12.7869

     35  C    Isotropic =   160.2997   Anisotropy =    23.3132

     36  H    Isotropic =    31.1605   Anisotropy =     3.2871

     37  H    Isotropic =    30.8906   Anisotropy =    18.1292

     38  C    Isotropic =   152.6846   Anisotropy =    20.6816

     39  H    Isotropic =    30.1987   Anisotropy =     3.8071

     40  C    Isotropic =   162.1146   Anisotropy =    30.3650

     41  H    Isotropic =    30.9010   Anisotropy =     8.0728

     42  H    Isotropic =    30.8988   Anisotropy =    10.1665

     43  H    Isotropic =    31.0271   Anisotropy =     7.3848

     44  C    Isotropic =   164.9080   Anisotropy =    33.2808

     45  H    Isotropic =    31.2808   Anisotropy =     8.5654

     46  H    Isotropic =    31.0463   Anisotropy =    11.1134

     47  H    Isotropic =    31.1366   Anisotropy =     8.1696

     48  C    Isotropic =   150.3537   Anisotropy =    15.9218

     49  H    Isotropic =    30.3439   Anisotropy =     8.2536

     50  C    Isotropic =   168.1332   Anisotropy =    24.5837

     51  H    Isotropic =    31.3041   Anisotropy =    10.5328

     52  H    Isotropic =    30.9730   Anisotropy =     7.5461

     53  H    Isotropic =    31.6807   Anisotropy =     9.4054

     54  C    Isotropic =   162.5105   Anisotropy =    31.4223

     55  H    Isotropic =    31.4676   Anisotropy =     9.0999

     56  H    Isotropic =    30.6853   Anisotropy =     7.6855

     57  H    Isotropic =    31.0064   Anisotropy =    10.0405

 The electronic state is 1-A.
 Alpha  occ. eigenvalues --  -77.04571 -77.02851 -10.19262 -10.19097 -10.18535
 Alpha  occ. eigenvalues --  -10.18348 -10.18338 -10.18258 -10.18194 -10.18181
 Alpha  occ. eigenvalues --  -10.18050 -10.17787 -10.17747 -10.17745 -10.17736
 Alpha  occ. eigenvalues --  -10.17727 -10.17706 -10.17676 -10.17652 -10.17643
 Alpha  occ. eigenvalues --  -10.17595 -10.17571 -10.17419 -10.16156 -10.16098
 Alpha  occ. eigenvalues --  -10.15976 -10.15909  -6.53110  -6.51468  -4.69267
 Alpha  occ. eigenvalues --   -4.69223  -4.68745  -4.67632  -4.67559  -4.67096
 Alpha  occ. eigenvalues --   -0.87786  -0.85969  -0.85493  -0.80208  -0.78519
 Alpha  occ. eigenvalues --   -0.78028  -0.76787  -0.75547  -0.75035  -0.74565
 Alpha  occ. eigenvalues --   -0.72916  -0.72176  -0.68770  -0.68403  -0.63937
 Alpha  occ. eigenvalues --   -0.62686  -0.61803  -0.61044  -0.60777  -0.60153
 Alpha  occ. eigenvalues --   -0.58727  -0.58053  -0.55692  -0.53042  -0.51506
 Alpha  occ. eigenvalues --   -0.51282  -0.49540  -0.47093  -0.46907  -0.46594
 Alpha  occ. eigenvalues --   -0.45804  -0.45676  -0.45545  -0.45288  -0.44425
 Alpha  occ. eigenvalues --   -0.43934  -0.43215  -0.43143  -0.42577  -0.42350
 Alpha  occ. eigenvalues --   -0.41937  -0.40958  -0.40041  -0.39676  -0.39392
 Alpha  occ. eigenvalues --   -0.38666  -0.38561  -0.38007  -0.37502  -0.37192
 Alpha  occ. eigenvalues --   -0.36899  -0.35629  -0.35391  -0.35012  -0.34857
 Alpha  occ. eigenvalues --   -0.34672  -0.34588  -0.34257  -0.33606  -0.32222
 Alpha  occ. eigenvalues --   -0.30585  -0.29116  -0.27473  -0.26766  -0.26531
 Alpha  occ. eigenvalues --   -0.26196  -0.25905  -0.24650  -0.21327  -0.18167
 Alpha virt. eigenvalues --   -0.03810  -0.03133  -0.02338  -0.01651  -0.01492
 Alpha virt. eigenvalues --   -0.00396   0.01716   0.02853   0.03889   0.04699
 Alpha virt. eigenvalues --    0.05090   0.05218   0.05357   0.06026   0.06606

 Mulliken charges:
               1
     1  P    0.108407
     2  P    0.145292
     3  C   -0.069570
     4  C   -0.100433
     5  H    0.108877
     6  C   -0.129499
     7  H    0.109987
     8  C   -0.083207
     9  H    0.108621
    10  C   -0.242175
    11  H    0.113580
    12  C    0.152809
    13  C    0.082628
    14  C   -0.181989
    15  H    0.123439
    16  C   -0.131930
    17  H    0.110025
    18  C   -0.097225
    19  H    0.110714
    20  C   -0.119057
    21  H    0.111356
    22  C   -0.140407
    23  H    0.114550
    24  C    0.029955
    25  C   -0.199088
    26  H    0.136827
    27  C   -0.113809
    28  H    0.108046
    29  C   -0.096697
    30  H    0.108495
    31  C   -0.152226
    32  H    0.106964
    33  C   -0.141133
    34  H    0.157769
    35  C   -0.350305
    36  H    0.122925
    37  H    0.138598
    38  C   -0.055806
    39  H    0.075185
    40  C   -0.377531
    41  H    0.128167
    42  H    0.108295
    43  H    0.108800
    44  C   -0.357930
    45  H    0.112400
    46  H    0.108178
    47  H    0.116832
    48  C   -0.082381
    49  H    0.082644
    50  C   -0.364888
    51  H    0.099703
    52  H    0.115117
    53  H    0.131919
    54  C   -0.350695
    55  H    0.104734
    56  H    0.128826
    57  H    0.107317
 Sum of Mulliken charges =  -0.00000

 Dipole moment (field-independent basis, Debye):
    X=              0.0078    Y=             -0.9338    Z=              2.0209  Tot=              2.2262
 Quadrupole moment (field-independent basis, Debye-Ang):
   XX=           -171.6993   YY=           -169.4699   ZZ=           -178.8799
   XY=              1.2915   XZ=             -3.7501   YZ=              3.3396

 Summary of Natural Population Analysis:

                                       Natural Population
                Natural  -----------------------------------------------
    Atom  No    Charge         Core      Valence    Rydberg      Total
 -----------------------------------------------------------------------
      P    1    0.82874      9.99815     4.14062    0.03250    14.17126
      P    2    0.77938      9.99857     4.18812    0.03393    14.22062
      C    3   -0.31226      1.99888     4.28403    0.02935     6.31226
      C    4   -0.18844      1.99911     4.16890    0.02043     6.18844
      H    5    0.21460      0.00000     0.78366    0.00174     0.78540
      C    6   -0.20287      1.99917     4.18529    0.01842     6.20287
      H    7    0.21066      0.00000     0.78815    0.00119     0.78934
      C    8   -0.20213      1.99918     4.18434    0.01862     6.20213
      H    9    0.20951      0.00000     0.78928    0.00121     0.79049
      C   10   -0.18856      1.99910     4.17141    0.01805     6.18856
      H   11    0.20827      0.00000     0.79035    0.00138     0.79173
      C   12   -0.05962      1.99893     4.03712    0.02357     6.05962
      C   13   -0.04050      1.99903     4.01910    0.02236     6.04050
      C   14   -0.21117      1.99907     4.19346    0.01864     6.21117
      H   15    0.21293      0.00000     0.78551    0.00156     0.78707
      C   16   -0.20179      1.99919     4.18375    0.01885     6.20179
      H   17    0.21074      0.00000     0.78803    0.00123     0.78926
      C   18   -0.21158      1.99919     4.19330    0.01910     6.21158
      H   19    0.21000      0.00000     0.78884    0.00117     0.79000
      C   20   -0.19914      1.99919     4.18138    0.01857     6.19914
      H   21    0.21053      0.00000     0.78827    0.00120     0.78947
      C   22   -0.19663      1.99906     4.17835    0.01922     6.19663
      H   23    0.21484      0.00000     0.78280    0.00236     0.78516
      C   24   -0.31567      1.99897     4.28591    0.03079     6.31567
      C   25   -0.20400      1.99909     4.18422    0.02069     6.20400
      H   26    0.21472      0.00000     0.78282    0.00246     0.78528
      C   27   -0.20183      1.99918     4.18381    0.01883     6.20183
      H   28    0.20887      0.00000     0.78982    0.00131     0.79113
      C   29   -0.20672      1.99919     4.18816    0.01937     6.20672
      H   30    0.20778      0.00000     0.79101    0.00121     0.79222
      C   31   -0.20192      1.99918     4.18371    0.01902     6.20192
      H   32    0.20727      0.00000     0.79136    0.00136     0.79273
      C   33   -0.20880      1.99907     4.18953    0.02021     6.20880
      H   34    0.21187      0.00000     0.78604    0.00209     0.78813
      C   35   -1.02532      1.99946     4.99570    0.03016     7.02532
      H   36    0.24974      0.00000     0.74789    0.00237     0.75026
      H   37    0.26155      0.00000     0.73551    0.00294     0.73845
      C   38   -0.47799      1.99945     4.45609    0.02244     6.47799
      H   39    0.19282      0.00000     0.80380    0.00337     0.80718
      C   40   -0.59392      1.99943     4.58303    0.01146     6.59392
      H   41    0.20572      0.00000     0.79302    0.00125     0.79428
      H   42    0.20328      0.00000     0.79514    0.00158     0.79672
      H   43    0.20151      0.00000     0.79679    0.00170     0.79849
      C   44   -0.59648      1.99943     4.58520    0.01185     6.59648
      H   45    0.20416      0.00000     0.79392    0.00193     0.79584
      H   46    0.20379      0.00000     0.79460    0.00161     0.79621
      H   47    0.20261      0.00000     0.79600    0.00139     0.79739
      C   48   -0.47218      1.99945     4.44877    0.02396     6.47218
      H   49    0.21637      0.00000     0.78202    0.00162     0.78363
      C   50   -0.60419      1.99942     4.59251    0.01225     6.60419
      H   51    0.19868      0.00000     0.79942    0.00189     0.80132
      H   52    0.20130      0.00000     0.79736    0.00134     0.79870
      H   53    0.20231      0.00000     0.79623    0.00146     0.79769
      C   54   -0.59537      1.99942     4.58380    0.01214     6.59537
      H   55    0.19552      0.00000     0.80277    0.00171     0.80448
      H   56    0.21699      0.00000     0.78168    0.00133     0.78301
      H   57    0.20203      0.00000     0.79632    0.00165     0.79797
 =======================================================================
   * Total *    0.00000     69.97655   139.40805    0.61540   210.00000

 Normal termination of Gaussian 16 at Wed Nov  6 18:26:32 2024.
