 Gaussian 16, Revision B.01,
 Gaussian 16:  ES64L-G16RevB.01 20-Dec-2017

 --------------------------------------------
 # nmr=giao b3lyp/def2TZVP pop=nbo scfcyc=200
 --------------------------------------------

 --------------
 MB-70 SPE NoRh
 --------------
 Symbolic Z-matrix:
 Charge =  0 Multiplicity = 1

                         Standard orientation:
 ---------------------------------------------------------------------
 Center     Atomic      Atomic             Coordinates (Angstroms)
 Number     Number       Type             X           Y           Z
 ---------------------------------------------------------------------
      1         15           0        1.353472   -0.597612   -0.699021
      2          6           0        2.700515   -1.785399   -0.295058
      3          6           0        2.668027   -2.582534    0.852464
      4          6           0        3.709690   -3.461172    1.129483
      5          6           0        4.796729   -3.551736    0.267026
      6          6           0        4.840152   -2.759884   -0.875751
      7          6           0        3.796584   -1.886485   -1.158846
      8          1           0        3.847482   -1.281040   -2.055416
      9          1           0        5.684352   -2.825380   -1.550704
     10          1           0        5.607106   -4.235810    0.484408
     11          1           0        3.672854   -4.072700    2.022279
     12          1           0        1.837579   -2.521066    1.544348
     13          6           0       -0.079542   -0.938741    0.449861
     14         15           0       -1.416523   -0.371373   -0.731675
     15          6           0       -1.817364    1.358521   -0.230386
     16          6           0       -1.944673    1.731788    1.112610
     17          6           0       -2.273769    3.038875    1.451981
     18          6           0       -2.479681    3.989869    0.455911
     19          6           0       -2.349473    3.631060   -0.881040
     20          6           0       -2.017345    2.323422   -1.222532
     21          1           0       -1.900605    2.057522   -2.264436
     22          1           0       -2.501463    4.367987   -1.659146
     23          1           0       -2.736471    5.007363    0.723067
     24          1           0       -2.369520    3.315422    2.494253
     25          1           0       -1.786880    1.009571    1.903204
     26          1           0       -0.181484   -2.017896    0.567864
     27          1           0       -0.047558   -0.472039    1.433963
     28          6           0        1.972663    1.106014   -0.190859
     29          6           0        2.586725    1.139211    1.217392
     30          6           0        2.933801    1.708550   -1.230818
     31          1           0        1.057112    1.707691   -0.191679
     32          6           0        2.996930    2.569826    1.602853
     33          1           0        3.468930    0.492408    1.243542
     34          1           0        1.886894    0.746438    1.959384
     35          6           0        3.344889    3.134326   -0.837184
     36          1           0        3.832457    1.087295   -1.303266
     37          1           0        2.463452    1.714118   -2.217960
     38          6           0        3.946944    3.183131    0.570594
     39          1           0        3.463270    2.558511    2.590941
     40          1           0        2.099071    3.192234    1.688867
     41          1           0        4.056568    3.522822   -1.568672
     42          1           0        2.465927    3.786580   -0.879910
     43          1           0        4.183118    4.213902    0.843187
     44          1           0        4.895333    2.633367    0.579888
     45          6           0       -2.943946   -1.413744   -0.392543
     46          6           0       -3.312008   -1.560894    1.093096
     47          6           0       -4.149328   -0.910067   -1.207310
     48          1           0       -2.651434   -2.399370   -0.776701
     49          6           0       -4.519983   -2.494225    1.264721
     50          1           0       -3.561920   -0.578572    1.504591
     51          1           0       -2.465183   -1.945191    1.667933
     52          6           0       -5.360420   -1.836854   -1.028171
     53          1           0       -4.413144    0.097467   -0.870782
     54          1           0       -3.897563   -0.829849   -2.267701
     55          6           0       -5.723318   -2.015936    0.448159
     56          1           0       -4.779743   -2.559485    2.323942
     57          1           0       -4.242486   -3.506846    0.950010
     58          1           0       -6.210556   -1.432719   -1.583197
     59          1           0       -5.136050   -2.814143   -1.470879
     60          1           0       -6.550368   -2.722989    0.548828
     61          1           0       -6.080113   -1.062360    0.852456
 ---------------------------------------------------------------------

 SCF Done:  E(RB3LYP) =  -1656.25333610     A.U. after   14 cycles

      1  P    Isotropic =   237.9308   Anisotropy =    91.5709

      2  C    Isotropic =    33.8381   Anisotropy =   204.6526

      3  C    Isotropic =    47.4757   Anisotropy =   181.5091

      4  C    Isotropic =    50.1884   Anisotropy =   181.8651

      5  C    Isotropic =    51.9825   Anisotropy =   182.2121

      6  C    Isotropic =    50.3646   Anisotropy =   182.2544

      7  C    Isotropic =    46.7419   Anisotropy =   182.3193

      8  H    Isotropic =    24.3621   Anisotropy =    10.6567

      9  H    Isotropic =    24.3680   Anisotropy =     5.6278

     10  H    Isotropic =    24.5034   Anisotropy =     4.2640

     11  H    Isotropic =    24.3994   Anisotropy =     6.3553

     12  H    Isotropic =    24.2864   Anisotropy =    11.8786

     13  C    Isotropic =   163.1265   Anisotropy =    18.2907

     14  P    Isotropic =   245.0891   Anisotropy =    93.3201

     15  C    Isotropic =    38.0259   Anisotropy =   209.4823

     16  C    Isotropic =    41.7806   Anisotropy =   188.5619

     17  C    Isotropic =    50.4709   Anisotropy =   183.7660

     18  C    Isotropic =    48.8854   Anisotropy =   188.6638

     19  C    Isotropic =    49.9322   Anisotropy =   184.0444

     20  C    Isotropic =    40.2444   Anisotropy =   181.3338

     21  H    Isotropic =    23.8747   Anisotropy =     7.8714

     22  H    Isotropic =    24.2413   Anisotropy =     4.8845

     23  H    Isotropic =    24.2694   Anisotropy =     4.0461

     24  H    Isotropic =    24.2863   Anisotropy =     5.8332

     25  H    Isotropic =    23.8638   Anisotropy =     9.4057

     26  H    Isotropic =    30.3655   Anisotropy =     7.2078

     27  H    Isotropic =    29.3793   Anisotropy =     4.0776

     28  C    Isotropic =   140.9288   Anisotropy =    19.2681

     29  C    Isotropic =   152.0037   Anisotropy =     6.9480

     30  C    Isotropic =   148.5479   Anisotropy =    14.5814

     31  H    Isotropic =    31.3896   Anisotropy =    12.3287

     32  C    Isotropic =   151.6799   Anisotropy =     8.4111

     33  H    Isotropic =    31.5984   Anisotropy =     7.2703

     34  H    Isotropic =    30.4598   Anisotropy =     4.9812

     35  C    Isotropic =   151.4954   Anisotropy =     6.8522

     36  H    Isotropic =    30.8510   Anisotropy =     7.2837

     37  H    Isotropic =    30.0240   Anisotropy =     6.1855

     38  C    Isotropic =   153.2524   Anisotropy =     2.6124

     39  H    Isotropic =    30.5754   Anisotropy =     9.6878

     40  H    Isotropic =    31.3036   Anisotropy =     6.9034

     41  H    Isotropic =    30.3874   Anisotropy =    10.3839

     42  H    Isotropic =    31.0730   Anisotropy =     6.8210

     43  H    Isotropic =    30.6139   Anisotropy =    10.7509

     44  H    Isotropic =    31.1144   Anisotropy =     8.7478

     45  C    Isotropic =   135.3425   Anisotropy =    23.7304

     46  C    Isotropic =   151.1437   Anisotropy =    10.3875

     47  C    Isotropic =   151.2311   Anisotropy =    10.6888

     48  H    Isotropic =    30.2050   Anisotropy =     3.6399

     49  C    Isotropic =   151.4459   Anisotropy =     8.4248

     50  H    Isotropic =    30.4355   Anisotropy =     7.0809

     51  H    Isotropic =    29.8230   Anisotropy =     6.7756

     52  C    Isotropic =   151.4944   Anisotropy =     7.0778

     53  H    Isotropic =    31.5857   Anisotropy =     7.0198

     54  H    Isotropic =    30.0697   Anisotropy =     6.9302

     55  C    Isotropic =   153.0792   Anisotropy =     2.9169

     56  H    Isotropic =    30.1548   Anisotropy =     9.6039

     57  H    Isotropic =    30.6851   Anisotropy =     8.0590

     58  H    Isotropic =    30.2779   Anisotropy =    10.1407

     59  H    Isotropic =    30.6463   Anisotropy =     8.5836

     60  H    Isotropic =    30.3346   Anisotropy =    10.8529

     61  H    Isotropic =    30.9478   Anisotropy =     7.6076

 The electronic state is 1-A.
 Alpha  occ. eigenvalues --  -77.03876 -77.03683 -10.18402 -10.18272 -10.18233
 Alpha  occ. eigenvalues --  -10.18123 -10.18115 -10.18059 -10.18039 -10.17776
 Alpha  occ. eigenvalues --  -10.17655 -10.17440 -10.17433 -10.17390 -10.17385
 Alpha  occ. eigenvalues --  -10.17376 -10.17291 -10.16578 -10.16555 -10.16357
 Alpha  occ. eigenvalues --  -10.16354 -10.16268 -10.16259 -10.16105 -10.16040
 Alpha  occ. eigenvalues --  -10.15962 -10.15936  -6.52453  -6.52260  -4.68622
 Alpha  occ. eigenvalues --   -4.68554  -4.68442  -4.68344  -4.68075  -4.67892
 Alpha  occ. eigenvalues --   -0.86350  -0.85645  -0.83315  -0.82942  -0.77334
 Alpha  occ. eigenvalues --   -0.75856  -0.75451  -0.74768  -0.74297  -0.74226
 Alpha  occ. eigenvalues --   -0.73865  -0.73810  -0.71886  -0.63472  -0.62108
 Alpha  occ. eigenvalues --   -0.61251  -0.60827  -0.60716  -0.60520  -0.60296
 Alpha  occ. eigenvalues --   -0.59978  -0.55941  -0.55476  -0.55114  -0.54120
 Alpha  occ. eigenvalues --   -0.51053  -0.50531  -0.47681  -0.47353  -0.46016
 Alpha  occ. eigenvalues --   -0.45565  -0.45276  -0.44998  -0.44565  -0.44205
 Alpha  occ. eigenvalues --   -0.44057  -0.43826  -0.43387  -0.43132  -0.42810
 Alpha  occ. eigenvalues --   -0.42344  -0.42191  -0.40846  -0.38862  -0.38431
 Alpha  occ. eigenvalues --   -0.38125  -0.37955  -0.37828  -0.37614  -0.37355
 Alpha  occ. eigenvalues --   -0.36730  -0.35557  -0.35310  -0.35239  -0.34747
 Alpha  occ. eigenvalues --   -0.34543  -0.34142  -0.34010  -0.33164  -0.32005
 Alpha  occ. eigenvalues --   -0.31752  -0.31223  -0.30449  -0.30190  -0.29254
 Alpha  occ. eigenvalues --   -0.28835  -0.26439  -0.26324  -0.26228  -0.25735
 Alpha  occ. eigenvalues --   -0.21981  -0.18267
 Alpha virt. eigenvalues --   -0.03308  -0.02183  -0.01957  -0.01393   0.02092
 Alpha virt. eigenvalues --    0.03020   0.03503   0.03713   0.04322   0.04725
 Alpha virt. eigenvalues --    0.05210   0.05444   0.05933   0.06461   0.06800

 Mulliken charges:
               1
     1  P    0.155827
     2  C    0.094912
     3  C   -0.180587
     4  C   -0.122960
     5  C   -0.105652
     6  C   -0.116539
     7  C   -0.183260
     8  H    0.119151
     9  H    0.106850
    10  H    0.106787
    11  H    0.103829
    12  H    0.112630
    13  C   -0.404828
    14  P    0.123045
    15  C    0.005774
    16  C   -0.161778
    17  C   -0.139529
    18  C   -0.084150
    19  C   -0.121688
    20  C   -0.123868
    21  H    0.109806
    22  H    0.110548
    23  H    0.111506
    24  H    0.107738
    25  H    0.131935
    26  H    0.132877
    27  H    0.120713
    28  C   -0.073230
    29  C   -0.218814
    30  C   -0.207303
    31  H    0.092325
    32  C   -0.163930
    33  H    0.107697
    34  H    0.084553
    35  C   -0.168308
    36  H    0.082383
    37  H    0.101782
    38  C   -0.155170
    39  H    0.087576
    40  H    0.085334
    41  H    0.090383
    42  H    0.084405
    43  H    0.090033
    44  H    0.077052
    45  C   -0.058496
    46  C   -0.206296
    47  C   -0.234202
    48  H    0.069757
    49  C   -0.160089
    50  H    0.087496
    51  H    0.093605
    52  C   -0.150941
    53  H    0.103581
    54  H    0.100699
    55  C   -0.162135
    56  H    0.089166
    57  H    0.079640
    58  H    0.091992
    59  H    0.080705
    60  H    0.091405
    61  H    0.078253
 Sum of Mulliken charges =  -0.00000

 Dipole moment (field-independent basis, Debye):
    X=             -0.6850    Y=              0.7674    Z=              1.9609  Tot=              2.2144
 Quadrupole moment (field-independent basis, Debye-Ang):
   XX=           -175.9041   YY=           -174.0076   ZZ=           -180.6088
   XY=             -2.8412   XZ=             -1.6833   YZ=             -4.0487

 Summary of Natural Population Analysis:

                                       Natural Population
                Natural  -----------------------------------------------
    Atom  No    Charge         Core      Valence    Rydberg      Total
 -----------------------------------------------------------------------
      P    1    0.82505      9.99834     4.14251    0.03410    14.17495
      C    2   -0.32533      1.99901     4.29616    0.03017     6.32533
      C    3   -0.21151      1.99908     4.19199    0.02044     6.21151
      C    4   -0.20075      1.99918     4.18228    0.01928     6.20075
      C    5   -0.21264      1.99919     4.19378    0.01968     6.21264
      C    6   -0.20014      1.99918     4.18190    0.01905     6.20014
      C    7   -0.20471      1.99909     4.18485    0.02077     6.20471
      H    8    0.20968      0.00000     0.78807    0.00224     0.79032
      H    9    0.20755      0.00000     0.79113    0.00132     0.79245
      H   10    0.20699      0.00000     0.79178    0.00123     0.79301
      H   11    0.20564      0.00000     0.79299    0.00137     0.79436
      H   12    0.20068      0.00000     0.79694    0.00238     0.79932
      C   13   -1.01982      1.99946     4.98922    0.03114     7.01982
      P   14    0.81094      9.99837     4.15621    0.03449    14.18906
      C   15   -0.33786      1.99901     4.30477    0.03408     6.33786
      C   16   -0.20510      1.99908     4.18562    0.02040     6.20510
      C   17   -0.20601      1.99919     4.18755    0.01928     6.20601
      C   18   -0.20036      1.99919     4.18188    0.01929     6.20036
      C   19   -0.20592      1.99918     4.18709    0.01965     6.20592
      C   20   -0.19292      1.99910     4.17282    0.02099     6.19292
      H   21    0.21885      0.00000     0.77936    0.00179     0.78115
      H   22    0.20982      0.00000     0.78890    0.00128     0.79018
      H   23    0.20883      0.00000     0.78999    0.00118     0.79117
      H   24    0.20766      0.00000     0.79095    0.00139     0.79234
      H   25    0.20348      0.00000     0.79390    0.00261     0.79652
      H   26    0.24965      0.00000     0.74871    0.00164     0.75035
      H   27    0.22858      0.00000     0.76853    0.00288     0.77142
      C   28   -0.46939      1.99937     4.44403    0.02599     6.46939
      C   29   -0.39530      1.99938     4.38136    0.01455     6.39530
      C   30   -0.39369      1.99938     4.37898    0.01533     6.39369
      H   31    0.22031      0.00000     0.77696    0.00274     0.77969
      C   32   -0.38259      1.99943     4.36970    0.01346     6.38259
      H   33    0.19651      0.00000     0.80101    0.00248     0.80349
      H   34    0.19426      0.00000     0.80342    0.00232     0.80574
      C   35   -0.38161      1.99942     4.36860    0.01358     6.38161
      H   36    0.18993      0.00000     0.80775    0.00232     0.81007
      H   37    0.21163      0.00000     0.78647    0.00190     0.78837
      C   38   -0.38614      1.99943     4.37342    0.01330     6.38614
      H   39    0.19931      0.00000     0.79923    0.00145     0.80069
      H   40    0.18770      0.00000     0.81047    0.00183     0.81230
      H   41    0.20123      0.00000     0.79741    0.00136     0.79877
      H   42    0.18864      0.00000     0.80956    0.00180     0.81136
      H   43    0.20064      0.00000     0.79801    0.00135     0.79936
      H   44    0.18774      0.00000     0.81043    0.00183     0.81226
      C   45   -0.46682      1.99938     4.44297    0.02447     6.46682
      C   46   -0.39593      1.99938     4.38218    0.01437     6.39593
      C   47   -0.39547      1.99938     4.38083    0.01526     6.39547
      H   48    0.20852      0.00000     0.78928    0.00220     0.79148
      C   49   -0.38236      1.99943     4.36937    0.01356     6.38236
      H   50    0.19146      0.00000     0.80611    0.00244     0.80854
      H   51    0.19599      0.00000     0.80209    0.00191     0.80401
      C   52   -0.37988      1.99943     4.36691    0.01355     6.37988
      H   53    0.19463      0.00000     0.80318    0.00219     0.80537
      H   54    0.21122      0.00000     0.78679    0.00199     0.78878
      C   55   -0.38661      1.99942     4.37378    0.01341     6.38661
      H   56    0.19990      0.00000     0.79865    0.00145     0.80010
      H   57    0.18638      0.00000     0.81179    0.00184     0.81362
      H   58    0.20236      0.00000     0.79629    0.00135     0.79764
      H   59    0.18752      0.00000     0.81068    0.00180     0.81248
      H   60    0.20153      0.00000     0.79713    0.00133     0.79847
      H   61    0.18804      0.00000     0.81014    0.00182     0.81196
 =======================================================================
   * Total *    0.00000     69.97848   143.40486    0.61666   214.00000

 Normal termination of Gaussian 16 at Thu Jan 23 23:59:33 2025.
