 Gaussian 16, Revision B.01,
 Gaussian 16:  ES64L-G16RevB.01 20-Dec-2017

 --------------------------------------------
 # nmr=giao b3lyp/def2TZVP pop=nbo scfcyc=200
 --------------------------------------------

 --------------
 MB-79 SPE NoRh
 --------------
 Symbolic Z-matrix:
 Charge =  0 Multiplicity = 1

                         Standard orientation:
 ---------------------------------------------------------------------
 Center     Atomic      Atomic             Coordinates (Angstroms)
 Number     Number       Type             X           Y           Z
 ---------------------------------------------------------------------
      1         15           0       -1.205398   -0.385731   -0.702039
      2         15           0        1.579847   -0.259307   -0.598723
      3          6           0       -2.591481   -1.508431   -0.301711
      4          6           0       -3.725451   -0.772346    0.089087
      5          6           0       -3.513529    0.686767    0.103050
      6          6           0       -2.215652    1.080424   -0.275715
      7          6           0        0.154914   -0.586693    0.578371
      8          1           0        0.090520    0.074362    1.441439
      9          1           0        0.171675   -1.621969    0.919524
     10          6           0       -2.622026   -2.895636   -0.375478
     11          1           0       -1.749688   -3.454810   -0.693747
     12          6           0       -3.793783   -3.566317   -0.036565
     13          1           0       -3.830565   -4.647219   -0.082179
     14          6           0       -4.921387   -2.846738    0.355247
     15          1           0       -5.830950   -3.374201    0.612253
     16          6           0       -4.894686   -1.457521    0.416883
     17          1           0       -5.782039   -0.917043    0.720321
     18          6           0       -1.852755    2.419406   -0.317904
     19          1           0       -0.855421    2.717029   -0.618768
     20          6           0       -2.790373    3.386012    0.037465
     21          1           0       -2.519292    4.433762    0.015368
     22          6           0       -4.076651    3.007454    0.414648
     23          1           0       -4.801232    3.765543    0.684315
     24          6           0       -4.443421    1.666476    0.446687
     25          1           0       -5.448223    1.391832    0.741448
     26          6           0        2.963575   -1.390246   -0.152759
     27          6           0        2.704979   -2.751632    0.046455
     28          1           0        1.693697   -3.134993   -0.010016
     29          6           0        3.746210   -3.631168    0.315827
     30          1           0        3.534059   -4.680414    0.480072
     31          6           0        5.057279   -3.166599    0.372382
     32          1           0        5.867591   -3.853169    0.580682
     33          6           0        5.322965   -1.819292    0.155889
     34          1           0        6.340328   -1.451970    0.196149
     35          6           0        4.283658   -0.931657   -0.106153
     36          1           0        4.505252    0.115342   -0.263707
     37          6           0        2.152911    1.440818   -0.201965
     38          6           0        2.530559    1.786702    1.101718
     39          1           0        2.508610    1.047848    1.894632
     40          6           0        2.946457    3.080227    1.387172
     41          1           0        3.237711    3.341633    2.396584
     42          6           0        2.991903    4.039529    0.377499
     43          1           0        3.318136    5.046983    0.602684
     44          6           0        2.618219    3.703054   -0.919202
     45          1           0        2.651957    4.446761   -1.705155
     46          6           0        2.197944    2.407736   -1.208348
     47          1           0        1.898883    2.148277   -2.215952
 ---------------------------------------------------------------------

 SCF Done:  E(RB3LYP) =  -1647.80785654     A.U. after   15 cycles

      1  P    Isotropic =   244.9548   Anisotropy =    59.9258

      2  P    Isotropic =   230.8862   Anisotropy =   114.8995

      3  C    Isotropic =    31.1056   Anisotropy =   186.0205

      4  C    Isotropic =    34.0524   Anisotropy =   161.9621

      5  C    Isotropic =    33.8098   Anisotropy =   162.4109

      6  C    Isotropic =    31.4520   Anisotropy =   186.6411

      7  C    Isotropic =   145.3892   Anisotropy =    19.1249

      8  H    Isotropic =    29.2070   Anisotropy =     4.6836

      9  H    Isotropic =    29.3271   Anisotropy =     6.4524

     10  C    Isotropic =    49.4576   Anisotropy =   179.3912

     11  H    Isotropic =    23.6589   Anisotropy =     9.2438

     12  C    Isotropic =    51.2293   Anisotropy =   179.8070

     13  H    Isotropic =    24.2602   Anisotropy =     5.6857

     14  C    Isotropic =    50.9295   Anisotropy =   182.2085

     15  H    Isotropic =    24.2455   Anisotropy =     5.1481

     16  C    Isotropic =    57.5115   Anisotropy =   174.0741

     17  H    Isotropic =    23.7583   Anisotropy =     7.9707

     18  C    Isotropic =    49.2249   Anisotropy =   181.3314

     19  H    Isotropic =    24.6456   Anisotropy =     8.6728

     20  C    Isotropic =    51.7427   Anisotropy =   179.2024

     21  H    Isotropic =    24.7040   Anisotropy =     7.4574

     22  C    Isotropic =    51.2457   Anisotropy =   182.0388

     23  H    Isotropic =    24.3978   Anisotropy =     5.2957

     24  C    Isotropic =    57.7561   Anisotropy =   173.6244

     25  H    Isotropic =    23.8038   Anisotropy =     7.6076

     26  C    Isotropic =    28.4288   Anisotropy =   197.9764

     27  C    Isotropic =    50.0656   Anisotropy =   181.0026

     28  H    Isotropic =    23.9713   Anisotropy =    10.5233

     29  C    Isotropic =    50.0595   Anisotropy =   182.6322

     30  H    Isotropic =    24.2477   Anisotropy =     5.9630

     31  C    Isotropic =    53.1438   Anisotropy =   179.9735

     32  H    Isotropic =    24.5707   Anisotropy =     4.3584

     33  C    Isotropic =    49.6683   Anisotropy =   183.7092

     34  H    Isotropic =    24.5505   Anisotropy =     6.4827

     35  C    Isotropic =    50.5512   Anisotropy =   181.6473

     36  H    Isotropic =    25.0302   Anisotropy =    13.1775

     37  C    Isotropic =    36.9810   Anisotropy =   203.4900

     38  C    Isotropic =    38.8362   Anisotropy =   189.4062

     39  H    Isotropic =    23.8965   Anisotropy =    10.5558

     40  C    Isotropic =    47.8403   Anisotropy =   187.6021

     41  H    Isotropic =    24.1324   Anisotropy =     5.6842

     42  C    Isotropic =    47.4682   Anisotropy =   191.1789

     43  H    Isotropic =    24.0583   Anisotropy =     3.9605

     44  C    Isotropic =    49.8076   Anisotropy =   184.5111

     45  H    Isotropic =    23.9994   Anisotropy =     5.0146

     46  C    Isotropic =    39.0946   Anisotropy =   183.2325

     47  H    Isotropic =    23.3904   Anisotropy =     8.0974

 The electronic state is 1-A.
 Alpha  occ. eigenvalues --  -77.05285 -77.05251 -10.19194 -10.19093 -10.18872
 Alpha  occ. eigenvalues --  -10.18818 -10.18806 -10.18751 -10.18717 -10.18688
 Alpha  occ. eigenvalues --  -10.18639 -10.18613 -10.18163 -10.18124 -10.18042
 Alpha  occ. eigenvalues --  -10.18002 -10.17920 -10.17905 -10.17839 -10.17837
 Alpha  occ. eigenvalues --  -10.17835 -10.17781 -10.17745 -10.17720 -10.17651
 Alpha  occ. eigenvalues --  -10.17648 -10.17520  -6.53857  -6.53835  -4.70010
 Alpha  occ. eigenvalues --   -4.69976  -4.69974  -4.69951  -4.69495  -4.69491
 Alpha  occ. eigenvalues --   -0.88146  -0.87002  -0.85968  -0.85181  -0.79151
 Alpha  occ. eigenvalues --   -0.77876  -0.76547  -0.76024  -0.75263  -0.74914
 Alpha  occ. eigenvalues --   -0.74701  -0.72985  -0.72205  -0.65102  -0.63574
 Alpha  occ. eigenvalues --   -0.62855  -0.61780  -0.60975  -0.60485  -0.58804
 Alpha  occ. eigenvalues --   -0.58132  -0.56724  -0.55886  -0.52778  -0.51318
 Alpha  occ. eigenvalues --   -0.50703  -0.49658  -0.47767  -0.46658  -0.46489
 Alpha  occ. eigenvalues --   -0.45907  -0.45704  -0.45252  -0.44640  -0.44087
 Alpha  occ. eigenvalues --   -0.43543  -0.43358  -0.42889  -0.42738  -0.41951
 Alpha  occ. eigenvalues --   -0.40917  -0.40526  -0.40012  -0.38793  -0.37963
 Alpha  occ. eigenvalues --   -0.37648  -0.36521  -0.36164  -0.35957  -0.35863
 Alpha  occ. eigenvalues --   -0.35144  -0.34666  -0.33226  -0.32787  -0.31984
 Alpha  occ. eigenvalues --   -0.29443  -0.28207  -0.27519  -0.27077  -0.26246
 Alpha  occ. eigenvalues --   -0.26092  -0.25989  -0.22834  -0.22565  -0.19563
 Alpha virt. eigenvalues --   -0.04894  -0.04152  -0.03812  -0.02772  -0.01840
 Alpha virt. eigenvalues --   -0.01820  -0.00927   0.00432   0.02273   0.03601
 Alpha virt. eigenvalues --    0.04249   0.04963   0.05291   0.05353   0.06040

 Mulliken charges:
               1
     1  P    0.166930
     2  P    0.167137
     3  C   -0.028100
     4  C    0.126539
     5  C    0.145306
     6  C   -0.090313
     7  C   -0.361774
     8  H    0.137876
     9  H    0.136899
    10  C   -0.167816
    11  H    0.110615
    12  C   -0.111823
    13  H    0.107692
    14  C   -0.086580
    15  H    0.107627
    16  C   -0.228720
    17  H    0.101584
    18  C   -0.131466
    19  H    0.159116
    20  C   -0.138720
    21  H    0.105679
    22  C   -0.078542
    23  H    0.106480
    24  C   -0.239652
    25  H    0.101313
    26  C    0.065324
    27  C   -0.200509
    28  H    0.113265
    29  C   -0.118270
    30  H    0.106198
    31  C   -0.108939
    32  H    0.107688
    33  C   -0.123003
    34  H    0.107511
    35  C   -0.160873
    36  H    0.137697
    37  C    0.006969
    38  C   -0.187939
    39  H    0.128322
    40  C   -0.099490
    41  H    0.112402
    42  C   -0.095471
    43  H    0.115202
    44  C   -0.101725
    45  H    0.114723
    46  C   -0.157833
    47  H    0.121461
 Sum of Mulliken charges =  -0.00000

 Dipole moment (field-independent basis, Debye):
    X=              0.5710    Y=              0.9334    Z=              2.1436  Tot=              2.4067
 Quadrupole moment (field-independent basis, Debye-Ang):
   XX=           -160.0249   YY=           -151.8562   ZZ=           -178.5280
   XY=              4.4308   XZ=             -0.9812   YZ=             -1.9502

 Summary of Natural Population Analysis:

                                       Natural Population
                Natural  -----------------------------------------------
    Atom  No    Charge         Core      Valence    Rydberg      Total
 -----------------------------------------------------------------------
      P    1    0.83530      9.99816     4.13453    0.03201    14.16470
      P    2    0.82227      9.99817     4.14563    0.03394    14.17773
      C    3   -0.29850      1.99899     4.27072    0.02879     6.29850
      C    4   -0.04993      1.99900     4.02918    0.02175     6.04993
      C    5   -0.05050      1.99900     4.03042    0.02109     6.05050
      C    6   -0.29847      1.99899     4.26951    0.02997     6.29847
      C    7   -0.97931      1.99943     4.94691    0.03296     6.97931
      H    8    0.24799      0.00000     0.74977    0.00224     0.75201
      H    9    0.25232      0.00000     0.74601    0.00168     0.74768
      C   10   -0.19527      1.99907     4.17687    0.01932     6.19527
      H   11    0.20617      0.00000     0.79214    0.00169     0.79383
      C   12   -0.20328      1.99920     4.18536    0.01872     6.20328
      H   13    0.20866      0.00000     0.79017    0.00118     0.79134
      C   14   -0.19989      1.99921     4.18233    0.01835     6.19989
      H   15    0.20813      0.00000     0.79072    0.00115     0.79187
      C   16   -0.18641      1.99908     4.16922    0.01810     6.18641
      H   17    0.20403      0.00000     0.79434    0.00163     0.79597
      C   18   -0.19507      1.99907     4.17637    0.01963     6.19507
      H   19    0.21410      0.00000     0.78390    0.00201     0.78590
      C   20   -0.20240      1.99920     4.18470    0.01850     6.20240
      H   21    0.20857      0.00000     0.79026    0.00117     0.79143
      C   22   -0.19989      1.99921     4.18226    0.01842     6.19989
      H   23    0.20779      0.00000     0.79105    0.00116     0.79221
      C   24   -0.18744      1.99908     4.17027    0.01809     6.18744
      H   25    0.20399      0.00000     0.79440    0.00161     0.79601
      C   26   -0.31652      1.99899     4.28787    0.02967     6.31652
      C   27   -0.21245      1.99909     4.19346    0.01990     6.21245
      H   28    0.19927      0.00000     0.79847    0.00226     0.80073
      C   29   -0.19534      1.99919     4.17720    0.01896     6.19534
      H   30    0.20792      0.00000     0.79077    0.00131     0.79208
      C   31   -0.21556      1.99919     4.19675    0.01962     6.21556
      H   32    0.20799      0.00000     0.79082    0.00119     0.79201
      C   33   -0.19425      1.99919     4.17617    0.01890     6.19425
      H   34    0.20768      0.00000     0.79100    0.00131     0.79232
      C   35   -0.21155      1.99908     4.19247    0.02000     6.21155
      H   36    0.21363      0.00000     0.78455    0.00182     0.78637
      C   37   -0.33955      1.99901     4.30720    0.03333     6.33955
      C   38   -0.19177      1.99908     4.17253    0.02016     6.19177
      H   39    0.21066      0.00000     0.78696    0.00239     0.78934
      C   40   -0.20418      1.99919     4.18592    0.01907     6.20418
      H   41    0.21015      0.00000     0.78848    0.00137     0.78985
      C   42   -0.19363      1.99919     4.17549    0.01894     6.19363
      H   43    0.21024      0.00000     0.78860    0.00116     0.78976
      C   44   -0.20732      1.99918     4.18875    0.01939     6.20732
      H   45    0.21180      0.00000     0.78694    0.00126     0.78820
      C   46   -0.19183      1.99910     4.17193    0.02080     6.19183
      H   47    0.22165      0.00000     0.77673    0.00161     0.77835
 =======================================================================
   * Total *    0.00000     69.97434   129.38609    0.63957   200.00000

 Normal termination of Gaussian 16 at Fri Jan 24 00:31:32 2025.
