 Gaussian 16, Revision B.01,
 Gaussian 16:  ES64L-G16RevB.01 20-Dec-2017

 --------------------------------------------
 # nmr=giao b3lyp/def2TZVP pop=nbo scfcyc=200
 --------------------------------------------

 -------------------
 Ligand 32a SPE NoRh
 -------------------
 Symbolic Z-matrix:
 Charge =  0 Multiplicity = 1

                         Standard orientation:
 ---------------------------------------------------------------------
 Center     Atomic      Atomic             Coordinates (Angstroms)
 Number     Number       Type             X           Y           Z
 ---------------------------------------------------------------------
      1         15           0       -0.004337   -0.152554   -0.572185
      2         15           0        1.683996   -2.454603   -0.489462
      3          6           0       -1.873912   -0.418675   -0.201228
      4          6           0       -2.136094   -1.945653   -0.206862
      5          1           0       -1.814342   -2.371877   -1.162165
      6          1           0       -1.559329   -2.431592    0.583755
      7          6           0        0.926814   -1.212365    0.682659
      8          1           0        1.711373   -0.619592    1.150121
      9          1           0        0.316754   -1.641110    1.477351
     10          6           0       -4.468742   -1.599961   -1.084781
     11          1           0       -5.529269   -1.819996   -0.932011
     12          1           0       -4.195816   -2.019411   -2.058499
     13          6           0        2.613397    3.508319    0.950146
     14          1           0        3.268682    2.811471    1.482158
     15          1           0        3.021702    4.509417    1.110808
     16          6           0        3.485832   -2.753291    0.063780
     17          6           0       -2.739478    0.209586   -1.322800
     18          1           0       -2.449158   -0.205919   -2.289111
     19          1           0       -2.588111    1.287267   -1.377003
     20          6           0       -3.629829   -2.245407    0.027665
     21          1           0       -3.771187   -3.329067    0.019305
     22          6           0        2.036274    1.755793   -0.755983
     23          1           0        2.689977    1.042193   -0.250483
     24          1           0        2.053628    1.498614   -1.817248
     25          6           0       -0.294610    2.684883   -0.929147
     26          1           0       -0.359025    2.460323   -1.997883
     27          1           0       -1.311559    2.657051   -0.534510
     28          6           0       -4.234228   -0.082441   -1.073670
     29          1           0       -4.814203    0.388480   -1.872108
     30          6           0        1.183493    3.425949    1.505152
     31          1           0        1.188513    3.644591    2.576381
     32          6           0        0.591337    1.645913   -0.202462
     33          6           0       -3.820605   -0.157006    1.399877
     34          1           0       -4.108315    0.256456    2.370189
     35          6           0        2.591915    3.179113   -0.550391
     36          1           0        3.607329    3.217384   -0.953192
     37          6           0        0.626831    1.998025    1.305624
     38          1           0       -0.368557    1.937856    1.743659
     39          1           0        1.257449    1.293548    1.853584
     40          6           0        1.698409    4.186205   -1.292165
     41          1           0        1.695867    3.972825   -2.366074
     42          1           0        2.092945    5.198652   -1.172705
     43          6           0        0.287211    4.436756    0.771833
     44          1           0       -0.729265    4.407506    1.177183
     45          1           0        0.660614    5.451583    0.929787
     46          6           0        3.541653   -3.101462    1.559251
     47          1           0        3.132391   -2.306749    2.185712
     48          1           0        4.584620   -3.240848    1.854487
     49          1           0        3.015086   -4.027414    1.792004
     50          6           0        0.833996   -4.062452   -0.142865
     51          1           0       -0.221009   -3.972372   -0.386692
     52          1           0        0.937444   -4.351136    0.904062
     53          1           0        1.260240   -4.842202   -0.771268
     54          6           0        0.271438    4.106413   -0.729760
     55          1           0       -0.375430    4.812211   -1.256198
     56          6           0       -4.656061    0.496496    0.287038
     57          1           0       -5.720411    0.313139    0.458276
     58          1           0       -4.517406    1.582402    0.297309
     59          6           0        4.061282   -3.918711   -0.760629
     60          1           0        3.556342   -4.863351   -0.552775
     61          1           0        5.113788   -4.052711   -0.500105
     62          1           0        4.013793   -3.733228   -1.835270
     63          6           0       -4.049520   -1.676723    1.392988
     64          1           0       -5.102459   -1.899027    1.586381
     65          1           0       -3.474052   -2.151221    2.195540
     66          6           0       -2.326700    0.153408    1.161433
     67          1           0       -2.189851    1.234211    1.183523
     68          1           0       -1.727858   -0.267009    1.975341
     69          6           0        4.306561   -1.483860   -0.204806
     70          1           0        4.251223   -1.172329   -1.248218
     71          1           0        5.355635   -1.676535    0.034003
     72          1           0        3.986372   -0.648235    0.417912
 ---------------------------------------------------------------------

 SCF Done:  E(RB3LYP) =  -1700.40051028     A.U. after   13 cycles

      1  P    Isotropic =   198.0264   Anisotropy =   117.0104

      2  P    Isotropic =   241.6313   Anisotropy =   100.2808

      3  C    Isotropic =   136.3121   Anisotropy =    28.9229

      4  C    Isotropic =   136.7347   Anisotropy =     4.3341

      5  H    Isotropic =    30.3080   Anisotropy =     5.8052

      6  H    Isotropic =    30.4841   Anisotropy =     8.8088

      7  C    Isotropic =   169.3059   Anisotropy =    18.6487

      8  H    Isotropic =    30.7236   Anisotropy =     6.3426

      9  H    Isotropic =    30.7413   Anisotropy =     5.1920

     10  C    Isotropic =   142.1859   Anisotropy =     6.9649

     11  H    Isotropic =    30.1818   Anisotropy =     9.5744

     12  H    Isotropic =    30.0977   Anisotropy =     8.3735

     13  C    Isotropic =   141.7493   Anisotropy =     8.5072

     14  H    Isotropic =    30.2198   Anisotropy =     7.4777

     15  H    Isotropic =    30.2114   Anisotropy =     9.3480

     16  C    Isotropic =   145.3891   Anisotropy =    15.6406

     17  C    Isotropic =   137.2778   Anisotropy =    14.7130

     18  H    Isotropic =    30.0582   Anisotropy =     4.6724

     19  H    Isotropic =    29.8411   Anisotropy =     8.3490

     20  C    Isotropic =   148.4652   Anisotropy =     7.9261

     21  H    Isotropic =    30.0382   Anisotropy =     9.8077

     22  C    Isotropic =   137.4272   Anisotropy =    11.2761

     23  H    Isotropic =    30.2452   Anisotropy =     9.8046

     24  H    Isotropic =    30.1150   Anisotropy =     4.8866

     25  C    Isotropic =   138.3274   Anisotropy =     9.1864

     26  H    Isotropic =    30.0064   Anisotropy =     4.8374

     27  H    Isotropic =    29.9551   Anisotropy =     9.1352

     28  C    Isotropic =   147.9406   Anisotropy =     9.3753

     29  H    Isotropic =    30.0618   Anisotropy =    10.2521

     30  C    Isotropic =   147.5680   Anisotropy =     8.7264

     31  H    Isotropic =    30.0812   Anisotropy =     9.7072

     32  C    Isotropic =   133.6090   Anisotropy =    32.5485

     33  C    Isotropic =   148.1098   Anisotropy =     7.6036

     34  H    Isotropic =    30.1102   Anisotropy =     9.6392

     35  C    Isotropic =   147.9714   Anisotropy =     9.4332

     36  H    Isotropic =    30.1090   Anisotropy =     9.8943

     37  C    Isotropic =   139.2596   Anisotropy =    10.9491

     38  H    Isotropic =    29.7189   Anisotropy =     8.0877

     39  H    Isotropic =    29.9431   Anisotropy =     5.9808

     40  C    Isotropic =   142.3899   Anisotropy =     6.2762

     41  H    Isotropic =    30.0982   Anisotropy =     8.3646

     42  H    Isotropic =    30.2094   Anisotropy =     9.6219

     43  C    Isotropic =   141.3043   Anisotropy =     7.0670

     44  H    Isotropic =    30.1609   Anisotropy =     7.6410

     45  H    Isotropic =    30.1793   Anisotropy =     9.4167

     46  C    Isotropic =   158.7876   Anisotropy =    38.0216

     47  H    Isotropic =    30.8519   Anisotropy =     5.6642

     48  H    Isotropic =    31.1216   Anisotropy =     9.9400

     49  H    Isotropic =    30.6204   Anisotropy =     7.5580

     50  C    Isotropic =   176.3538   Anisotropy =    14.7901

     51  H    Isotropic =    30.5414   Anisotropy =     9.8957

     52  H    Isotropic =    30.9235   Anisotropy =     7.5617

     53  H    Isotropic =    31.2500   Anisotropy =    10.1901

     54  C    Isotropic =   148.1626   Anisotropy =     8.3831

     55  H    Isotropic =    30.0545   Anisotropy =    10.0515

     56  C    Isotropic =   141.8386   Anisotropy =     7.3036

     57  H    Isotropic =    30.1942   Anisotropy =     9.4221

     58  H    Isotropic =    30.1885   Anisotropy =     7.6672

     59  C    Isotropic =   155.6435   Anisotropy =    44.0533

     60  H    Isotropic =    31.0835   Anisotropy =     8.5132

     61  H    Isotropic =    31.3541   Anisotropy =     9.9843

     62  H    Isotropic =    30.9106   Anisotropy =     9.0345

     63  C    Isotropic =   141.8406   Anisotropy =     7.8550

     64  H    Isotropic =    30.1772   Anisotropy =     9.4370

     65  H    Isotropic =    30.2125   Anisotropy =     7.4818

     66  C    Isotropic =   137.2897   Anisotropy =    12.2785

     67  H    Isotropic =    29.7310   Anisotropy =     9.1023

     68  H    Isotropic =    30.0442   Anisotropy =     4.7832

     69  C    Isotropic =   152.6806   Anisotropy =    41.7651

     70  H    Isotropic =    30.7662   Anisotropy =     6.9902

     71  H    Isotropic =    31.1300   Anisotropy =     8.8605

     72  H    Isotropic =    30.7599   Anisotropy =     8.6399

 The electronic state is 1-A.
 Alpha  occ. eigenvalues --  -77.03024 -77.02969 -10.18374 -10.18265 -10.18251
 Alpha  occ. eigenvalues --  -10.17332 -10.16946 -10.16807 -10.16773 -10.16753
 Alpha  occ. eigenvalues --  -10.16748 -10.16696 -10.16409 -10.16277 -10.16169
 Alpha  occ. eigenvalues --  -10.16075 -10.16051 -10.16002 -10.16000 -10.15972
 Alpha  occ. eigenvalues --  -10.15960 -10.15938 -10.15929 -10.15923 -10.15920
 Alpha  occ. eigenvalues --  -10.15905 -10.15873 -10.15788  -6.51540  -6.51538
 Alpha  occ. eigenvalues --   -4.67711  -4.67694  -4.67647  -4.67628  -4.67171
 Alpha  occ. eigenvalues --   -4.67156  -0.87129  -0.86854  -0.81141  -0.78000
 Alpha  occ. eigenvalues --   -0.76954  -0.76869  -0.76787  -0.76688  -0.76309
 Alpha  occ. eigenvalues --   -0.73451  -0.69963  -0.68612  -0.68392  -0.67009
 Alpha  occ. eigenvalues --   -0.66880  -0.66591  -0.66511  -0.60732  -0.58628
 Alpha  occ. eigenvalues --   -0.58517  -0.58198  -0.58082  -0.57587  -0.57314
 Alpha  occ. eigenvalues --   -0.53522  -0.52034  -0.50715  -0.50584  -0.46191
 Alpha  occ. eigenvalues --   -0.45861  -0.45665  -0.45426  -0.45162  -0.44917
 Alpha  occ. eigenvalues --   -0.44846  -0.44746  -0.44213  -0.43822  -0.43527
 Alpha  occ. eigenvalues --   -0.42400  -0.41641  -0.41455  -0.41145  -0.40956
 Alpha  occ. eigenvalues --   -0.40717  -0.40676  -0.40365  -0.40246  -0.39442
 Alpha  occ. eigenvalues --   -0.39188  -0.39017  -0.38771  -0.38498  -0.38149
 Alpha  occ. eigenvalues --   -0.37538  -0.36770  -0.36071  -0.33936  -0.33674
 Alpha  occ. eigenvalues --   -0.33519  -0.33370  -0.33302  -0.32995  -0.32904
 Alpha  occ. eigenvalues --   -0.32848  -0.32736  -0.32703  -0.32691  -0.32093
 Alpha  occ. eigenvalues --   -0.31756  -0.29859  -0.28834  -0.28573  -0.28229
 Alpha  occ. eigenvalues --   -0.28067  -0.27641  -0.25491  -0.21099  -0.17666
 Alpha virt. eigenvalues --    0.00947   0.01893   0.02297   0.02942   0.04021
 Alpha virt. eigenvalues --    0.04779   0.04883   0.05390   0.05921   0.06192
 Alpha virt. eigenvalues --    0.06377   0.06690   0.06992   0.07187   0.07287

 Mulliken charges:
               1
     1  P    0.043874
     2  P    0.163748
     3  C    0.314115
     4  C   -0.421257
     5  H    0.113310
     6  H    0.093373
     7  C   -0.381376
     8  H    0.106399
     9  H    0.112583
    10  C   -0.242915
    11  H    0.082187
    12  H    0.082268
    13  C   -0.243255
    14  H    0.077360
    15  H    0.082502
    16  C    0.105493
    17  C   -0.341232
    18  H    0.095696
    19  H    0.107884
    20  C    0.122528
    21  H    0.053422
    22  C   -0.318416
    23  H    0.073413
    24  H    0.106896
    25  C   -0.374393
    26  H    0.105472
    27  H    0.081070
    28  C    0.095523
    29  H    0.054401
    30  C    0.113407
    31  H    0.051021
    32  C    0.253565
    33  C    0.129989
    34  H    0.050698
    35  C    0.101340
    36  H    0.054718
    37  C   -0.336782
    38  H    0.106547
    39  H    0.084489
    40  C   -0.247023
    41  H    0.081961
    42  H    0.082529
    43  C   -0.243519
    44  H    0.077408
    45  H    0.082415
    46  C   -0.368284
    47  H    0.109603
    48  H    0.098176
    49  H    0.111567
    50  C   -0.467358
    51  H    0.152844
    52  H    0.110528
    53  H    0.129668
    54  C    0.118928
    55  H    0.053133
    56  C   -0.249040
    57  H    0.083046
    58  H    0.078257
    59  C   -0.379808
    60  H    0.113448
    61  H    0.105649
    62  H    0.121941
    63  C   -0.251540
    64  H    0.082969
    65  H    0.078172
    66  C   -0.367228
    67  H    0.076786
    68  H    0.099195
    69  C   -0.365452
    70  H    0.125446
    71  H    0.105668
    72  H    0.100249
 Sum of Mulliken charges =  -0.00000

 Dipole moment (field-independent basis, Debye):
    X=             -0.4542    Y=              0.3300    Z=              1.6959  Tot=              1.7864
 Quadrupole moment (field-independent basis, Debye-Ang):
   XX=           -189.8605   YY=           -189.8721   ZZ=           -197.7550
   XY=              0.4827   XZ=              1.8448   YZ=             -2.5510

 Summary of Natural Population Analysis:

                                       Natural Population
                Natural  -----------------------------------------------
    Atom  No    Charge         Core      Valence    Rydberg      Total
 -----------------------------------------------------------------------
      P    1    0.82900      9.99828     4.14201    0.03071    14.17100
      P    2    0.80101      9.99859     4.16476    0.03565    14.19899
      C    3   -0.25481      1.99937     4.22526    0.03018     6.25481
      C    4   -0.41192      1.99930     4.39662    0.01599     6.41192
      H    5    0.20833      0.00000     0.78952    0.00215     0.79167
      H    6    0.19671      0.00000     0.80092    0.00237     0.80329
      C    7   -1.03778      1.99945     5.00675    0.03158     7.03778
      H    8    0.24133      0.00000     0.75600    0.00267     0.75867
      H    9    0.23025      0.00000     0.76634    0.00341     0.76975
      C   10   -0.38843      1.99936     4.37482    0.01425     6.38843
      H   11    0.19769      0.00000     0.80054    0.00177     0.80231
      H   12    0.19971      0.00000     0.79877    0.00151     0.80029
      C   13   -0.38818      1.99936     4.37492    0.01390     6.38818
      H   14    0.19635      0.00000     0.80209    0.00156     0.80365
      H   15    0.19803      0.00000     0.80019    0.00178     0.80197
      C   16   -0.27886      1.99948     4.25407    0.02531     6.27886
      C   17   -0.40897      1.99929     4.39400    0.01568     6.40897
      H   18    0.20691      0.00000     0.79082    0.00227     0.79309
      H   19    0.20107      0.00000     0.79689    0.00203     0.79893
      C   20   -0.20479      1.99938     4.18913    0.01628     6.20479
      H   21    0.20015      0.00000     0.79822    0.00163     0.79985
      C   22   -0.41050      1.99930     4.39562    0.01559     6.41050
      H   23    0.19594      0.00000     0.80163    0.00243     0.80406
      H   24    0.21092      0.00000     0.78692    0.00216     0.78908
      C   25   -0.40896      1.99929     4.39426    0.01541     6.40896
      H   26    0.20632      0.00000     0.79142    0.00227     0.79368
      H   27    0.19482      0.00000     0.80279    0.00239     0.80518
      C   28   -0.20649      1.99939     4.19010    0.01699     6.20649
      H   29    0.20486      0.00000     0.79331    0.00182     0.79514
      C   30   -0.20573      1.99939     4.19017    0.01617     6.20573
      H   31    0.19814      0.00000     0.80018    0.00168     0.80186
      C   32   -0.24715      1.99937     4.21789    0.02988     6.24715
      C   33   -0.20740      1.99939     4.19171    0.01631     6.20740
      H   34    0.19818      0.00000     0.80014    0.00167     0.80182
      C   35   -0.20497      1.99938     4.18940    0.01619     6.20497
      H   36    0.20095      0.00000     0.79745    0.00160     0.79905
      C   37   -0.40938      1.99929     4.39507    0.01503     6.40938
      H   38    0.20031      0.00000     0.79758    0.00211     0.79969
      H   39    0.19162      0.00000     0.80574    0.00263     0.80838
      C   40   -0.38786      1.99936     4.37461    0.01390     6.38786
      H   41    0.19983      0.00000     0.79865    0.00152     0.80017
      H   42    0.19767      0.00000     0.80057    0.00176     0.80233
      C   43   -0.38808      1.99936     4.37486    0.01386     6.38808
      H   44    0.19649      0.00000     0.80199    0.00152     0.80351
      H   45    0.19828      0.00000     0.79994    0.00178     0.80172
      C   46   -0.60256      1.99937     4.59115    0.01203     6.60256
      H   47    0.19950      0.00000     0.79899    0.00151     0.80050
      H   48    0.19575      0.00000     0.80191    0.00234     0.80425
      H   49    0.20014      0.00000     0.79821    0.00165     0.79986
      C   50   -0.92347      1.99944     4.90492    0.01911     6.92347
      H   51    0.23070      0.00000     0.76822    0.00107     0.76930
      H   52    0.20182      0.00000     0.79487    0.00331     0.79818
      H   53    0.22837      0.00000     0.77052    0.00111     0.77163
      C   54   -0.20407      1.99938     4.18864    0.01605     6.20407
      H   55    0.20000      0.00000     0.79838    0.00161     0.80000
      C   56   -0.38870      1.99936     4.37515    0.01419     6.38870
      H   57    0.19821      0.00000     0.80001    0.00178     0.80179
      H   58    0.19686      0.00000     0.80162    0.00152     0.80314
      C   59   -0.60105      1.99937     4.58973    0.01194     6.60105
      H   60    0.20204      0.00000     0.79664    0.00132     0.79796
      H   61    0.20176      0.00000     0.79622    0.00202     0.79824
      H   62    0.21218      0.00000     0.78622    0.00160     0.78782
      C   63   -0.38772      1.99936     4.37445    0.01391     6.38772
      H   64    0.19878      0.00000     0.79948    0.00175     0.80122
      H   65    0.19655      0.00000     0.80189    0.00156     0.80345
      C   66   -0.40896      1.99929     4.39435    0.01532     6.40896
      H   67    0.19452      0.00000     0.80301    0.00247     0.80548
      H   68    0.19635      0.00000     0.80151    0.00214     0.80365
      C   69   -0.59953      1.99937     4.58812    0.01205     6.59953
      H   70    0.21474      0.00000     0.78378    0.00147     0.78526
      H   71    0.20094      0.00000     0.79699    0.00207     0.79906
      H   72    0.19623      0.00000     0.80233    0.00144     0.80377
 =======================================================================
   * Total *    0.00000     71.98035   157.42195    0.59771   230.00000

 Normal termination of Gaussian 16 at Wed Nov  6 22:51:23 2024.
