 Gaussian 16, Revision B.01,
 Gaussian 16:  ES64L-G16RevB.01 20-Dec-2017

 --------------------------------------------
 # nmr=giao b3lyp/def2TZVP pop=nbo scfcyc=200
 --------------------------------------------

 --------------
 MB-83 SPE NoRh
 --------------
 Symbolic Z-matrix:
 Charge =  0 Multiplicity = 1

                         Standard orientation:
 ---------------------------------------------------------------------
 Center     Atomic      Atomic             Coordinates (Angstroms)
 Number     Number       Type             X           Y           Z
 ---------------------------------------------------------------------
      1         15           0        1.060218   -0.281102   -0.656468
      2          6           0        2.547031   -1.296554   -0.276502
      3          6           0        2.419235   -2.677823   -0.091995
      4          6           0        3.538569   -3.467540    0.128070
      5          6           0        4.821987   -2.913508    0.155119
      6          6           0        4.942572   -1.538167   -0.053510
      7          6           0        3.826718   -0.737544   -0.267098
      8          1           0        3.960089    0.325275   -0.418036
      9          1           0        5.925732   -1.081327   -0.047619
     10          1           0        3.414924   -4.534493    0.275956
     11          1           0        1.445031   -3.150869   -0.123735
     12          6           0        1.519850    1.457272   -0.298067
     13          6           0        1.466817    2.412350   -1.312344
     14          6           0        1.813198    3.735087   -1.053692
     15          6           0        2.215706    4.138941    0.218079
     16          6           0        2.260470    3.174240    1.232468
     17          6           0        1.920962    1.854025    0.983786
     18          1           0        1.976646    1.132647    1.789674
     19          1           0        2.566339    3.464273    2.231234
     20          1           0        1.764596    4.463313   -1.855463
     21          1           0        1.146026    2.126259   -2.306332
     22          6           0       -0.269860   -0.727150    0.591632
     23         15           0       -1.711478   -0.558934   -0.594635
     24          6           0       -2.944345   -1.867899   -0.186340
     25          6           0       -4.311136   -1.581564   -0.131629
     26          6           0       -5.230758   -2.600386    0.101541
     27          6           0       -4.798300   -3.909020    0.278787
     28          6           0       -3.438871   -4.202974    0.213226
     29          6           0       -2.517924   -3.190785   -0.027707
     30          1           0       -1.466346   -3.442796   -0.095733
     31          1           0       -3.095325   -5.220800    0.346327
     32          1           0       -5.515806   -4.698993    0.463769
     33          1           0       -6.287687   -2.366585    0.147369
     34          1           0       -4.664041   -0.566958   -0.259068
     35          6           0       -2.511930    1.040700   -0.171760
     36          6           0       -2.951350    1.301357    1.130562
     37          6           0       -3.547531    2.518219    1.436781
     38          6           0       -3.710729    3.484488    0.446183
     39          6           0       -3.274719    3.232864   -0.849752
     40          6           0       -2.675213    2.015093   -1.158235
     41          1           0       -2.324397    1.826838   -2.165102
     42          1           0       -3.398863    3.983349   -1.620313
     43          1           0       -4.176737    4.431177    0.687146
     44          1           0       -3.885958    2.712581    2.445698
     45          1           0       -2.840268    0.554279    1.907963
     46          1           0       -0.157775   -1.767631    0.893571
     47          1           0       -0.313661   -0.100555    1.481967
     48          6           0        2.609660    5.564258    0.499232
     49          1           0        2.158412    5.924660    1.425080
     50          1           0        3.694291    5.651641    0.612560
     51          1           0        2.306896    6.230036   -0.309701
     52          6           0        6.030080   -3.769918    0.422331
     53          1           0        6.192134   -3.882996    1.498542
     54          1           0        5.909928   -4.770973    0.005370
     55          1           0        6.933596   -3.329193    0.000424
 ---------------------------------------------------------------------

 SCF Done:  E(RB3LYP) =  -1727.66082354     A.U. after   14 cycles

      1  P    Isotropic =   238.8401   Anisotropy =   102.2877

      2  C    Isotropic =    31.6614   Anisotropy =   194.0433

      3  C    Isotropic =    50.2859   Anisotropy =   176.9694

      4  C    Isotropic =    49.5441   Anisotropy =   163.8314

      5  C    Isotropic =    40.8784   Anisotropy =   194.5956

      6  C    Isotropic =    49.0510   Anisotropy =   161.2780

      7  C    Isotropic =    50.7433   Anisotropy =   178.1432

      8  H    Isotropic =    25.3199   Anisotropy =    13.4750

      9  H    Isotropic =    24.7950   Anisotropy =     8.2514

     10  H    Isotropic =    24.4091   Anisotropy =     7.7311

     11  H    Isotropic =    24.0355   Anisotropy =    10.5773

     12  C    Isotropic =    40.6110   Anisotropy =   202.0369

     13  C    Isotropic =    39.1474   Anisotropy =   180.1990

     14  C    Isotropic =    49.8877   Anisotropy =   160.0784

     15  C    Isotropic =    35.2655   Anisotropy =   206.3329

     16  C    Isotropic =    47.8857   Anisotropy =   170.8260

     17  C    Isotropic =    40.3386   Anisotropy =   185.8991

     18  H    Isotropic =    24.2357   Anisotropy =     9.9971

     19  H    Isotropic =    24.5870   Anisotropy =     7.3401

     20  H    Isotropic =    24.6112   Anisotropy =     6.5483

     21  H    Isotropic =    23.9176   Anisotropy =     7.7065

     22  C    Isotropic =   144.1642   Anisotropy =    18.9123

     23  P    Isotropic =   236.7790   Anisotropy =   105.2685

     24  C    Isotropic =    27.9595   Anisotropy =   197.7920

     25  C    Isotropic =    50.5158   Anisotropy =   181.6550

     26  C    Isotropic =    49.6899   Anisotropy =   182.6771

     27  C    Isotropic =    53.6061   Anisotropy =   179.4145

     28  C    Isotropic =    50.3851   Anisotropy =   182.5572

     29  C    Isotropic =    50.2045   Anisotropy =   180.2672

     30  H    Isotropic =    23.9150   Anisotropy =    10.5577

     31  H    Isotropic =    24.2663   Anisotropy =     6.0003

     32  H    Isotropic =    24.6080   Anisotropy =     4.2017

     33  H    Isotropic =    24.6118   Anisotropy =     6.4706

     34  H    Isotropic =    25.1949   Anisotropy =    13.5271

     35  C    Isotropic =    36.0302   Anisotropy =   207.0348

     36  C    Isotropic =    39.8647   Anisotropy =   188.5400

     37  C    Isotropic =    48.8156   Anisotropy =   186.7463

     38  C    Isotropic =    48.4934   Anisotropy =   190.6368

     39  C    Isotropic =    50.4381   Anisotropy =   184.7859

     40  C    Isotropic =    39.2838   Anisotropy =   184.5926

     41  H    Isotropic =    23.8255   Anisotropy =     7.6919

     42  H    Isotropic =    24.4309   Anisotropy =     4.9955

     43  H    Isotropic =    24.4606   Anisotropy =     3.8492

     44  H    Isotropic =    24.4464   Anisotropy =     5.4299

     45  H    Isotropic =    24.0940   Anisotropy =    10.1807

     46  H    Isotropic =    29.3329   Anisotropy =     7.0023

     47  H    Isotropic =    28.8753   Anisotropy =     3.3010

     48  C    Isotropic =   160.3718   Anisotropy =    41.5711

     49  H    Isotropic =    29.6053   Anisotropy =     7.3855

     50  H    Isotropic =    29.3573   Anisotropy =     9.1005

     51  H    Isotropic =    29.8677   Anisotropy =     6.9920

     52  C    Isotropic =   160.6380   Anisotropy =    41.8534

     53  H    Isotropic =    29.3584   Anisotropy =     8.5550

     54  H    Isotropic =    29.5938   Anisotropy =     7.7653

     55  H    Isotropic =    29.7534   Anisotropy =     7.5437

 The electronic state is 1-A.
 Alpha  occ. eigenvalues --  -77.04689 -77.04495 -10.19090 -10.18435 -10.18350
 Alpha  occ. eigenvalues --  -10.18276 -10.18221 -10.18194 -10.18185 -10.18058
 Alpha  occ. eigenvalues --  -10.18033 -10.18026 -10.18002 -10.17970 -10.17965
 Alpha  occ. eigenvalues --  -10.17791 -10.17609 -10.17589 -10.17579 -10.17455
 Alpha  occ. eigenvalues --  -10.17401 -10.17391 -10.17334 -10.17211 -10.17137
 Alpha  occ. eigenvalues --  -10.17036 -10.17001 -10.16878 -10.16706  -6.53254
 Alpha  occ. eigenvalues --   -6.53060  -4.69404  -4.69375  -4.69215  -4.69177
 Alpha  occ. eigenvalues --   -4.68889  -4.68696  -0.86570  -0.86395  -0.85725
 Alpha  occ. eigenvalues --   -0.85551  -0.78885  -0.77302  -0.77029  -0.75413
 Alpha  occ. eigenvalues --   -0.75199  -0.74850  -0.74500  -0.74444  -0.73131
 Alpha  occ. eigenvalues --   -0.69460  -0.68476  -0.63233  -0.61333  -0.61219
 Alpha  occ. eigenvalues --   -0.61008  -0.60645  -0.60104  -0.59992  -0.58440
 Alpha  occ. eigenvalues --   -0.56028  -0.55212  -0.52284  -0.50553  -0.50246
 Alpha  occ. eigenvalues --   -0.47937  -0.47206  -0.46536  -0.46025  -0.45950
 Alpha  occ. eigenvalues --   -0.45456  -0.45289  -0.45017  -0.44567  -0.43694
 Alpha  occ. eigenvalues --   -0.42971  -0.42895  -0.42619  -0.42329  -0.42195
 Alpha  occ. eigenvalues --   -0.41992  -0.41416  -0.40248  -0.39468  -0.38900
 Alpha  occ. eigenvalues --   -0.38720  -0.37945  -0.37491  -0.37235  -0.36320
 Alpha  occ. eigenvalues --   -0.36156  -0.35340  -0.35236  -0.34695  -0.34645
 Alpha  occ. eigenvalues --   -0.34060  -0.32596  -0.32239  -0.31827  -0.27349
 Alpha  occ. eigenvalues --   -0.26639  -0.26444  -0.26224  -0.25937  -0.25580
 Alpha  occ. eigenvalues --   -0.25444  -0.24703  -0.21644  -0.18504
 Alpha virt. eigenvalues --   -0.03834  -0.02790  -0.02577  -0.02100  -0.01875
 Alpha virt. eigenvalues --   -0.01358  -0.00917  -0.00724   0.01949   0.03665
 Alpha virt. eigenvalues --    0.04196   0.04665   0.04963   0.05254   0.05765

 Mulliken charges:
               1
     1  P    0.158523
     2  C    0.029712
     3  C   -0.170487
     4  C   -0.202800
     5  C    0.175612
     6  C   -0.202439
     7  C   -0.140492
     8  H    0.133595
     9  H    0.097061
    10  H    0.095390
    11  H    0.121248
    12  C    0.026852
    13  C   -0.132427
    14  C   -0.173370
    15  C    0.175454
    16  C   -0.163019
    17  C   -0.185780
    18  H    0.120554
    19  H    0.100726
    20  H    0.100845
    21  H    0.112052
    22  C   -0.375210
    23  P    0.165375
    24  C    0.038796
    25  C   -0.155300
    26  C   -0.128983
    27  C   -0.103260
    28  C   -0.132368
    29  C   -0.180783
    30  H    0.126504
    31  H    0.103762
    32  H    0.105773
    33  H    0.105944
    34  H    0.136965
    35  C    0.037626
    36  C   -0.198237
    37  C   -0.097694
    38  C   -0.096679
    39  C   -0.106610
    40  C   -0.139062
    41  H    0.115377
    42  H    0.109256
    43  H    0.111322
    44  H    0.108916
    45  H    0.124962
    46  H    0.128465
    47  H    0.132058
    48  C   -0.360834
    49  H    0.120327
    50  H    0.122972
    51  H    0.115022
    52  C   -0.362245
    53  H    0.119545
    54  H    0.116118
    55  H    0.115370
 Sum of Mulliken charges =  -0.00000

 Dipole moment (field-independent basis, Debye):
    X=              0.4711    Y=              1.9614    Z=              2.2635  Tot=              3.0319
 Quadrupole moment (field-independent basis, Debye-Ang):
   XX=           -176.6619   YY=           -164.4493   ZZ=           -188.4076
   XY=             -2.1806   XZ=             -0.1257   YZ=             -4.2006

 Summary of Natural Population Analysis:

                                       Natural Population
                Natural  -----------------------------------------------
    Atom  No    Charge         Core      Valence    Rydberg      Total
 -----------------------------------------------------------------------
      P    1    0.82717      9.99816     4.14071    0.03397    14.17283
      C    2   -0.32592      1.99898     4.29767    0.02927     6.32592
      C    3   -0.20313      1.99909     4.18417    0.01987     6.20313
      C    4   -0.19642      1.99909     4.17942    0.01791     6.19642
      C    5   -0.02806      1.99912     4.00902    0.01992     6.02806
      C    6   -0.19558      1.99909     4.17859    0.01789     6.19558
      C    7   -0.20334      1.99909     4.18424    0.02001     6.20334
      H    8    0.21329      0.00000     0.78478    0.00193     0.78671
      H    9    0.20218      0.00000     0.79631    0.00151     0.79782
      H   10    0.20259      0.00000     0.79592    0.00149     0.79741
      H   11    0.19755      0.00000     0.80042    0.00203     0.80245
      C   12   -0.34927      1.99900     4.31761    0.03265     6.34927
      C   13   -0.17550      1.99910     4.15573    0.02067     6.17550
      C   14   -0.20770      1.99909     4.19028    0.01833     6.20770
      C   15   -0.00464      1.99912     3.98665    0.01886     6.00464
      C   16   -0.20555      1.99908     4.18851    0.01795     6.20555
      C   17   -0.18164      1.99909     4.16320    0.01934     6.18164
      H   18    0.20807      0.00000     0.78953    0.00240     0.79193
      H   19    0.20150      0.00000     0.79682    0.00169     0.79850
      H   20    0.20503      0.00000     0.79349    0.00147     0.79497
      H   21    0.21830      0.00000     0.78008    0.00162     0.78170
      C   22   -0.99063      1.99944     4.95798    0.03320     6.99063
      P   23    0.82701      9.99816     4.14094    0.03389    14.17299
      C   24   -0.31392      1.99899     4.28524    0.02970     6.31392
      C   25   -0.21247      1.99908     4.19333    0.02006     6.21247
      C   26   -0.19504      1.99919     4.17691    0.01894     6.19504
      C   27   -0.21756      1.99919     4.19867    0.01970     6.21756
      C   28   -0.19623      1.99919     4.17809    0.01896     6.19623
      C   29   -0.21287      1.99908     4.19379    0.02000     6.21287
      H   30    0.19851      0.00000     0.79952    0.00197     0.80149
      H   31    0.20704      0.00000     0.79164    0.00131     0.79296
      H   32    0.20718      0.00000     0.79162    0.00120     0.79282
      H   33    0.20696      0.00000     0.79172    0.00133     0.79304
      H   34    0.21400      0.00000     0.78414    0.00186     0.78600
      C   35   -0.33608      1.99901     4.30361    0.03346     6.33608
      C   36   -0.19229      1.99908     4.17303    0.02018     6.19229
      C   37   -0.20576      1.99919     4.18753    0.01904     6.20576
      C   38   -0.19500      1.99919     4.17685    0.01896     6.19500
      C   39   -0.20590      1.99918     4.18730    0.01941     6.20590
      C   40   -0.18438      1.99910     4.16464    0.02064     6.18438
      H   41    0.21884      0.00000     0.77952    0.00164     0.78116
      H   42    0.20962      0.00000     0.78911    0.00128     0.79038
      H   43    0.20838      0.00000     0.79044    0.00117     0.79162
      H   44    0.20823      0.00000     0.79039    0.00138     0.79177
      H   45    0.20906      0.00000     0.78850    0.00244     0.79094
      H   46    0.24777      0.00000     0.75040    0.00183     0.75223
      H   47    0.24107      0.00000     0.75655    0.00238     0.75893
      C   48   -0.61137      1.99941     4.60017    0.01179     6.61137
      H   49    0.21425      0.00000     0.78461    0.00115     0.78575
      H   50    0.21654      0.00000     0.78222    0.00124     0.78346
      H   51    0.21073      0.00000     0.78818    0.00109     0.78927
      C   52   -0.60856      1.99941     4.59719    0.01196     6.60856
      H   53    0.21296      0.00000     0.78568    0.00136     0.78704
      H   54    0.21073      0.00000     0.78811    0.00116     0.78927
      H   55    0.21026      0.00000     0.78861    0.00113     0.78974
 =======================================================================
   * Total *   -0.00000     73.97299   143.34941    0.67760   218.00000

 Normal termination of Gaussian 16 at Fri Jan 24 00:50:53 2025.
