 Gaussian 16, Revision B.01,
 Gaussian 16:  ES64L-G16RevB.01 20-Dec-2017

 --------------------------------------------
 # nmr=giao b3lyp/def2TZVP pop=nbo scfcyc=200
 --------------------------------------------

 ------------------
 Ligand 59 SPE NoRh
 ------------------
 Symbolic Z-matrix:
 Charge =  0 Multiplicity = 1

                         Standard orientation:
 ---------------------------------------------------------------------
 Center     Atomic      Atomic             Coordinates (Angstroms)
 Number     Number       Type             X           Y           Z
 ---------------------------------------------------------------------
      1         15           0       -2.396059    0.281919   -0.656165
      2         15           0        0.395568    0.442705   -1.135802
      3          6           0       -3.490096    1.565651    1.704331
      4          1           0       -2.484482    1.653485    2.117994
      5          1           0       -3.939184    0.657162    2.096252
      6          1           0       -4.069077    2.409106    2.091537
      7          6           0       -3.507721    1.627227    0.167303
      8          6           0       -4.956873    1.506801   -0.330212
      9          1           0       -5.518068    2.384177    0.001795
     10          1           0       -5.460590    0.631200    0.076165
     11          1           0       -5.027018    1.469630   -1.418752
     12          6           0       -2.941211    2.991743   -0.269749
     13          1           0       -2.936177    3.109176   -1.352463
     14          1           0       -1.924953    3.153272    0.089043
     15          1           0       -3.563705    3.783189    0.156223
     16          6           0       -3.065445   -1.501221   -0.383052
     17          6           0       -4.272473   -1.753271   -1.302663
     18          1           0       -5.115057   -1.097361   -1.096645
     19          1           0       -4.615839   -2.781038   -1.154001
     20          1           0       -4.004826   -1.653017   -2.355336
     21          6           0       -3.455975   -1.787247    1.074548
     22          1           0       -2.661248   -1.537519    1.779769
     23          1           0       -3.659182   -2.856418    1.180010
     24          1           0       -4.360745   -1.259484    1.370657
     25          6           0       -1.943493   -2.465460   -0.803912
     26          1           0       -1.601571   -2.276966   -1.823282
     27          1           0       -2.330380   -3.487264   -0.767840
     28          1           0       -1.080461   -2.423325   -0.139924
     29          6           0       -0.782215    0.370322    0.309871
     30          1           0       -0.731809    1.295283    0.881164
     31          1           0       -0.596999   -0.449478    0.999831
     32          6           0        1.637141    1.784524   -0.878241
     33          6           0        1.327051    2.954152   -0.178729
     34          1           0        0.367153    3.073056    0.305413
     35          6           0        2.254011    3.986050   -0.084430
     36          1           0        2.004364    4.880798    0.470472
     37          6           0        3.496742    3.870195   -0.700095
     38          1           0        4.217811    4.674293   -0.624790
     39          6           0        3.807928    2.715232   -1.410223
     40          1           0        4.773604    2.615898   -1.891600
     41          6           0        2.884515    1.679226   -1.502389
     42          1           0        3.150944    0.780485   -2.046004
     43          6           0        1.366657   -1.134545   -1.189099
     44          6           0        1.477864   -1.727426   -2.452879
     45          1           0        0.987922   -1.262060   -3.296683
     46          6           0        2.178733   -2.910359   -2.643520
     47          1           0        2.252074   -3.343745   -3.633313
     48          6           0        2.768292   -3.534314   -1.552988
     49          1           0        3.316662   -4.459106   -1.680255
     50          6           0        2.648677   -2.969085   -0.290033
     51          1           0        3.108623   -3.457532    0.559196
     52          6           0        1.961856   -1.768479   -0.073715
     53          6           0        1.880871   -1.284885    1.337700
     54          6           0        2.515373   -0.115761    1.764797
     55          1           0        3.075269    0.481747    1.059535
     56          6           0        2.461280    0.271554    3.101271
     57          1           0        2.971296    1.173907    3.416183
     58          6           0        1.775723   -0.502387    4.031065
     59          1           0        1.739574   -0.200185    5.070198
     60          6           0        1.153189   -1.676591    3.620700
     61          1           0        0.631422   -2.296305    4.339818
     62          6           0        1.212131   -2.068595    2.287761
     63          1           0        0.736834   -2.992745    1.978631
 ---------------------------------------------------------------------

 SCF Done:  E(RB3LYP) =  -1732.47112201     A.U. after   15 cycles

      1  P    Isotropic =   190.0824   Anisotropy =    95.4671

      2  P    Isotropic =   232.8673   Anisotropy =   100.3308

      3  C    Isotropic =   155.3856   Anisotropy =    37.9383

      4  H    Isotropic =    30.8714   Anisotropy =     5.4431

      5  H    Isotropic =    30.6310   Anisotropy =     5.6872

      6  H    Isotropic =    31.2216   Anisotropy =     9.6919

      7  C    Isotropic =   139.8710   Anisotropy =    20.4730

      8  C    Isotropic =   153.6270   Anisotropy =    37.7490

      9  H    Isotropic =    31.1927   Anisotropy =     9.8444

     10  H    Isotropic =    30.8509   Anisotropy =     7.1024

     11  H    Isotropic =    30.6660   Anisotropy =     7.9764

     12  C    Isotropic =   150.4171   Anisotropy =    46.3526

     13  H    Isotropic =    30.6243   Anisotropy =     7.5332

     14  H    Isotropic =    30.7461   Anisotropy =     7.7159

     15  H    Isotropic =    31.3545   Anisotropy =     9.3482

     16  C    Isotropic =   142.2869   Anisotropy =    16.0652

     17  C    Isotropic =   152.5357   Anisotropy =    45.3338

     18  H    Isotropic =    30.6449   Anisotropy =     7.8706

     19  H    Isotropic =    31.3633   Anisotropy =     9.6851

     20  H    Isotropic =    30.7894   Anisotropy =     8.2406

     21  C    Isotropic =   154.5547   Anisotropy =    33.6234

     22  H    Isotropic =    30.9472   Anisotropy =     5.2069

     23  H    Isotropic =    31.2929   Anisotropy =     9.0895

     24  H    Isotropic =    30.7506   Anisotropy =     7.2018

     25  C    Isotropic =   150.3979   Anisotropy =    42.6512

     26  H    Isotropic =    31.2669   Anisotropy =     8.5703

     27  H    Isotropic =    31.7386   Anisotropy =     7.0813

     28  H    Isotropic =    31.8092   Anisotropy =    11.5387

     29  C    Isotropic =   163.8183   Anisotropy =    18.9388

     30  H    Isotropic =    30.7499   Anisotropy =     5.6980

     31  H    Isotropic =    30.4193   Anisotropy =    12.8755

     32  C    Isotropic =    25.8463   Anisotropy =   204.5279

     33  C    Isotropic =    53.9979   Anisotropy =   179.4988

     34  H    Isotropic =    24.4937   Anisotropy =     9.9684

     35  C    Isotropic =    50.0239   Anisotropy =   183.0213

     36  H    Isotropic =    24.3890   Anisotropy =     6.1390

     37  C    Isotropic =    54.5207   Anisotropy =   177.7992

     38  H    Isotropic =    24.6375   Anisotropy =     3.6962

     39  C    Isotropic =    49.1415   Anisotropy =   183.5698

     40  H    Isotropic =    24.4986   Anisotropy =     6.3758

     41  C    Isotropic =    50.8864   Anisotropy =   181.9788

     42  H    Isotropic =    24.8170   Anisotropy =    13.3221

     43  C    Isotropic =    38.5996   Anisotropy =   192.0552

     44  C    Isotropic =    37.4942   Anisotropy =   178.3154

     45  H    Isotropic =    23.6615   Anisotropy =     8.4756

     46  C    Isotropic =    52.0103   Anisotropy =   180.7703

     47  H    Isotropic =    24.2306   Anisotropy =     4.6541

     48  C    Isotropic =    48.6391   Anisotropy =   186.2976

     49  H    Isotropic =    24.1980   Anisotropy =     4.1386

     50  C    Isotropic =    44.8469   Anisotropy =   168.1034

     51  H    Isotropic =    24.4224   Anisotropy =     9.9904

     52  C    Isotropic =    24.1116   Anisotropy =   192.7882

     53  C    Isotropic =    30.5974   Anisotropy =   195.4440

     54  C    Isotropic =    46.7531   Anisotropy =   188.1602

     55  H    Isotropic =    25.1884   Anisotropy =     6.6151

     56  C    Isotropic =    50.2381   Anisotropy =   186.4941

     57  H    Isotropic =    24.7087   Anisotropy =     6.9359

     58  C    Isotropic =    51.4337   Anisotropy =   186.1746

     59  H    Isotropic =    24.4199   Anisotropy =     3.9231

     60  C    Isotropic =    50.4418   Anisotropy =   184.6102

     61  H    Isotropic =    24.2826   Anisotropy =     4.8512

     62  C    Isotropic =    48.1976   Anisotropy =   171.4832

     63  H    Isotropic =    24.4252   Anisotropy =     7.3658

 The electronic state is 1-A.
 Alpha  occ. eigenvalues --  -77.04637 -77.03317 -10.19577 -10.19101 -10.18947
 Alpha  occ. eigenvalues --  -10.18940 -10.18903 -10.18356 -10.18256 -10.18095
 Alpha  occ. eigenvalues --  -10.18075 -10.18019 -10.17983 -10.17965 -10.17925
 Alpha  occ. eigenvalues --  -10.17866 -10.17774 -10.17672 -10.17517 -10.17459
 Alpha  occ. eigenvalues --  -10.17435 -10.17250 -10.17122 -10.16136 -10.16040
 Alpha  occ. eigenvalues --  -10.15950 -10.15874 -10.15792 -10.15756  -6.53190
 Alpha  occ. eigenvalues --   -6.51848  -4.69344  -4.69309  -4.68825  -4.68017
 Alpha  occ. eigenvalues --   -4.67936  -4.67474  -0.87705  -0.85697  -0.85488
 Alpha  occ. eigenvalues --   -0.81875  -0.80344  -0.78532  -0.76879  -0.75215
 Alpha  occ. eigenvalues --   -0.74887  -0.74614  -0.72968  -0.72446  -0.69139
 Alpha  occ. eigenvalues --   -0.68943  -0.68377  -0.68284  -0.63874  -0.62576
 Alpha  occ. eigenvalues --   -0.61330  -0.60709  -0.60174  -0.59735  -0.58672
 Alpha  occ. eigenvalues --   -0.55527  -0.54821  -0.53070  -0.51331  -0.50838
 Alpha  occ. eigenvalues --   -0.49688  -0.47155  -0.46853  -0.46684  -0.45736
 Alpha  occ. eigenvalues --   -0.45456  -0.45187  -0.45045  -0.44435  -0.44211
 Alpha  occ. eigenvalues --   -0.44030  -0.43535  -0.42945  -0.42757  -0.42600
 Alpha  occ. eigenvalues --   -0.42441  -0.41915  -0.40136  -0.39714  -0.39443
 Alpha  occ. eigenvalues --   -0.38960  -0.38354  -0.37949  -0.37875  -0.37504
 Alpha  occ. eigenvalues --   -0.37339  -0.37166  -0.36929  -0.36400  -0.35473
 Alpha  occ. eigenvalues --   -0.35060  -0.34616  -0.34312  -0.34172  -0.33958
 Alpha  occ. eigenvalues --   -0.33267  -0.32945  -0.32283  -0.30433  -0.28299
 Alpha  occ. eigenvalues --   -0.27652  -0.27158  -0.26205  -0.26010  -0.25683
 Alpha  occ. eigenvalues --   -0.24649  -0.21345  -0.18127
 Alpha virt. eigenvalues --   -0.03978  -0.02996  -0.02190  -0.01537  -0.01188
 Alpha virt. eigenvalues --   -0.00503   0.02321   0.02595   0.03982   0.04060
 Alpha virt. eigenvalues --    0.04696   0.05021   0.05354   0.05750   0.06858

 Mulliken charges:
               1
     1  P    0.111167
     2  P    0.167175
     3  C   -0.347010
     4  H    0.112498
     5  H    0.112486
     6  H    0.097420
     7  C    0.075871
     8  C   -0.386761
     9  H    0.107879
    10  H    0.107126
    11  H    0.128572
    12  C   -0.344066
    13  H    0.127146
    14  H    0.092010
    15  H    0.104611
    16  C    0.101503
    17  C   -0.357194
    18  H    0.114360
    19  H    0.103036
    20  H    0.118721
    21  C   -0.374118
    22  H    0.125906
    23  H    0.100732
    24  H    0.104054
    25  C   -0.383568
    26  H    0.126333
    27  H    0.108735
    28  H    0.114684
    29  C   -0.386086
    30  H    0.113462
    31  H    0.148145
    32  C   -0.017925
    33  C   -0.099599
    34  H    0.091040
    35  C   -0.154068
    36  H    0.104217
    37  C   -0.095749
    38  H    0.105624
    39  C   -0.139524
    40  H    0.106366
    41  C   -0.141816
    42  H    0.137815
    43  C   -0.144057
    44  C   -0.097629
    45  H    0.115508
    46  C   -0.120586
    47  H    0.111189
    48  C   -0.080752
    49  H    0.110668
    50  C   -0.227160
    51  H    0.115470
    52  C    0.147527
    53  C    0.101615
    54  C   -0.141430
    55  H    0.176325
    56  C   -0.148088
    57  H    0.110957
    58  C   -0.100519
    59  H    0.109370
    60  C   -0.097991
    61  H    0.109510
    62  C   -0.213336
    63  H    0.122195
 Sum of Mulliken charges =  -0.00000

 Dipole moment (field-independent basis, Debye):
    X=              0.1398    Y=             -1.0134    Z=              1.8481  Tot=              2.1123
 Quadrupole moment (field-independent basis, Debye-Ang):
   XX=           -188.0222   YY=           -183.4980   ZZ=           -190.9291
   XY=             -0.0888   XZ=             -4.4822   YZ=              6.3755

 Summary of Natural Population Analysis:

                                       Natural Population
                Natural  -----------------------------------------------
    Atom  No    Charge         Core      Valence    Rydberg      Total
 -----------------------------------------------------------------------
      P    1    0.78549      9.99843     4.18659    0.02950    14.21451
      P    2    0.84557      9.99808     4.12320    0.03314    14.15443
      C    3   -0.60384      1.99937     4.59227    0.01220     6.60384
      H    4    0.19939      0.00000     0.79923    0.00137     0.80061
      H    5    0.20466      0.00000     0.79398    0.00136     0.79534
      H    6    0.19494      0.00000     0.80273    0.00233     0.80506
      C    7   -0.26980      1.99946     4.24583    0.02452     6.26980
      C    8   -0.60175      1.99937     4.59032    0.01206     6.60175
      H    9    0.20176      0.00000     0.79612    0.00212     0.79824
      H   10    0.19979      0.00000     0.79872    0.00149     0.80021
      H   11    0.21212      0.00000     0.78635    0.00153     0.78788
      C   12   -0.59932      1.99937     4.58773    0.01222     6.59932
      H   13    0.21677      0.00000     0.78189    0.00135     0.78323
      H   14    0.19579      0.00000     0.80297    0.00124     0.80421
      H   15    0.20130      0.00000     0.79661    0.00210     0.79870
      C   16   -0.27352      1.99945     4.24947    0.02459     6.27352
      C   17   -0.60041      1.99937     4.58874    0.01230     6.60041
      H   18    0.20476      0.00000     0.79394    0.00130     0.79524
      H   19    0.19924      0.00000     0.79874    0.00201     0.80076
      H   20    0.21252      0.00000     0.78602    0.00146     0.78748
      C   21   -0.60350      1.99937     4.59190    0.01224     6.60350
      H   22    0.20344      0.00000     0.79517    0.00139     0.79656
      H   23    0.19598      0.00000     0.80167    0.00235     0.80402
      H   24    0.19894      0.00000     0.79954    0.00152     0.80106
      C   25   -0.60415      1.99937     4.59148    0.01330     6.60415
      H   26    0.21651      0.00000     0.78208    0.00140     0.78349
      H   27    0.20360      0.00000     0.79428    0.00211     0.79640
      H   28    0.20359      0.00000     0.79486    0.00155     0.79641
      C   29   -1.02924      1.99945     4.99850    0.03129     7.02924
      H   30    0.24589      0.00000     0.75154    0.00256     0.75411
      H   31    0.25166      0.00000     0.74530    0.00304     0.74834
      C   32   -0.31096      1.99898     4.28106    0.03091     6.31096
      C   33   -0.21971      1.99907     4.20133    0.01931     6.21971
      H   34    0.19668      0.00000     0.80075    0.00257     0.80332
      C   35   -0.19395      1.99919     4.17613    0.01864     6.19395
      H   36    0.20675      0.00000     0.79198    0.00128     0.79325
      C   37   -0.22328      1.99919     4.20438    0.01971     6.22328
      H   38    0.20740      0.00000     0.79143    0.00118     0.79260
      C   39   -0.19431      1.99918     4.17666    0.01847     6.19431
      H   40    0.20784      0.00000     0.79088    0.00128     0.79216
      C   41   -0.22001      1.99908     4.20168    0.01925     6.22001
      H   42    0.21336      0.00000     0.78481    0.00183     0.78664
      C   43   -0.31168      1.99890     4.28164    0.03113     6.31168
      C   44   -0.19199      1.99911     4.17143    0.02145     6.19199
      H   45    0.22126      0.00000     0.77718    0.00156     0.77874
      C   46   -0.20899      1.99916     4.19058    0.01925     6.20899
      H   47    0.21110      0.00000     0.78772    0.00118     0.78890
      C   48   -0.19096      1.99918     4.17330    0.01848     6.19096
      H   49    0.21009      0.00000     0.78868    0.00122     0.78991
      C   50   -0.19447      1.99909     4.17724    0.01814     6.19447
      H   51    0.20983      0.00000     0.78869    0.00147     0.79017
      C   52   -0.03506      1.99895     4.01236    0.02375     6.03506
      C   53   -0.04840      1.99902     4.02749    0.02188     6.04840
      C   54   -0.19196      1.99906     4.17411    0.01879     6.19196
      H   55    0.22316      0.00000     0.77441    0.00243     0.77684
      C   56   -0.19745      1.99919     4.17933    0.01893     6.19745
      H   57    0.21080      0.00000     0.78797    0.00123     0.78920
      C   58   -0.20919      1.99919     4.19087    0.01914     6.20919
      H   59    0.20884      0.00000     0.79001    0.00115     0.79116
      C   60   -0.20343      1.99919     4.18548    0.01876     6.20343
      H   61    0.20918      0.00000     0.78960    0.00122     0.79082
      C   62   -0.20915      1.99908     4.19158    0.01849     6.20915
      H   63    0.21046      0.00000     0.78799    0.00155     0.78954
 =======================================================================
   * Total *    0.00000     73.97488   151.37654    0.64858   226.00000

 Normal termination of Gaussian 16 at Wed Nov  6 19:24:04 2024.
