 Gaussian 16, Revision B.01,
 Gaussian 16:  ES64L-G16RevB.01 20-Dec-2017

 --------------------------------------------
 # nmr=giao b3lyp/def2TZVP pop=nbo scfcyc=200
 --------------------------------------------

 ------------------
 Ligand 44 SPE NoRh
 ------------------
 Symbolic Z-matrix:
 Charge =  0 Multiplicity = 1

                         Standard orientation:
 ---------------------------------------------------------------------
 Center     Atomic      Atomic             Coordinates (Angstroms)
 Number     Number       Type             X           Y           Z
 ---------------------------------------------------------------------
      1         15           0        0.766041    0.856380   -0.916210
      2         15           0       -1.940577    0.242600   -0.648587
      3          6           0        1.798175   -0.659007   -0.785910
      4          6           0        1.795318   -1.498674   -1.881901
      5          1           0        1.213421   -1.230111   -2.753988
      6          6           0        2.518085   -2.707280   -1.885029
      7          1           0        2.497317   -3.340647   -2.762320
      8          6           0        3.234892   -3.073364   -0.778379
      9          1           0        3.791038   -4.003016   -0.767686
     10          6           0        3.266947   -2.250972    0.375837
     11          6           0        4.006436   -2.636003    1.521224
     12          1           0        4.548209   -3.574430    1.497706
     13          6           0        4.041966   -1.842895    2.638611
     14          1           0        4.611075   -2.147474    3.507799
     15          6           0        3.339741   -0.621905    2.651154
     16          1           0        3.378148    0.007447    3.531565
     17          6           0        2.614288   -0.218474    1.557790
     18          1           0        2.107086    0.735618    1.591910
     19          6           0        2.545005   -1.013823    0.386350
     20          6           0        1.869055    2.300276   -0.606944
     21          6           0        3.215212    2.234412   -0.977802
     22          1           0        3.633224    1.310897   -1.358453
     23          6           0        4.034467    3.350370   -0.838863
     24          1           0        5.078658    3.285512   -1.121069
     25          6           0        3.520978    4.539584   -0.334492
     26          1           0        4.161029    5.405092   -0.222645
     27          6           0        2.178229    4.614123    0.026016
     28          1           0        1.771141    5.537882    0.419261
     29          6           0        1.354300    3.503849   -0.116364
     30          1           0        0.309560    3.588832    0.157988
     31          6           0       -0.510232    0.745489    0.456630
     32          1           0       -0.270323    0.054018    1.262511
     33          1           0       -0.703693    1.731251    0.878951
     34          6           0       -3.461531    1.043483    0.017969
     35          6           0       -3.465521    2.427871    0.229458
     36          1           0       -2.575365    3.015052    0.036377
     37          6           0       -4.612559    3.067183    0.682081
     38          1           0       -4.600164    4.136247    0.852837
     39          6           0       -5.774531    2.335534    0.910943
     40          1           0       -6.669502    2.833939    1.260643
     41          6           0       -5.784549    0.964546    0.683079
     42          1           0       -6.686911    0.390834    0.855121
     43          6           0       -4.634811    0.317581    0.237394
     44          1           0       -4.656685   -0.751284    0.071124
     45          6           0       -2.158353   -1.563344   -0.390989
     46          6           0       -2.254991   -2.103655    0.896841
     47          1           0       -2.208144   -1.462563    1.768035
     48          6           0       -2.425668   -3.472064    1.068175
     49          1           0       -2.498618   -3.883012    2.067024
     50          6           0       -2.502597   -4.311090   -0.041235
     51          1           0       -2.637020   -5.376518    0.095793
     52          6           0       -2.407992   -3.780160   -1.322911
     53          1           0       -2.465663   -4.430786   -2.185564
     54          6           0       -2.233424   -2.410925   -1.497875
     55          1           0       -2.147771   -2.001481   -2.496120
 ---------------------------------------------------------------------

 SCF Done:  E(RB3LYP) =  -1802.68994972     A.U. after   15 cycles

      1  P    Isotropic =   243.8535   Anisotropy =    81.0493

      2  P    Isotropic =   237.7515   Anisotropy =   103.6060

      3  C    Isotropic =    40.6977   Anisotropy =   180.0278

      4  C    Isotropic =    38.6665   Anisotropy =   177.8301

      5  H    Isotropic =    23.3926   Anisotropy =     8.4842

      6  C    Isotropic =    54.4051   Anisotropy =   176.8988

      7  H    Isotropic =    24.3211   Anisotropy =     5.3390

      8  C    Isotropic =    45.2912   Anisotropy =   166.1128

      9  H    Isotropic =    23.8436   Anisotropy =     6.4223

     10  C    Isotropic =    41.0266   Anisotropy =   219.2995

     11  C    Isotropic =    48.0181   Anisotropy =   162.8621

     12  H    Isotropic =    23.8378   Anisotropy =     6.7957

     13  C    Isotropic =    53.2201   Anisotropy =   179.4089

     14  H    Isotropic =    24.2854   Anisotropy =     4.7999

     15  C    Isotropic =    52.3003   Anisotropy =   179.9300

     16  H    Isotropic =    24.3832   Anisotropy =     8.0551

     17  C    Isotropic =    49.0023   Anisotropy =   178.1212

     18  H    Isotropic =    23.8361   Anisotropy =    11.0530

     19  C    Isotropic =    42.5932   Anisotropy =   210.8768

     20  C    Isotropic =    29.1506   Anisotropy =   197.6506

     21  C    Isotropic =    51.0701   Anisotropy =   182.2795

     22  H    Isotropic =    25.2167   Anisotropy =    13.5434

     23  C    Isotropic =    49.2344   Anisotropy =   184.5277

     24  H    Isotropic =    24.7342   Anisotropy =     6.7789

     25  C    Isotropic =    53.8708   Anisotropy =   179.0296

     26  H    Isotropic =    24.6417   Anisotropy =     3.7784

     27  C    Isotropic =    49.8568   Anisotropy =   182.8752

     28  H    Isotropic =    24.1867   Anisotropy =     5.7965

     29  C    Isotropic =    52.6186   Anisotropy =   178.5058

     30  H    Isotropic =    23.8217   Anisotropy =    10.6555

     31  C    Isotropic =   147.6756   Anisotropy =    22.8668

     32  H    Isotropic =    28.6322   Anisotropy =     5.1440

     33  H    Isotropic =    29.1120   Anisotropy =     7.2232

     34  C    Isotropic =    27.9775   Anisotropy =   198.0988

     35  C    Isotropic =    49.4501   Anisotropy =   180.1839

     36  H    Isotropic =    23.8482   Anisotropy =    10.7362

     37  C    Isotropic =    50.2844   Anisotropy =   182.4991

     38  H    Isotropic =    24.2255   Anisotropy =     6.0189

     39  C    Isotropic =    53.4162   Anisotropy =   180.1589

     40  H    Isotropic =    24.6037   Anisotropy =     4.1549

     41  C    Isotropic =    49.7412   Anisotropy =   182.8144

     42  H    Isotropic =    24.6357   Anisotropy =     6.6539

     43  C    Isotropic =    50.3312   Anisotropy =   181.9767

     44  H    Isotropic =    25.2902   Anisotropy =    13.9697

     45  C    Isotropic =    37.0018   Anisotropy =   206.9142

     46  C    Isotropic =    40.1611   Anisotropy =   191.6530

     47  H    Isotropic =    24.3127   Anisotropy =     9.5610

     48  C    Isotropic =    48.8523   Anisotropy =   187.8445

     49  H    Isotropic =    24.6384   Anisotropy =     5.5218

     50  C    Isotropic =    48.5529   Anisotropy =   191.1774

     51  H    Isotropic =    24.5154   Anisotropy =     3.5271

     52  C    Isotropic =    50.4134   Anisotropy =   184.9706

     53  H    Isotropic =    24.3859   Anisotropy =     4.9189

     54  C    Isotropic =    39.6293   Anisotropy =   184.3918

     55  H    Isotropic =    23.7621   Anisotropy =     8.0323

 The electronic state is 1-A.
 Alpha  occ. eigenvalues --  -77.04919 -77.04864 -10.19363 -10.19100 -10.18807
 Alpha  occ. eigenvalues --  -10.18638 -10.18617 -10.18504 -10.18422 -10.18407
 Alpha  occ. eigenvalues --  -10.18402 -10.18353 -10.18333 -10.18319 -10.18168
 Alpha  occ. eigenvalues --  -10.18166 -10.18161 -10.18088 -10.18074 -10.18019
 Alpha  occ. eigenvalues --  -10.17835 -10.17727 -10.17690 -10.17582 -10.17567
 Alpha  occ. eigenvalues --  -10.17446 -10.17433 -10.17326 -10.17325 -10.17273
 Alpha  occ. eigenvalues --  -10.17183  -6.53484  -6.53428  -4.69637  -4.69600
 Alpha  occ. eigenvalues --   -4.69579  -4.69546  -4.69123  -4.69063  -0.88292
 Alpha  occ. eigenvalues --   -0.86547  -0.85740  -0.85667  -0.83104  -0.78859
 Alpha  occ. eigenvalues --   -0.77305  -0.75573  -0.75560  -0.74962  -0.74921
 Alpha  occ. eigenvalues --   -0.74801  -0.74576  -0.73154  -0.72225  -0.64339
 Alpha  occ. eigenvalues --   -0.63225  -0.62169  -0.61951  -0.61343  -0.60743
 Alpha  occ. eigenvalues --   -0.60524  -0.60121  -0.59689  -0.56067  -0.55347
 Alpha  occ. eigenvalues --   -0.52471  -0.52267  -0.51671  -0.50483  -0.50436
 Alpha  occ. eigenvalues --   -0.49701  -0.46305  -0.46105  -0.45737  -0.45496
 Alpha  occ. eigenvalues --   -0.45319  -0.45118  -0.45013  -0.44460  -0.43821
 Alpha  occ. eigenvalues --   -0.43101  -0.42708  -0.42521  -0.42432  -0.41761
 Alpha  occ. eigenvalues --   -0.41119  -0.40740  -0.40025  -0.39696  -0.38503
 Alpha  occ. eigenvalues --   -0.37685  -0.37494  -0.37400  -0.36659  -0.35498
 Alpha  occ. eigenvalues --   -0.35337  -0.34879  -0.34845  -0.34793  -0.34025
 Alpha  occ. eigenvalues --   -0.32651  -0.32316  -0.31929  -0.29482  -0.27670
 Alpha  occ. eigenvalues --   -0.27083  -0.26605  -0.25926  -0.25849  -0.25711
 Alpha  occ. eigenvalues --   -0.25527  -0.23006  -0.21954  -0.18794
 Alpha virt. eigenvalues --   -0.06031  -0.03710  -0.02860  -0.02411  -0.02181
 Alpha virt. eigenvalues --   -0.01670  -0.01284  -0.01058   0.00298   0.01767
 Alpha virt. eigenvalues --    0.03656   0.04608   0.04730   0.05130   0.05598

 Mulliken charges:
               1
     1  P    0.165495
     2  P    0.164829
     3  C   -0.025050
     4  C   -0.068937
     5  H    0.117211
     6  C   -0.121663
     7  H    0.107601
     8  C   -0.156373
     9  H    0.101844
    10  C    0.081838
    11  C   -0.145594
    12  H    0.099956
    13  C   -0.115899
    14  H    0.107981
    15  C   -0.095275
    16  H    0.110029
    17  C   -0.178775
    18  H    0.157259
    19  C    0.014187
    20  C    0.022432
    21  C   -0.140941
    22  H    0.130454
    23  C   -0.128391
    24  H    0.106309
    25  C   -0.101155
    26  H    0.106067
    27  C   -0.131985
    28  H    0.104333
    29  C   -0.163547
    30  H    0.096825
    31  C   -0.404425
    32  H    0.149788
    33  H    0.135422
    34  C    0.055274
    35  C   -0.200471
    36  H    0.128747
    37  C   -0.126507
    38  H    0.105106
    39  C   -0.105116
    40  H    0.106552
    41  C   -0.127426
    42  H    0.106258
    43  C   -0.156380
    44  H    0.139318
    45  C    0.042307
    46  C   -0.195382
    47  H    0.124403
    48  C   -0.097141
    49  H    0.109847
    50  C   -0.095767
    51  H    0.112104
    52  C   -0.107431
    53  H    0.110102
    54  C   -0.146173
    55  H    0.115925
 Sum of Mulliken charges =  -0.00000

 Dipole moment (field-independent basis, Debye):
    X=              0.6721    Y=             -1.9253    Z=              1.9461  Tot=              2.8188
 Quadrupole moment (field-independent basis, Debye-Ang):
   XX=           -189.0672   YY=           -176.9138   ZZ=           -194.3023
   XY=             -1.6443   XZ=             -1.9263   YZ=              7.5946

 Summary of Natural Population Analysis:

                                       Natural Population
                Natural  -----------------------------------------------
    Atom  No    Charge         Core      Valence    Rydberg      Total
 -----------------------------------------------------------------------
      P    1    0.83054      9.99815     4.13776    0.03356    14.16946
      P    2    0.82795      9.99816     4.14011    0.03378    14.17205
      C    3   -0.31420      1.99895     4.28378    0.03146     6.31420
      C    4   -0.17475      1.99911     4.15508    0.02056     6.17475
      H    5    0.22118      0.00000     0.77729    0.00153     0.77882
      C    6   -0.21146      1.99917     4.19289    0.01940     6.21146
      H    7    0.21148      0.00000     0.78735    0.00117     0.78852
      C    8   -0.15796      1.99913     4.14059    0.01825     6.15796
      H    9    0.20622      0.00000     0.79235    0.00143     0.79378
      C   10   -0.06333      1.99907     4.04404    0.02021     6.06333
      C   11   -0.17382      1.99913     4.15622    0.01847     6.17382
      H   12    0.20553      0.00000     0.79302    0.00144     0.79447
      C   13   -0.20599      1.99918     4.18765    0.01916     6.20599
      H   14    0.20957      0.00000     0.78930    0.00113     0.79043
      C   15   -0.19601      1.99919     4.17808    0.01874     6.19601
      H   16    0.20935      0.00000     0.78941    0.00124     0.79065
      C   17   -0.18927      1.99910     4.17214    0.01803     6.18927
      H   18    0.21742      0.00000     0.77998    0.00260     0.78258
      C   19   -0.05446      1.99899     4.03211    0.02336     6.05446
      C   20   -0.31774      1.99898     4.28885    0.02990     6.31774
      C   21   -0.21061      1.99908     4.19178    0.01976     6.21061
      H   22    0.21327      0.00000     0.78496    0.00176     0.78673
      C   23   -0.19191      1.99918     4.17401    0.01872     6.19191
      H   24    0.20777      0.00000     0.79092    0.00131     0.79223
      C   25   -0.21945      1.99919     4.20061    0.01965     6.21945
      H   26    0.20752      0.00000     0.79130    0.00119     0.79248
      C   27   -0.19444      1.99919     4.17637    0.01888     6.19444
      H   28    0.20706      0.00000     0.79163    0.00131     0.79294
      C   29   -0.21917      1.99907     4.20055    0.01954     6.21917
      H   30    0.19699      0.00000     0.80083    0.00218     0.80301
      C   31   -0.99461      1.99944     4.96327    0.03190     6.99461
      H   32    0.24363      0.00000     0.75375    0.00262     0.75637
      H   33    0.24809      0.00000     0.75005    0.00186     0.75191
      C   34   -0.31497      1.99899     4.28621    0.02977     6.31497
      C   35   -0.21193      1.99908     4.19281    0.02004     6.21193
      H   36    0.19961      0.00000     0.79849    0.00190     0.80039
      C   37   -0.19695      1.99918     4.17878    0.01899     6.19695
      H   38    0.20750      0.00000     0.79119    0.00131     0.79250
      C   39   -0.21598      1.99919     4.19714    0.01965     6.21598
      H   40    0.20735      0.00000     0.79144    0.00120     0.79265
      C   41   -0.19515      1.99919     4.17702    0.01894     6.19515
      H   42    0.20707      0.00000     0.79161    0.00133     0.79293
      C   43   -0.21179      1.99908     4.19265    0.02005     6.21179
      H   44    0.21428      0.00000     0.78385    0.00187     0.78572
      C   45   -0.33691      1.99901     4.30471    0.03319     6.33691
      C   46   -0.19187      1.99908     4.17300    0.01979     6.19187
      H   47    0.20881      0.00000     0.78901    0.00218     0.79119
      C   48   -0.20409      1.99919     4.18596    0.01893     6.20409
      H   49    0.20901      0.00000     0.78962    0.00138     0.79099
      C   50   -0.19438      1.99919     4.17626    0.01892     6.19438
      H   51    0.20896      0.00000     0.78987    0.00117     0.79104
      C   52   -0.20578      1.99918     4.18720    0.01939     6.20578
      H   53    0.20982      0.00000     0.78891    0.00127     0.79018
      C   54   -0.18558      1.99910     4.16594    0.02055     6.18558
      H   55    0.21857      0.00000     0.77980    0.00163     0.78143
 =======================================================================
   * Total *   -0.00000     77.97094   149.29950    0.72957   228.00000

 Normal termination of Gaussian 16 at Wed Nov  6 17:51:29 2024.
