 Gaussian 16, Revision B.01,
 Gaussian 16:  ES64L-G16RevB.01 20-Dec-2017

 --------------------------------------------
 # nmr=giao b3lyp/def2TZVP pop=nbo scfcyc=200
 --------------------------------------------

 --------------
 MB-91 SPE NoRh
 --------------
 Symbolic Z-matrix:
 Charge =  0 Multiplicity = 1

                         Standard orientation:
 ---------------------------------------------------------------------
 Center     Atomic      Atomic             Coordinates (Angstroms)
 Number     Number       Type             X           Y           Z
 ---------------------------------------------------------------------
      1         15           0       -1.401728    0.194299    0.754113
      2         15           0        1.374916    0.267675    0.758833
      3          6           0       -2.152852    1.014073   -0.756818
      4          1           0       -1.310203    1.443452   -1.301945
      5          1           0       -2.570285    0.222148   -1.381069
      6          6           0        2.128642    1.089377   -0.749200
      7          1           0        1.284630    1.355395   -1.387074
      8          1           0        2.701283    0.324320   -1.279146
      9          6           0        0.015441   -0.814662    0.066034
     10          1           0        0.019823   -0.952924   -1.016250
     11          1           0        0.037129   -1.801666    0.526184
     12          6           0        2.705233   -0.869112    1.451791
     13          1           0        2.303571   -1.223201    2.403128
     14          1           0        3.550577   -0.220374    1.687309
     15          6           0       -2.711146   -1.002885    1.384312
     16          1           0       -3.630295   -0.415850    1.455994
     17          1           0       -2.411313   -1.249667    2.402445
     18          6           0       -3.174431    2.081534   -0.455641
     19          6           0       -2.772216    3.402478   -0.234230
     20          6           0       -4.539150    1.786423   -0.407342
     21          6           0       -3.705658    4.397674    0.030816
     22          1           0       -1.718642    3.655059   -0.281367
     23          6           0       -5.475702    2.779937   -0.137553
     24          1           0       -4.882143    0.778233   -0.603390
     25          6           0       -5.061056    4.088616    0.084078
     26          1           0       -3.375975    5.417996    0.182585
     27          1           0       -6.529035    2.531861   -0.112064
     28          1           0       -5.790150    4.863911    0.284358
     29          6           0       -2.908051   -2.259530    0.578391
     30          6           0       -3.755989   -2.297242   -0.533285
     31          6           0       -2.243334   -3.434066    0.945133
     32          6           0       -3.922370   -3.468919   -1.263537
     33          1           0       -4.313853   -1.414446   -0.819754
     34          6           0       -2.408732   -4.606588    0.216702
     35          1           0       -1.610165   -3.438549    1.826536
     36          6           0       -3.244744   -4.626089   -0.894608
     37          1           0       -4.591005   -3.480030   -2.114907
     38          1           0       -1.895232   -5.508832    0.525790
     39          1           0       -3.380310   -5.540462   -1.458362
     40          6           0        3.114629   -2.029051    0.582367
     41          6           0        2.485751   -3.270368    0.725687
     42          6           0        4.133559   -1.907607   -0.367287
     43          6           0        2.851595   -4.351754   -0.067275
     44          1           0        1.721791   -3.400918    1.483441
     45          6           0        4.501324   -2.989185   -1.161376
     46          1           0        4.666120   -0.971121   -0.475470
     47          6           0        3.857178   -4.212966   -1.018690
     48          1           0        2.359864   -5.307868    0.066844
     49          1           0        5.298977   -2.876549   -1.885249
     50          1           0        4.146506   -5.056244   -1.632331
     51          6           0        2.959031    2.314807   -0.460239
     52          6           0        2.396111    3.587519   -0.583275
     53          6           0        4.300161    2.216112   -0.079615
     54          6           0        3.148058    4.728897   -0.329401
     55          1           0        1.362843    3.687907   -0.897145
     56          6           0        5.053658    3.356990    0.181425
     57          1           0        4.773120    1.244641   -0.002582
     58          6           0        4.479402    4.617568    0.058878
     59          1           0        2.697196    5.707619   -0.446298
     60          1           0        6.093349    3.259338    0.466742
     61          1           0        5.067952    5.505311    0.251410
 ---------------------------------------------------------------------

 SCF Done:  E(RB3LYP) =  -1806.31582083     A.U. after   14 cycles

      1  P    Isotropic =   245.3854   Anisotropy =    88.1969

      2  P    Isotropic =   250.9453   Anisotropy =    87.5249

      3  C    Isotropic =   147.3604   Anisotropy =    54.6324

      4  H    Isotropic =    29.4394   Anisotropy =     6.4937

      5  H    Isotropic =    28.5653   Anisotropy =     4.2738

      6  C    Isotropic =   147.6017   Anisotropy =    54.9213

      7  H    Isotropic =    29.7828   Anisotropy =     5.7153

      8  H    Isotropic =    28.4718   Anisotropy =     4.5484

      9  C    Isotropic =   162.8359   Anisotropy =    19.3187

     10  H    Isotropic =    31.5956   Anisotropy =     3.4089

     11  H    Isotropic =    30.7403   Anisotropy =     8.9365

     12  C    Isotropic =   144.5100   Anisotropy =    37.8530

     13  H    Isotropic =    28.7658   Anisotropy =     5.6818

     14  H    Isotropic =    28.8805   Anisotropy =     7.0081

     15  C    Isotropic =   146.3164   Anisotropy =    39.9689

     16  H    Isotropic =    28.9683   Anisotropy =     6.6965

     17  H    Isotropic =    28.9170   Anisotropy =     6.1536

     18  C    Isotropic =    36.4430   Anisotropy =   195.1601

     19  C    Isotropic =    47.0470   Anisotropy =   168.8617

     20  C    Isotropic =    49.1363   Anisotropy =   165.5606

     21  C    Isotropic =    48.9939   Anisotropy =   184.0245

     22  H    Isotropic =    24.0797   Anisotropy =     9.2913

     23  C    Isotropic =    50.2295   Anisotropy =   181.7813

     24  H    Isotropic =    24.2272   Anisotropy =     9.5323

     25  C    Isotropic =    52.6494   Anisotropy =   182.8345

     26  H    Isotropic =    24.2080   Anisotropy =     6.1984

     27  H    Isotropic =    24.3111   Anisotropy =     6.1042

     28  H    Isotropic =    24.4235   Anisotropy =     4.4603

     29  C    Isotropic =    36.5076   Anisotropy =   199.1659

     30  C    Isotropic =    51.4006   Anisotropy =   164.7062

     31  C    Isotropic =    49.6379   Anisotropy =   160.9097

     32  C    Isotropic =    49.5387   Anisotropy =   184.0372

     33  H    Isotropic =    24.1975   Anisotropy =     8.3624

     34  C    Isotropic =    49.2371   Anisotropy =   184.0750

     35  H    Isotropic =    24.5452   Anisotropy =     7.7758

     36  C    Isotropic =    53.9931   Anisotropy =   180.9201

     37  H    Isotropic =    24.2803   Anisotropy =     5.7811

     38  H    Isotropic =    24.2586   Anisotropy =     5.5500

     39  H    Isotropic =    24.5083   Anisotropy =     4.3459

     40  C    Isotropic =    38.0444   Anisotropy =   197.2378

     41  C    Isotropic =    49.7495   Anisotropy =   162.0980

     42  C    Isotropic =    51.2246   Anisotropy =   164.5857

     43  C    Isotropic =    49.0991   Anisotropy =   184.0511

     44  H    Isotropic =    24.6006   Anisotropy =     7.7181

     45  C    Isotropic =    49.7055   Anisotropy =   183.8098

     46  H    Isotropic =    24.2782   Anisotropy =     8.1745

     47  C    Isotropic =    53.9257   Anisotropy =   181.1162

     48  H    Isotropic =    24.3171   Anisotropy =     5.9919

     49  H    Isotropic =    24.2980   Anisotropy =     5.8150

     50  H    Isotropic =    24.5362   Anisotropy =     4.5092

     51  C    Isotropic =    34.9604   Anisotropy =   197.2783

     52  C    Isotropic =    47.5479   Anisotropy =   162.1859

     53  C    Isotropic =    50.0397   Anisotropy =   168.2026

     54  C    Isotropic =    48.7986   Anisotropy =   183.3516

     55  H    Isotropic =    24.1766   Anisotropy =     9.1685

     56  C    Isotropic =    49.9209   Anisotropy =   182.9820

     57  H    Isotropic =    24.2184   Anisotropy =     9.9846

     58  C    Isotropic =    52.6779   Anisotropy =   182.8584

     59  H    Isotropic =    24.2121   Anisotropy =     6.0977

     60  H    Isotropic =    24.2935   Anisotropy =     6.1679

     61  H    Isotropic =    24.4186   Anisotropy =     4.4397

 The electronic state is 1-A.
 Alpha  occ. eigenvalues --  -77.04668 -77.04665 -10.18974 -10.18960 -10.18951
 Alpha  occ. eigenvalues --  -10.18933 -10.18230 -10.18176 -10.18133 -10.18105
 Alpha  occ. eigenvalues --  -10.18030 -10.17865 -10.17856 -10.17813 -10.17807
 Alpha  occ. eigenvalues --  -10.17720 -10.17716 -10.17667 -10.17665 -10.17652
 Alpha  occ. eigenvalues --  -10.17650 -10.17638 -10.17635 -10.17634 -10.17615
 Alpha  occ. eigenvalues --  -10.17506 -10.17496 -10.17477 -10.17452 -10.17449
 Alpha  occ. eigenvalues --  -10.17438  -6.53199  -6.53192  -4.69350  -4.69344
 Alpha  occ. eigenvalues --   -4.69309  -4.69303  -4.68815  -4.68809  -0.86482
 Alpha  occ. eigenvalues --   -0.86439  -0.86256  -0.86239  -0.79534  -0.78758
 Alpha  occ. eigenvalues --   -0.77558  -0.77518  -0.75185  -0.75135  -0.74977
 Alpha  occ. eigenvalues --   -0.74968  -0.74348  -0.71017  -0.68852  -0.68639
 Alpha  occ. eigenvalues --   -0.68529  -0.61371  -0.61338  -0.60994  -0.60952
 Alpha  occ. eigenvalues --   -0.60077  -0.59556  -0.58966  -0.58930  -0.54535
 Alpha  occ. eigenvalues --   -0.53900  -0.51872  -0.51860  -0.50956  -0.50897
 Alpha  occ. eigenvalues --   -0.47551  -0.47316  -0.47094  -0.46731  -0.46384
 Alpha  occ. eigenvalues --   -0.46314  -0.46117  -0.45989  -0.44057  -0.43164
 Alpha  occ. eigenvalues --   -0.42922  -0.42748  -0.42587  -0.42466  -0.42332
 Alpha  occ. eigenvalues --   -0.42251  -0.41701  -0.41537  -0.40807  -0.40273
 Alpha  occ. eigenvalues --   -0.39676  -0.39244  -0.38305  -0.38188  -0.37475
 Alpha  occ. eigenvalues --   -0.36417  -0.35498  -0.35417  -0.35354  -0.35196
 Alpha  occ. eigenvalues --   -0.34982  -0.34924  -0.34529  -0.34476  -0.33636
 Alpha  occ. eigenvalues --   -0.33268  -0.31199  -0.26216  -0.26127  -0.26018
 Alpha  occ. eigenvalues --   -0.25963  -0.25855  -0.25678  -0.24575  -0.24402
 Alpha  occ. eigenvalues --   -0.22660  -0.18660
 Alpha virt. eigenvalues --   -0.02408  -0.02114  -0.01925  -0.01777  -0.01671
 Alpha virt. eigenvalues --   -0.01615  -0.01517  -0.01250   0.01080   0.01841
 Alpha virt. eigenvalues --    0.03259   0.03855   0.04489   0.04717   0.05172

 Mulliken charges:
               1
     1  P    0.196239
     2  P    0.189345
     3  C   -0.376338
     4  H    0.124746
     5  H    0.134853
     6  C   -0.384278
     7  H    0.124901
     8  H    0.140768
     9  C   -0.347047
    10  H    0.128071
    11  H    0.108256
    12  C   -0.367965
    13  H    0.132675
    14  H    0.144768
    15  C   -0.357153
    16  H    0.145991
    17  H    0.131071
    18  C    0.195961
    19  C   -0.185089
    20  C   -0.189857
    21  C   -0.109165
    22  H    0.116679
    23  C   -0.111783
    24  H    0.123660
    25  C   -0.113100
    26  H    0.106077
    27  H    0.107036
    28  H    0.107448
    29  C    0.174287
    30  C   -0.177334
    31  C   -0.199605
    32  C   -0.118783
    33  H    0.124099
    34  C   -0.102185
    35  H    0.109403
    36  C   -0.119083
    37  H    0.106507
    38  H    0.105390
    39  H    0.106737
    40  C    0.202346
    41  C   -0.198409
    42  C   -0.202763
    43  C   -0.101389
    44  H    0.105462
    45  C   -0.106133
    46  H    0.125321
    47  C   -0.126109
    48  H    0.105337
    49  H    0.107736
    50  H    0.106759
    51  C    0.208198
    52  C   -0.172039
    53  C   -0.167331
    54  C   -0.114199
    55  H    0.099115
    56  C   -0.117296
    57  H    0.112319
    58  C   -0.112810
    59  H    0.105479
    60  H    0.106768
    61  H    0.107434
 Sum of Mulliken charges =  -0.00000

 Dipole moment (field-independent basis, Debye):
    X=              0.0332    Y=             -1.0383    Z=             -1.1204  Tot=              1.5280
 Quadrupole moment (field-independent basis, Debye-Ang):
   XX=           -191.5769   YY=           -188.4351   ZZ=           -204.8168
   XY=              0.0672   XZ=              1.3941   YZ=             -0.5266

 Summary of Natural Population Analysis:

                                       Natural Population
                Natural  -----------------------------------------------
    Atom  No    Charge         Core      Valence    Rydberg      Total
 -----------------------------------------------------------------------
      P    1    0.81570      9.99869     4.15094    0.03467    14.18430
      P    2    0.81450      9.99868     4.15197    0.03485    14.18550
      C    3   -0.70143      1.99933     4.67940    0.02270     6.70143
      H    4    0.22496      0.00000     0.77288    0.00216     0.77504
      H    5    0.22041      0.00000     0.77573    0.00386     0.77959
      C    6   -0.70446      1.99933     4.68237    0.02276     6.70446
      H    7    0.22398      0.00000     0.77384    0.00218     0.77602
      H    8    0.22576      0.00000     0.77022    0.00402     0.77424
      C    9   -1.02748      1.99947     4.99744    0.03057     7.02748
      H   10    0.24036      0.00000     0.75691    0.00274     0.75964
      H   11    0.25691      0.00000     0.74079    0.00230     0.74309
      C   12   -0.69588      1.99933     4.67495    0.02159     6.69588
      H   13    0.23146      0.00000     0.76729    0.00125     0.76854
      H   14    0.23844      0.00000     0.76003    0.00152     0.76156
      C   15   -0.69929      1.99933     4.67829    0.02167     6.69929
      H   16    0.24164      0.00000     0.75673    0.00163     0.75836
      H   17    0.23073      0.00000     0.76805    0.00121     0.76927
      C   18   -0.02304      1.99909     4.00111    0.02283     6.02304
      C   19   -0.19979      1.99908     4.18187    0.01885     6.19979
      C   20   -0.21197      1.99907     4.19403    0.01887     6.21197
      C   21   -0.19468      1.99919     4.17689    0.01860     6.19468
      H   22    0.20379      0.00000     0.79441    0.00180     0.79621
      C   23   -0.19764      1.99919     4.17968    0.01876     6.19764
      H   24    0.19769      0.00000     0.80067    0.00164     0.80231
      C   25   -0.21367      1.99919     4.19531    0.01918     6.21367
      H   26    0.20815      0.00000     0.79059    0.00125     0.79185
      H   27    0.20755      0.00000     0.79120    0.00125     0.79245
      H   28    0.20810      0.00000     0.79072    0.00119     0.79190
      C   29   -0.02522      1.99910     4.00151    0.02462     6.02522
      C   30   -0.21913      1.99907     4.20162    0.01844     6.21913
      C   31   -0.22032      1.99908     4.20246    0.01877     6.22032
      C   32   -0.19344      1.99919     4.17566    0.01858     6.19344
      H   33    0.19832      0.00000     0.79994    0.00174     0.80168
      C   34   -0.19375      1.99919     4.17591    0.01865     6.19375
      H   35    0.19909      0.00000     0.79898    0.00193     0.80091
      C   36   -0.22109      1.99919     4.20248    0.01943     6.22109
      H   37    0.20751      0.00000     0.79124    0.00126     0.79249
      H   38    0.20687      0.00000     0.79186    0.00127     0.79313
      H   39    0.20817      0.00000     0.79065    0.00118     0.79183
      C   40   -0.02862      1.99910     4.00502    0.02450     6.02862
      C   41   -0.21652      1.99908     4.19877    0.01867     6.21652
      C   42   -0.22087      1.99907     4.20325    0.01855     6.22087
      C   43   -0.19341      1.99919     4.17558    0.01863     6.19341
      H   44    0.19867      0.00000     0.79935    0.00198     0.80133
      C   45   -0.19379      1.99919     4.17602    0.01858     6.19379
      H   46    0.19908      0.00000     0.79915    0.00177     0.80092
      C   47   -0.22073      1.99919     4.20216    0.01938     6.22073
      H   48    0.20722      0.00000     0.79150    0.00127     0.79278
      H   49    0.20772      0.00000     0.79103    0.00125     0.79228
      H   50    0.20815      0.00000     0.79067    0.00118     0.79185
      C   51   -0.01910      1.99909     3.99728    0.02273     6.01910
      C   52   -0.20099      1.99908     4.18317    0.01874     6.20099
      C   53   -0.21138      1.99907     4.19365    0.01867     6.21138
      C   54   -0.19380      1.99919     4.17598    0.01863     6.19380
      H   55    0.20018      0.00000     0.79817    0.00165     0.79982
      C   56   -0.19538      1.99919     4.17748    0.01870     6.19538
      H   57    0.19702      0.00000     0.80122    0.00176     0.80298
      C   58   -0.21452      1.99918     4.19614    0.01919     6.21452
      H   59    0.20775      0.00000     0.79100    0.00126     0.79225
      H   60    0.20733      0.00000     0.79141    0.00125     0.79267
      H   61    0.20817      0.00000     0.79064    0.00119     0.79183
 =======================================================================
   * Total *   -0.00000     77.97342   155.31526    0.71131   234.00000

 Normal termination of Gaussian 16 at Fri Jan 24 01:11:10 2025.
