 Gaussian 16, Revision B.01,
 Gaussian 16:  ES64L-G16RevB.01 20-Dec-2017

 --------------------------------------------
 # nmr=giao b3lyp/def2TZVP pop=nbo scfcyc=200
 --------------------------------------------

 --------------
 MB-92 SPE NoRh
 --------------
 Symbolic Z-matrix:
 Charge =  0 Multiplicity = 1

                         Standard orientation:
 ---------------------------------------------------------------------
 Center     Atomic      Atomic             Coordinates (Angstroms)
 Number     Number       Type             X           Y           Z
 ---------------------------------------------------------------------
      1          6           0        0.027451   -0.287654    0.304317
      2          1           0        0.363529    0.041186    1.283978
      3          1           0       -0.274314   -1.326475    0.382064
      4          6           0        1.502048   -1.797857   -1.837849
      5          6           0        3.117030   -0.216749   -0.241108
      6          6           0        2.361340   -2.541030   -0.802294
      7          1           0        0.537352   -2.221648   -2.099588
      8          6           0        3.591678   -1.605519   -0.892901
      9          1           0        2.600235   -3.546255   -1.156078
     10          1           0        1.916324   -2.608616    0.185183
     11          1           0        4.487983   -1.975858   -0.399266
     12          6           0       -1.341599    2.164131    1.097287
     13          6           0       -3.077363    0.222797    0.187698
     14          6           0       -2.019205    1.332637    2.203029
     15          1           0       -0.350640    2.565694    1.293382
     16          6           0       -3.366059    1.141029    1.476098
     17          1           0       -2.141334    1.931272    3.108162
     18          1           0       -1.511386    0.408732    2.460074
     19          1           0       -4.160764    0.713522    2.086187
     20         15           0        1.342138   -0.076965   -1.017154
     21         15           0       -1.317053    0.878046   -0.319890
     22          6           0        3.721750   -1.528348   -2.406636
     23          1           0        4.651570   -1.378117   -2.934581
     24          6           0        2.508279   -1.637002   -2.951323
     25          1           0        2.257521   -1.590936   -4.000892
     26          6           0       -2.433829    3.159753    0.798505
     27          1           0       -2.264523    4.153988    0.411366
     28          6           0       -3.611242    2.580194    1.045464
     29          1           0       -4.586194    3.022238    0.902883
     30         14           0       -4.491305    0.488864   -1.163001
     31         14           0       -3.065017   -1.684761    0.694301
     32         14           0        3.236458   -0.472944    1.725147
     33         14           0        4.182923    1.372823   -0.718560
     34          6           0        3.185677    2.943998   -0.326026
     35          1           0        3.127474    3.128309    0.746220
     36          1           0        3.695641    3.803287   -0.772219
     37          1           0        2.168780    2.920480   -0.719394
     38          6           0        5.827430    1.531587    0.215662
     39          1           0        6.326277    2.418029   -0.185752
     40          1           0        5.728019    1.677758    1.289974
     41          1           0        6.494112    0.684752    0.042600
     42          6           0        4.732641    1.425364   -2.539577
     43          1           0        5.091995    2.438684   -2.742525
     44          1           0        5.577165    0.753557   -2.702463
     45          1           0        3.971615    1.184533   -3.277431
     46          6           0        2.872170    1.127767    2.678205
     47          1           0        2.831838    0.888216    3.743907
     48          1           0        3.645808    1.884059    2.547373
     49          1           0        1.915995    1.582761    2.411504
     50          6           0        4.970729   -1.102552    2.172076
     51          1           0        5.797928   -0.503832    1.803161
     52          1           0        5.038382   -1.120009    3.264621
     53          1           0        5.115420   -2.130461    1.833224
     54          6           0        2.139009   -1.821305    2.514637
     55          1           0        2.464468   -2.825160    2.238530
     56          1           0        2.292294   -1.730347    3.593944
     57          1           0        1.069351   -1.750496    2.337961
     58          6           0       -2.265403   -2.016951    2.389216
     59          1           0       -2.794418   -1.504645    3.195313
     60          1           0       -2.361974   -3.090290    2.577946
     61          1           0       -1.208585   -1.771892    2.470519
     62          6           0       -2.187848   -2.748966   -0.629243
     63          1           0       -1.857948   -2.180390   -1.499083
     64          1           0       -1.321863   -3.268019   -0.212744
     65          1           0       -2.871733   -3.518844   -0.990730
     66          6           0       -4.805993   -2.404453    0.911722
     67          1           0       -4.673524   -3.405284    1.333750
     68          1           0       -5.424121   -1.838328    1.610532
     69          1           0       -5.355248   -2.518740   -0.021263
     70          6           0       -6.209808    0.309121   -0.371898
     71          1           0       -6.934702    0.703758   -1.089170
     72          1           0       -6.506383   -0.706881   -0.132307
     73          1           0       -6.304934    0.910885    0.535698
     74          6           0       -4.287584   -0.759644   -2.576455
     75          1           0       -4.396719   -1.796754   -2.256979
     76          1           0       -5.060340   -0.568953   -3.325557
     77          1           0       -3.319240   -0.667332   -3.072711
     78          6           0       -4.606947    2.219427   -1.951024
     79          1           0       -5.096969    2.107536   -2.922163
     80          1           0       -5.242125    2.866393   -1.345868
     81          1           0       -3.672316    2.744321   -2.111533
 ---------------------------------------------------------------------

 SCF Done:  E(RB3LYP) =  -2824.02835659     A.U. after   14 cycles

      1  C    Isotropic =   148.1752   Anisotropy =    31.2868

      2  H    Isotropic =    30.3772   Anisotropy =    10.5077

      3  H    Isotropic =    29.9185   Anisotropy =    10.3784

      4  C    Isotropic =   131.5963   Anisotropy =    17.5224

      5  C    Isotropic =   145.3222   Anisotropy =    20.2136

      6  C    Isotropic =   127.1279   Anisotropy =    25.6033

      7  H    Isotropic =    28.8655   Anisotropy =     8.8196

      8  C    Isotropic =   128.9353   Anisotropy =    21.1403

      9  H    Isotropic =    30.0427   Anisotropy =    10.3104

     10  H    Isotropic =    30.1019   Anisotropy =     7.9567

     11  H    Isotropic =    28.6266   Anisotropy =     6.7278

     12  C    Isotropic =   128.8069   Anisotropy =    17.7208

     13  C    Isotropic =   141.7687   Anisotropy =    26.6709

     14  C    Isotropic =   128.9978   Anisotropy =    23.0383

     15  H    Isotropic =    28.8501   Anisotropy =     8.6692

     16  C    Isotropic =   129.5434   Anisotropy =    22.5320

     17  H    Isotropic =    30.1096   Anisotropy =    10.2552

     18  H    Isotropic =    30.2634   Anisotropy =     7.1869

     19  H    Isotropic =    28.7957   Anisotropy =     6.8862

     20  P    Isotropic =   235.7374   Anisotropy =    93.0642

     21  P    Isotropic =   240.7911   Anisotropy =   118.4584

     22  C    Isotropic =    34.7242   Anisotropy =   173.3950

     23  H    Isotropic =    25.5802   Anisotropy =     4.4484

     24  C    Isotropic =    41.7154   Anisotropy =   162.4123

     25  H    Isotropic =    25.6177   Anisotropy =     1.8432

     26  C    Isotropic =    42.5301   Anisotropy =   160.6967

     27  H    Isotropic =    25.7030   Anisotropy =     1.8314

     28  C    Isotropic =    34.6041   Anisotropy =   173.4005

     29  H    Isotropic =    25.4824   Anisotropy =     4.5048

     30  Si   Isotropic =   306.7396   Anisotropy =    45.6031

     31  Si   Isotropic =   310.8356   Anisotropy =    34.1424

     32  Si   Isotropic =   304.1203   Anisotropy =    51.8839

     33  Si   Isotropic =   307.0065   Anisotropy =    37.1188

     34  C    Isotropic =   180.9620   Anisotropy =    11.2681

     35  H    Isotropic =    31.7373   Anisotropy =     5.6557

     36  H    Isotropic =    32.0783   Anisotropy =    10.8787

     37  H    Isotropic =    31.0442   Anisotropy =     8.6121

     38  C    Isotropic =   177.8928   Anisotropy =     9.3907

     39  H    Isotropic =    31.8515   Anisotropy =     9.9705

     40  H    Isotropic =    31.6683   Anisotropy =     5.8362

     41  H    Isotropic =    31.6522   Anisotropy =     7.0004

     42  C    Isotropic =   178.6509   Anisotropy =    10.6548

     43  H    Isotropic =    32.2253   Anisotropy =    10.4244

     44  H    Isotropic =    32.3166   Anisotropy =     7.2696

     45  H    Isotropic =    31.6021   Anisotropy =     6.3350

     46  C    Isotropic =   179.8224   Anisotropy =     6.9752

     47  H    Isotropic =    31.9287   Anisotropy =     9.7430

     48  H    Isotropic =    31.4085   Anisotropy =     7.1844

     49  H    Isotropic =    31.6553   Anisotropy =     8.4180

     50  C    Isotropic =   182.1379   Anisotropy =    14.9146

     51  H    Isotropic =    31.5095   Anisotropy =     9.7138

     52  H    Isotropic =    32.0569   Anisotropy =     9.7259

     53  H    Isotropic =    31.5987   Anisotropy =     7.1141

     54  C    Isotropic =   174.5447   Anisotropy =    12.4883

     55  H    Isotropic =    31.6928   Anisotropy =     5.8838

     56  H    Isotropic =    32.0168   Anisotropy =     8.8849

     57  H    Isotropic =    31.4637   Anisotropy =    11.5977

     58  C    Isotropic =   177.5401   Anisotropy =    10.4244

     59  H    Isotropic =    31.7062   Anisotropy =     6.6596

     60  H    Isotropic =    32.0372   Anisotropy =     9.3843

     61  H    Isotropic =    31.7080   Anisotropy =    10.4489

     62  C    Isotropic =   179.7775   Anisotropy =     7.8949

     63  H    Isotropic =    31.5788   Anisotropy =     4.2820

     64  H    Isotropic =    31.7605   Anisotropy =     7.7335

     65  H    Isotropic =    31.7487   Anisotropy =     9.1629

     66  C    Isotropic =   176.7508   Anisotropy =    12.2250

     67  H    Isotropic =    31.9287   Anisotropy =     9.2464

     68  H    Isotropic =    31.5484   Anisotropy =     6.9554

     69  H    Isotropic =    31.6039   Anisotropy =     6.6741

     70  C    Isotropic =   181.1037   Anisotropy =    11.5905

     71  H    Isotropic =    32.0940   Anisotropy =    10.4653

     72  H    Isotropic =    31.6534   Anisotropy =     8.0692

     73  H    Isotropic =    31.6553   Anisotropy =     5.8474

     74  C    Isotropic =   181.3690   Anisotropy =     8.3952

     75  H    Isotropic =    31.7947   Anisotropy =     6.0350

     76  H    Isotropic =    32.0448   Anisotropy =    11.2494

     77  H    Isotropic =    31.4381   Anisotropy =     6.6937

     78  C    Isotropic =   177.2694   Anisotropy =    10.6985

     79  H    Isotropic =    32.2019   Anisotropy =    10.3841

     80  H    Isotropic =    32.3958   Anisotropy =     6.7194

     81  H    Isotropic =    31.7601   Anisotropy =     6.3176

 The electronic state is 1-A.
 Alpha  occ. eigenvalues --  -77.04578 -77.04311 -66.10006 -66.09967 -66.09314
 Alpha  occ. eigenvalues --  -66.09256 -10.18962 -10.18925 -10.18409 -10.18233
 Alpha  occ. eigenvalues --  -10.17487 -10.17095 -10.17073 -10.17039 -10.16992
 Alpha  occ. eigenvalues --  -10.16945 -10.16873 -10.16791 -10.16659 -10.15115
 Alpha  occ. eigenvalues --  -10.15025 -10.15005 -10.14916 -10.14782 -10.14499
 Alpha  occ. eigenvalues --  -10.14488 -10.14347 -10.14230 -10.13938 -10.13783
 Alpha  occ. eigenvalues --  -10.13681  -6.52961  -6.52736  -5.25984  -5.25938
 Alpha  occ. eigenvalues --   -5.25289  -5.25231  -4.69104  -4.69079  -4.68883
 Alpha  occ. eigenvalues --   -4.68857  -4.68613  -4.68373  -3.61790  -3.61776
 Alpha  occ. eigenvalues --   -3.61762  -3.61760  -3.61723  -3.61706  -3.61112
 Alpha  occ. eigenvalues --   -3.61078  -3.61052  -3.61047  -3.61025  -3.60996
 Alpha  occ. eigenvalues --   -0.87162  -0.87022  -0.75074  -0.73602  -0.73113
 Alpha  occ. eigenvalues --   -0.71867  -0.71450  -0.71183  -0.71162  -0.70580
 Alpha  occ. eigenvalues --   -0.69905  -0.68630  -0.68597  -0.68287  -0.68112
 Alpha  occ. eigenvalues --   -0.67602  -0.67321  -0.67167  -0.66992  -0.66096
 Alpha  occ. eigenvalues --   -0.64328  -0.56042  -0.56003  -0.55441  -0.54139
 Alpha  occ. eigenvalues --   -0.52197  -0.51954  -0.50723  -0.50476  -0.47197
 Alpha  occ. eigenvalues --   -0.46729  -0.46573  -0.45907  -0.44420  -0.43855
 Alpha  occ. eigenvalues --   -0.43307  -0.42756  -0.42546  -0.42184  -0.41995
 Alpha  occ. eigenvalues --   -0.41609  -0.41432  -0.41199  -0.40751  -0.40692
 Alpha  occ. eigenvalues --   -0.40413  -0.40175  -0.40061  -0.39981  -0.39697
 Alpha  occ. eigenvalues --   -0.39406  -0.39194  -0.39061  -0.38837  -0.38697
 Alpha  occ. eigenvalues --   -0.38536  -0.38462  -0.38201  -0.37877  -0.37769
 Alpha  occ. eigenvalues --   -0.37625  -0.37527  -0.37394  -0.37171  -0.36952
 Alpha  occ. eigenvalues --   -0.36599  -0.35742  -0.35079  -0.34217  -0.33789
 Alpha  occ. eigenvalues --   -0.33609  -0.32250  -0.31814  -0.31321  -0.30522
 Alpha  occ. eigenvalues --   -0.30336  -0.29867  -0.29810  -0.29522  -0.29231
 Alpha  occ. eigenvalues --   -0.28504  -0.28210  -0.27051  -0.25804  -0.24174
 Alpha  occ. eigenvalues --   -0.23980  -0.21520  -0.19779
 Alpha virt. eigenvalues --   -0.00905  -0.00516   0.00604   0.01308   0.02274
 Alpha virt. eigenvalues --    0.02811   0.03326   0.03508   0.04375   0.04462
 Alpha virt. eigenvalues --    0.04607   0.04882   0.05045   0.05819   0.05974

 Mulliken charges:
               1
     1  C   -0.435548
     2  H    0.122267
     3  H    0.132606
     4  C   -0.018036
     5  C    0.101348
     6  C   -0.203292
     7  H    0.120988
     8  C    0.004212
     9  H    0.080243
    10  H    0.117165
    11  H    0.096562
    12  C   -0.024077
    13  C    0.112083
    14  C   -0.194655
    15  H    0.116533
    16  C   -0.009118
    17  H    0.079061
    18  H    0.113208
    19  H    0.097422
    20  P    0.047218
    21  P    0.042232
    22  C   -0.196657
    23  H    0.108103
    24  C   -0.196361
    25  H    0.104984
    26  C   -0.191501
    27  H    0.109297
    28  C   -0.200667
    29  H    0.110859
    30  Si   0.327511
    31  Si   0.290062
    32  Si   0.285346
    33  Si   0.342063
    34  C   -0.478534
    35  H    0.117747
    36  H    0.111149
    37  H    0.139220
    38  C   -0.486605
    39  H    0.120945
    40  H    0.126232
    41  H    0.119078
    42  C   -0.503512
    43  H    0.115865
    44  H    0.108635
    45  H    0.141679
    46  C   -0.474948
    47  H    0.120616
    48  H    0.129589
    49  H    0.128668
    50  C   -0.488166
    51  H    0.135394
    52  H    0.114420
    53  H    0.117018
    54  C   -0.488254
    55  H    0.128846
    56  H    0.118294
    57  H    0.114953
    58  C   -0.486339
    59  H    0.127215
    60  H    0.120689
    61  H    0.130084
    62  C   -0.535668
    63  H    0.141733
    64  H    0.135147
    65  H    0.133295
    66  C   -0.477133
    67  H    0.120367
    68  H    0.124844
    69  H    0.128867
    70  C   -0.483254
    71  H    0.121064
    72  H    0.127135
    73  H    0.117789
    74  C   -0.471775
    75  H    0.121398
    76  H    0.116953
    77  H    0.128135
    78  C   -0.475641
    79  H    0.116334
    80  H    0.107065
    81  H    0.131905
 Sum of Mulliken charges =  -0.00000

 Dipole moment (field-independent basis, Debye):
    X=              0.0304    Y=             -1.2870    Z=              1.5953  Tot=              2.0499
 Quadrupole moment (field-independent basis, Debye-Ang):
   XX=           -239.8790   YY=           -243.4356   ZZ=           -245.4150
   XY=              0.4865   XZ=             -0.2465   YZ=              2.3818

 Summary of Natural Population Analysis:

                                       Natural Population
                Natural  -----------------------------------------------
    Atom  No    Charge         Core      Valence    Rydberg      Total
 -----------------------------------------------------------------------
      C    1   -1.05046      1.99946     5.02071    0.03030     7.05046
      H    2    0.23625      0.00000     0.76103    0.00272     0.76375
      H    3    0.24148      0.00000     0.75568    0.00283     0.75852
      C    4   -0.49934      1.99940     4.47397    0.02597     6.49934
      C    5   -1.18484      1.99933     5.15236    0.03316     7.18484
      C    6   -0.38786      1.99940     4.37377    0.01468     6.38786
      H    7    0.23012      0.00000     0.76805    0.00183     0.76988
      C    8   -0.27011      1.99940     4.24970    0.02102     6.27011
      H    9    0.20915      0.00000     0.78892    0.00193     0.79085
      H   10    0.20472      0.00000     0.79342    0.00186     0.79528
      H   11    0.21172      0.00000     0.78566    0.00263     0.78828
      C   12   -0.49898      1.99941     4.47264    0.02693     6.49898
      C   13   -1.19239      1.99932     5.15983    0.03325     7.19239
      C   14   -0.39082      1.99939     4.37608    0.01535     6.39082
      H   15    0.23146      0.00000     0.76679    0.00174     0.76854
      C   16   -0.26751      1.99940     4.24646    0.02166     6.26751
      H   17    0.21087      0.00000     0.78721    0.00192     0.78913
      H   18    0.20466      0.00000     0.79348    0.00186     0.79534
      H   19    0.20922      0.00000     0.78820    0.00258     0.79078
      P   20    0.79822      9.99852     4.17023    0.03303    14.20178
      P   21    0.79696      9.99854     4.17189    0.03260    14.20304
      C   22   -0.18795      1.99907     4.16814    0.02073     6.18795
      H   23    0.21311      0.00000     0.78532    0.00157     0.78689
      C   24   -0.19674      1.99908     4.17739    0.02027     6.19674
      H   25    0.21531      0.00000     0.78318    0.00150     0.78469
      C   26   -0.19685      1.99907     4.17664    0.02114     6.19685
      H   27    0.21591      0.00000     0.78257    0.00153     0.78409
      C   28   -0.19554      1.99908     4.17531    0.02114     6.19554
      H   29    0.21302      0.00000     0.78531    0.00168     0.78698
     Si   30    1.74823      9.99799     2.22140    0.03239    12.25177
     Si   31    1.76187      9.99798     2.20741    0.03274    12.23813
     Si   32    1.75621      9.99801     2.21327    0.03251    12.24379
     Si   33    1.73556      9.99798     2.23456    0.03190    12.26444
      C   34   -1.10855      1.99942     5.08966    0.01946     7.10855
      H   35    0.22379      0.00000     0.77524    0.00096     0.77621
      H   36    0.22709      0.00000     0.77209    0.00082     0.77291
      H   37    0.24086      0.00000     0.75811    0.00103     0.75914
      C   38   -1.11141      1.99943     5.09188    0.02010     7.11141
      H   39    0.23152      0.00000     0.76760    0.00088     0.76848
      H   40    0.22439      0.00000     0.77457    0.00104     0.77561
      H   41    0.22558      0.00000     0.77353    0.00089     0.77442
      C   42   -1.10129      1.99942     5.08274    0.01913     7.10129
      H   43    0.22641      0.00000     0.77269    0.00090     0.77359
      H   44    0.22060      0.00000     0.77848    0.00092     0.77940
      H   45    0.23934      0.00000     0.75969    0.00098     0.76066
      C   46   -1.12213      1.99942     5.10284    0.01987     7.12213
      H   47    0.23034      0.00000     0.76874    0.00092     0.76966
      H   48    0.22992      0.00000     0.76899    0.00109     0.77008
      H   49    0.22739      0.00000     0.77126    0.00135     0.77261
      C   50   -1.11808      1.99942     5.09839    0.02028     7.11808
      H   51    0.23309      0.00000     0.76593    0.00098     0.76691
      H   52    0.22886      0.00000     0.77029    0.00085     0.77114
      H   53    0.22601      0.00000     0.77304    0.00094     0.77399
      C   54   -1.11283      1.99941     5.09345    0.01997     7.11283
      H   55    0.22738      0.00000     0.77169    0.00093     0.77262
      H   56    0.22978      0.00000     0.76926    0.00096     0.77022
      H   57    0.22274      0.00000     0.77598    0.00129     0.77726
      C   58   -1.11579      1.99942     5.09636    0.02001     7.11579
      H   59    0.23017      0.00000     0.76897    0.00086     0.76983
      H   60    0.23003      0.00000     0.76904    0.00093     0.76997
      H   61    0.22229      0.00000     0.77646    0.00126     0.77771
      C   62   -1.12604      1.99942     5.10702    0.01961     7.12604
      H   63    0.23349      0.00000     0.76527    0.00124     0.76651
      H   64    0.22822      0.00000     0.77081    0.00097     0.77178
      H   65    0.23338      0.00000     0.76571    0.00091     0.76662
      C   66   -1.11878      1.99943     5.09943    0.01991     7.11878
      H   67    0.22924      0.00000     0.76985    0.00092     0.77076
      H   68    0.22984      0.00000     0.76921    0.00096     0.77016
      H   69    0.22655      0.00000     0.77241    0.00104     0.77345
      C   70   -1.10975      1.99942     5.09013    0.02019     7.10975
      H   71    0.22878      0.00000     0.77040    0.00082     0.77122
      H   72    0.22860      0.00000     0.77043    0.00097     0.77140
      H   73    0.22495      0.00000     0.77416    0.00089     0.77505
      C   74   -1.11425      1.99942     5.09544    0.01938     7.11425
      H   75    0.22440      0.00000     0.77454    0.00107     0.77560
      H   76    0.22973      0.00000     0.76944    0.00083     0.77027
      H   77    0.23527      0.00000     0.76376    0.00097     0.76473
      C   78   -1.09996      1.99942     5.08144    0.01911     7.09996
      H   79    0.22458      0.00000     0.77450    0.00092     0.77542
      H   80    0.22166      0.00000     0.77736    0.00098     0.77834
      H   81    0.23798      0.00000     0.76102    0.00100     0.76202
 =======================================================================
   * Total *    0.00000    109.97289   175.22590    0.80121   286.00000

 Normal termination of Gaussian 16 at Fri Jan 24 01:55:01 2025.
