 Gaussian 16, Revision B.01,
 Gaussian 16:  ES64L-G16RevB.01 20-Dec-2017

 --------------------------------------------
 # nmr=giao b3lyp/def2TZVP pop=nbo scfcyc=200
 --------------------------------------------

 --------------
 MB-90 SPE NoRh
 --------------
 Symbolic Z-matrix:
 Charge =  0 Multiplicity = 1

                         Standard orientation:
 ---------------------------------------------------------------------
 Center     Atomic      Atomic             Coordinates (Angstroms)
 Number     Number       Type             X           Y           Z
 ---------------------------------------------------------------------
      1         15           0        1.415204    0.015516   -0.590501
      2         15           0       -1.416562   -0.042888   -0.592152
      3          6           0       -0.001361   -0.026282    0.643164
      4          1           0        0.026692    0.841925    1.296579
      5          1           0       -0.031718   -0.918666    1.263804
      6          6           0        2.308503    1.571437   -0.140225
      7          6           0        2.199611    2.630893   -1.046449
      8          1           0        1.642108    2.486422   -1.963249
      9          6           0        2.784530    3.864360   -0.785421
     10          1           0        2.689006    4.672703   -1.498570
     11          6           0        3.487405    4.044628    0.398099
     12          1           0        3.953377    4.996758    0.617738
     13          6           0        3.586452    3.000064    1.309921
     14          1           0        4.128057    3.154372    2.235116
     15          6           0        3.004375    1.751533    1.074310
     16          6           0        3.160064    0.673054    2.117902
     17          1           0        2.211029    0.197448    2.369563
     18          1           0        3.832840   -0.118289    1.785156
     19          1           0        3.569432    1.092230    3.036670
     20          6           0        2.503896   -1.453043   -0.293751
     21          6           0        1.968146   -2.571496    0.355599
     22          1           0        0.953197   -2.559840    0.727900
     23          6           0        2.715082   -3.728447    0.533612
     24          1           0        2.278164   -4.577147    1.044732
     25          6           0        4.014586   -3.784584    0.048564
     26          1           0        4.610262   -4.678899    0.181021
     27          6           0        4.545094   -2.689375   -0.618736
     28          1           0        5.554611   -2.742340   -1.007713
     29          6           0        3.814343   -1.514803   -0.816050
     30          6           0        4.476315   -0.376108   -1.553600
     31          1           0        5.341588   -0.739219   -2.107234
     32          1           0        3.808348    0.105949   -2.267119
     33          1           0        4.823426    0.400462   -0.869693
     34          6           0       -2.475058    1.446579   -0.296570
     35          6           0       -1.914477    2.553716    0.349683
     36          1           0       -0.898765    2.522315    0.717186
     37          6           0       -2.636255    3.727078    0.528628
     38          1           0       -2.181462    4.567629    1.037012
     39          6           0       -3.936450    3.809001    0.048933
     40          1           0       -4.514019    4.714503    0.181147
     41          6           0       -4.491803    2.723597   -0.616460
     42          1           0       -5.502078    2.796713   -1.002300
     43          6           0       -3.785192    1.534169   -0.815074
     44          6           0       -4.471966    0.408904   -1.550185
     45          1           0       -3.816050   -0.083526   -2.268243
     46          1           0       -4.829090   -0.363563   -0.864826
     47          1           0       -5.334025    0.788235   -2.097786
     48          6           0       -2.336730   -1.582643   -0.143065
     49          6           0       -2.239809   -2.646281   -1.046475
     50          1           0       -1.674331   -2.511392   -1.959533
     51          6           0       -2.845642   -3.869403   -0.787678
     52          1           0       -2.759088   -4.680439   -1.498791
     53          6           0       -3.558465   -4.035501    0.392275
     54          1           0       -4.041377   -4.980029    0.610287
     55          6           0       -3.645557   -2.988236    1.302037
     56          1           0       -4.194135   -3.132696    2.224726
     57          6           0       -3.041569   -1.750111    1.068862
     58          6           0       -3.181321   -0.669626    2.112042
     59          1           0       -2.225478   -0.210423    2.366133
     60          1           0       -3.839947    0.133376    1.777725
     61          1           0       -3.600698   -1.082438    3.029007
 ---------------------------------------------------------------------

 SCF Done:  E(RB3LYP) =  -1806.30778573     A.U. after   14 cycles

      1  P    Isotropic =   235.8148   Anisotropy =   101.1969

      2  P    Isotropic =   236.3252   Anisotropy =    99.0035

      3  C    Isotropic =   152.0872   Anisotropy =    16.6218

      4  H    Isotropic =    29.3015   Anisotropy =     5.2319

      5  H    Isotropic =    29.3030   Anisotropy =     5.2661

      6  C    Isotropic =    35.7350   Anisotropy =   192.0592

      7  C    Isotropic =    40.2083   Anisotropy =   176.0491

      8  H    Isotropic =    23.6038   Anisotropy =     8.4252

      9  C    Isotropic =    52.3316   Anisotropy =   180.8114

     10  H    Isotropic =    24.3893   Anisotropy =     5.0108

     11  C    Isotropic =    48.2429   Anisotropy =   185.9114

     12  H    Isotropic =    24.3048   Anisotropy =     3.9308

     13  C    Isotropic =    47.9074   Anisotropy =   156.2224

     14  H    Isotropic =    24.5047   Anisotropy =     7.6158

     15  C    Isotropic =    29.6484   Anisotropy =   198.1962

     16  C    Isotropic =   158.6592   Anisotropy =    27.6542

     17  H    Isotropic =    29.7762   Anisotropy =     6.4306

     18  H    Isotropic =    30.1369   Anisotropy =     7.9607

     19  H    Isotropic =    30.0214   Anisotropy =     9.4491

     20  C    Isotropic =    35.8567   Anisotropy =   188.9477

     21  C    Isotropic =    52.6384   Anisotropy =   180.7415

     22  H    Isotropic =    24.7262   Anisotropy =     9.9107

     23  C    Isotropic =    52.5172   Anisotropy =   180.4333

     24  H    Isotropic =    24.7087   Anisotropy =     6.9563

     25  C    Isotropic =    52.9688   Anisotropy =   177.1650

     26  H    Isotropic =    24.6557   Anisotropy =     4.1797

     27  C    Isotropic =    47.0994   Anisotropy =   155.9261

     28  H    Isotropic =    24.6521   Anisotropy =     7.3039

     29  C    Isotropic =    37.6100   Anisotropy =   194.2888

     30  C    Isotropic =   159.5378   Anisotropy =    25.2818

     31  H    Isotropic =    30.0318   Anisotropy =     9.7301

     32  H    Isotropic =    30.0013   Anisotropy =     4.7615

     33  H    Isotropic =    30.6571   Anisotropy =     7.4959

     34  C    Isotropic =    36.0637   Anisotropy =   188.8887

     35  C    Isotropic =    52.6670   Anisotropy =   180.7465

     36  H    Isotropic =    24.7984   Anisotropy =     9.6545

     37  C    Isotropic =    52.4735   Anisotropy =   180.5991

     38  H    Isotropic =    24.7343   Anisotropy =     7.0458

     39  C    Isotropic =    52.7935   Anisotropy =   177.3618

     40  H    Isotropic =    24.6632   Anisotropy =     4.2174

     41  C    Isotropic =    46.9060   Anisotropy =   155.7684

     42  H    Isotropic =    24.6376   Anisotropy =     7.2783

     43  C    Isotropic =    37.5810   Anisotropy =   194.5514

     44  C    Isotropic =   159.4088   Anisotropy =    25.3817

     45  H    Isotropic =    29.9991   Anisotropy =     4.6809

     46  H    Isotropic =    30.6187   Anisotropy =     7.5207

     47  H    Isotropic =    30.0268   Anisotropy =     9.7119

     48  C    Isotropic =    35.4601   Anisotropy =   192.3102

     49  C    Isotropic =    40.3228   Anisotropy =   175.7778

     50  H    Isotropic =    23.6112   Anisotropy =     8.5039

     51  C    Isotropic =    52.3961   Anisotropy =   180.6482

     52  H    Isotropic =    24.3855   Anisotropy =     5.0210

     53  C    Isotropic =    48.2375   Anisotropy =   185.8251

     54  H    Isotropic =    24.3061   Anisotropy =     3.9455

     55  C    Isotropic =    48.0106   Anisotropy =   156.0756

     56  H    Isotropic =    24.5115   Anisotropy =     7.6317

     57  C    Isotropic =    29.6481   Anisotropy =   198.1980

     58  C    Isotropic =   158.7052   Anisotropy =    27.7442

     59  H    Isotropic =    29.8016   Anisotropy =     6.5118

     60  H    Isotropic =    30.1280   Anisotropy =     7.9351

     61  H    Isotropic =    30.0313   Anisotropy =     9.4646

 The electronic state is 1-A.
 Alpha  occ. eigenvalues --  -77.04965 -77.04957 -10.19148 -10.19139 -10.18675
 Alpha  occ. eigenvalues --  -10.18557 -10.18557 -10.18418 -10.18410 -10.18300
 Alpha  occ. eigenvalues --  -10.18293 -10.17979 -10.17977 -10.17879 -10.17869
 Alpha  occ. eigenvalues --  -10.17599 -10.17592 -10.17561 -10.17549 -10.17368
 Alpha  occ. eigenvalues --  -10.17352 -10.17109 -10.17108 -10.17052 -10.17043
 Alpha  occ. eigenvalues --  -10.16997 -10.16988 -10.16815 -10.16807 -10.16320
 Alpha  occ. eigenvalues --  -10.16305  -6.53505  -6.53500  -4.69669  -4.69664
 Alpha  occ. eigenvalues --   -4.69611  -4.69606  -4.69146  -4.69140  -0.86556
 Alpha  occ. eigenvalues --   -0.86473  -0.85819  -0.85810  -0.78316  -0.77935
 Alpha  occ. eigenvalues --   -0.77303  -0.77283  -0.77000  -0.75794  -0.74644
 Alpha  occ. eigenvalues --   -0.74627  -0.72433  -0.69159  -0.69069  -0.68649
 Alpha  occ. eigenvalues --   -0.68430  -0.63784  -0.62182  -0.60313  -0.60303
 Alpha  occ. eigenvalues --   -0.59596  -0.59267  -0.58869  -0.58514  -0.55203
 Alpha  occ. eigenvalues --   -0.54634  -0.51262  -0.50938  -0.49600  -0.49139
 Alpha  occ. eigenvalues --   -0.47135  -0.47056  -0.46751  -0.46679  -0.45127
 Alpha  occ. eigenvalues --   -0.45005  -0.44941  -0.44422  -0.44011  -0.43160
 Alpha  occ. eigenvalues --   -0.42921  -0.41982  -0.41734  -0.41602  -0.41410
 Alpha  occ. eigenvalues --   -0.41392  -0.41088  -0.40783  -0.40357  -0.39733
 Alpha  occ. eigenvalues --   -0.38788  -0.38544  -0.38378  -0.38335  -0.36893
 Alpha  occ. eigenvalues --   -0.36718  -0.36622  -0.36138  -0.35815  -0.34975
 Alpha  occ. eigenvalues --   -0.34901  -0.34878  -0.34536  -0.34321  -0.32632
 Alpha  occ. eigenvalues --   -0.32190  -0.31412  -0.27230  -0.26824  -0.26338
 Alpha  occ. eigenvalues --   -0.25829  -0.25398  -0.25087  -0.24820  -0.24720
 Alpha  occ. eigenvalues --   -0.21663  -0.18783
 Alpha virt. eigenvalues --   -0.03407  -0.03125  -0.02307  -0.02231  -0.01398
 Alpha virt. eigenvalues --   -0.01260  -0.01129  -0.01016   0.02719   0.03049
 Alpha virt. eigenvalues --    0.04168   0.04451   0.05196   0.05257   0.05588

 Mulliken charges:
               1
     1  P    0.140565
     2  P    0.139241
     3  C   -0.439883
     4  H    0.142688
     5  H    0.142830
     6  C   -0.029703
     7  C   -0.102716
     8  H    0.117152
     9  C   -0.134066
    10  H    0.109508
    11  C   -0.081231
    12  H    0.109047
    13  C   -0.189305
    14  H    0.095774
    15  C    0.040645
    16  C   -0.328160
    17  H    0.121502
    18  H    0.143797
    19  H    0.112134
    20  C    0.004647
    21  C   -0.104767
    22  H    0.116117
    23  C   -0.172821
    24  H    0.103999
    25  C   -0.090533
    26  H    0.103651
    27  C   -0.189330
    28  H    0.094484
    29  C    0.054420
    30  C   -0.344688
    31  H    0.114028
    32  H    0.131830
    33  H    0.131187
    34  C    0.002805
    35  C   -0.102800
    36  H    0.120865
    37  C   -0.175834
    38  H    0.104033
    39  C   -0.090184
    40  H    0.103662
    41  C   -0.189254
    42  H    0.094460
    43  C    0.053943
    44  C   -0.345094
    45  H    0.131860
    46  H    0.131247
    47  H    0.113980
    48  C   -0.027606
    49  C   -0.104617
    50  H    0.117251
    51  C   -0.135080
    52  H    0.109530
    53  C   -0.080755
    54  H    0.108990
    55  C   -0.188959
    56  H    0.095692
    57  C    0.040852
    58  C   -0.328316
    59  H    0.121592
    60  H    0.143609
    61  H    0.112084
 Sum of Mulliken charges =  -0.00000

 Dipole moment (field-independent basis, Debye):
    X=             -0.0052    Y=              0.0173    Z=              1.9995  Tot=              1.9996
 Quadrupole moment (field-independent basis, Debye-Ang):
   XX=           -188.9142   YY=           -187.3506   ZZ=           -199.5467
   XY=              5.1033   XZ=              0.0122   YZ=             -0.0582

 Summary of Natural Population Analysis:

                                       Natural Population
                Natural  -----------------------------------------------
    Atom  No    Charge         Core      Valence    Rydberg      Total
 -----------------------------------------------------------------------
      P    1    0.82548      9.99814     4.14350    0.03288    14.17452
      P    2    0.82616      9.99813     4.14279    0.03292    14.17384
      C    3   -1.00701      1.99944     4.97574    0.03183     7.00701
      H    4    0.24876      0.00000     0.74898    0.00226     0.75124
      H    5    0.24716      0.00000     0.75029    0.00255     0.75284
      C    6   -0.32674      1.99890     4.29588    0.03195     6.32674
      C    7   -0.18935      1.99911     4.16957    0.02067     6.18935
      H    8    0.22014      0.00000     0.77824    0.00161     0.77986
      C    9   -0.21528      1.99917     4.19653    0.01958     6.21528
      H   10    0.21072      0.00000     0.78803    0.00125     0.78928
      C   11   -0.19139      1.99918     4.17312    0.01909     6.19139
      H   12    0.20853      0.00000     0.79027    0.00120     0.79147
      C   13   -0.20707      1.99910     4.18944    0.01852     6.20707
      H   14    0.20276      0.00000     0.79567    0.00157     0.79724
      C   15   -0.00946      1.99903     3.98909    0.02134     6.00946
      C   16   -0.61692      1.99939     4.60540    0.01213     6.61692
      H   17    0.21466      0.00000     0.78383    0.00151     0.78534
      H   18    0.22591      0.00000     0.77238    0.00171     0.77409
      H   19    0.20931      0.00000     0.78956    0.00113     0.79069
      C   20   -0.31270      1.99890     4.28344    0.03036     6.31270
      C   21   -0.21186      1.99909     4.19327    0.01949     6.21186
      H   22    0.20044      0.00000     0.79747    0.00209     0.79956
      C   23   -0.20497      1.99917     4.18692    0.01887     6.20497
      H   24    0.20773      0.00000     0.79100    0.00127     0.79227
      C   25   -0.21021      1.99918     4.19133    0.01970     6.21021
      H   26    0.20721      0.00000     0.79158    0.00121     0.79279
      C   27   -0.19637      1.99910     4.17919    0.01809     6.19637
      H   28    0.20279      0.00000     0.79577    0.00144     0.79721
      C   29   -0.02098      1.99904     4.00139    0.02054     6.02098
      C   30   -0.61699      1.99940     4.60583    0.01177     6.61699
      H   31    0.21068      0.00000     0.78820    0.00112     0.78932
      H   32    0.22062      0.00000     0.77794    0.00144     0.77938
      H   33    0.21872      0.00000     0.77973    0.00155     0.78128
      C   34   -0.31346      1.99889     4.28415    0.03041     6.31346
      C   35   -0.21215      1.99909     4.19339    0.01967     6.21215
      H   36    0.20100      0.00000     0.79658    0.00242     0.79900
      C   37   -0.20494      1.99917     4.18686    0.01890     6.20494
      H   38    0.20783      0.00000     0.79089    0.00127     0.79217
      C   39   -0.21022      1.99918     4.19135    0.01969     6.21022
      H   40    0.20713      0.00000     0.79167    0.00121     0.79287
      C   41   -0.19632      1.99910     4.17914    0.01807     6.19632
      H   42    0.20280      0.00000     0.79576    0.00144     0.79720
      C   43   -0.02103      1.99904     4.00144    0.02055     6.02103
      C   44   -0.61707      1.99940     4.60590    0.01177     6.61707
      H   45    0.22063      0.00000     0.77793    0.00144     0.77937
      H   46    0.21878      0.00000     0.77967    0.00156     0.78122
      H   47    0.21072      0.00000     0.78816    0.00112     0.78928
      C   48   -0.32693      1.99891     4.29616    0.03186     6.32693
      C   49   -0.18933      1.99911     4.16960    0.02062     6.18933
      H   50    0.21990      0.00000     0.77849    0.00161     0.78010
      C   51   -0.21546      1.99917     4.19672    0.01957     6.21546
      H   52    0.21077      0.00000     0.78798    0.00125     0.78923
      C   53   -0.19110      1.99918     4.17283    0.01908     6.19110
      H   54    0.20848      0.00000     0.79032    0.00120     0.79152
      C   55   -0.20730      1.99910     4.18970    0.01850     6.20730
      H   56    0.20274      0.00000     0.79569    0.00157     0.79726
      C   57   -0.00888      1.99903     3.98870    0.02115     6.00888
      C   58   -0.61692      1.99939     4.60541    0.01212     6.61692
      H   59    0.21470      0.00000     0.78374    0.00156     0.78530
      H   60    0.22582      0.00000     0.77248    0.00170     0.77418
      H   61    0.20930      0.00000     0.78956    0.00114     0.79070
 =======================================================================
   * Total *   -0.00000     77.97123   155.32167    0.70710   234.00000

 Normal termination of Gaussian 16 at Fri Jan 24 01:13:48 2025.
