 Gaussian 16, Revision B.01,
 Gaussian 16:  ES64L-G16RevB.01 20-Dec-2017

 --------------------------------------------
 # nmr=giao b3lyp/def2TZVP pop=nbo scfcyc=200
 --------------------------------------------

 -------------
 MB-9 SPE NoRh
 -------------
 Symbolic Z-matrix:
 Charge =  0 Multiplicity = 1

                         Standard orientation:
 ---------------------------------------------------------------------
 Center     Atomic      Atomic             Coordinates (Angstroms)
 Number     Number       Type             X           Y           Z
 ---------------------------------------------------------------------
      1         15           0       -2.443830   -0.081619   -0.386082
      2         15           0        0.380263   -0.019213   -0.409939
      3          6           0       -1.033271   -0.143280    0.832619
      4          1           0       -1.021360   -1.094647    1.362393
      5          1           0       -1.052835    0.652535    1.575845
      6          6           0       -3.512048   -1.541184   -0.013575
      7          1           0       -2.952238   -2.460673   -0.180591
      8          1           0       -4.375117   -1.538547   -0.681080
      9          1           0       -3.862515   -1.508904    1.018819
     10          6           0       -3.510890    1.347258    0.090235
     11          1           0       -2.960602    2.280012   -0.019343
     12          1           0       -3.851773    1.244551    1.121362
     13          1           0       -4.380318    1.381636   -0.566636
     14          6           0        1.478338   -1.553225   -0.025822
     15          6           0        1.793756   -1.724194    1.469433
     16          1           0        0.896259   -1.783015    2.086695
     17          1           0        2.424127   -0.929957    1.861230
     18          1           0        2.334317   -2.664398    1.604090
     19          6           0        2.792785   -1.478110   -0.819587
     20          1           0        2.634177   -1.278962   -1.880348
     21          1           0        3.309729   -2.437379   -0.740883
     22          1           0        3.465861   -0.717643   -0.425587
     23          6           0        0.672307   -2.777914   -0.500561
     24          1           0       -0.254269   -2.908587    0.062417
     25          1           0        1.271549   -3.678754   -0.341676
     26          1           0        0.420072   -2.722518   -1.558644
     27          6           0        1.236288    1.658659   -0.025145
     28          6           0        1.902507    1.695839    1.357064
     29          1           0        1.231333    1.383859    2.159435
     30          1           0        2.208534    2.723508    1.574174
     31          1           0        2.798775    1.079007    1.398503
     32          6           0        2.276273    1.973275   -1.113622
     33          1           0        1.818730    2.043045   -2.098987
     34          1           0        3.081493    1.242948   -1.156860
     35          1           0        2.729033    2.943873   -0.895428
     36          6           0        0.139183    2.738502   -0.088996
     37          1           0       -0.413939    2.700640   -1.030301
     38          1           0        0.610805    3.721467   -0.018306
     39          1           0       -0.567701    2.665633    0.737765
 ---------------------------------------------------------------------

 SCF Done:  E(RB3LYP) =  -1117.74102139     A.U. after   13 cycles

      1  P    Isotropic =   283.0585   Anisotropy =   137.2718

      2  P    Isotropic =   191.2889   Anisotropy =   104.0016

      3  C    Isotropic =   163.3160   Anisotropy =    24.9476

      4  H    Isotropic =    30.9023   Anisotropy =     5.4180

      5  H    Isotropic =    30.6639   Anisotropy =     4.2606

      6  C    Isotropic =   168.7548   Anisotropy =    22.5171

      7  H    Isotropic =    30.6182   Anisotropy =     6.7053

      8  H    Isotropic =    31.1844   Anisotropy =    10.7518

      9  H    Isotropic =    30.6835   Anisotropy =     8.8460

     10  C    Isotropic =   169.7887   Anisotropy =    21.2529

     11  H    Isotropic =    30.5295   Anisotropy =     6.5617

     12  H    Isotropic =    30.7549   Anisotropy =     8.9410

     13  H    Isotropic =    31.2282   Anisotropy =    10.7110

     14  C    Isotropic =   140.9524   Anisotropy =    17.6924

     15  C    Isotropic =   155.5789   Anisotropy =    38.8539

     16  H    Isotropic =    30.7272   Anisotropy =     5.4756

     17  H    Isotropic =    30.5598   Anisotropy =     6.7070

     18  H    Isotropic =    31.1666   Anisotropy =     9.6161

     19  C    Isotropic =   153.7116   Anisotropy =    37.9301

     20  H    Isotropic =    30.6213   Anisotropy =     7.5410

     21  H    Isotropic =    31.1447   Anisotropy =     9.2352

     22  H    Isotropic =    30.8060   Anisotropy =     7.1515

     23  C    Isotropic =   151.0710   Anisotropy =    46.3581

     24  H    Isotropic =    30.9599   Anisotropy =     7.0697

     25  H    Isotropic =    31.3706   Anisotropy =     9.1150

     26  H    Isotropic =    30.6436   Anisotropy =     8.0456

     27  C    Isotropic =   142.1568   Anisotropy =    16.8889

     28  C    Isotropic =   154.4451   Anisotropy =    34.5755

     29  H    Isotropic =    30.6944   Anisotropy =     5.3806

     30  H    Isotropic =    31.0708   Anisotropy =     9.5404

     31  H    Isotropic =    30.6261   Anisotropy =     6.7881

     32  C    Isotropic =   152.7432   Anisotropy =    43.8467

     33  H    Isotropic =    30.6918   Anisotropy =     8.0855

     34  H    Isotropic =    30.5921   Anisotropy =     7.1926

     35  H    Isotropic =    31.2360   Anisotropy =     9.2781

     36  C    Isotropic =   151.3227   Anisotropy =    41.8244

     37  H    Isotropic =    30.6700   Anisotropy =     7.5693

     38  H    Isotropic =    31.3060   Anisotropy =     8.7332

     39  H    Isotropic =    31.0007   Anisotropy =     6.7151

 The electronic state is 1-A.
 Alpha  occ. eigenvalues --  -77.03353 -77.03232 -10.19043 -10.18981 -10.17485
 Alpha  occ. eigenvalues --  -10.16356 -10.16320 -10.16284 -10.16170 -10.16154
 Alpha  occ. eigenvalues --  -10.16082 -10.15885 -10.15845  -6.51935  -6.51766
 Alpha  occ. eigenvalues --   -4.68095  -4.68055  -4.67937  -4.67852  -4.67537
 Alpha  occ. eigenvalues --   -4.67385  -0.81969  -0.80466  -0.75785  -0.70533
 Alpha  occ. eigenvalues --   -0.69261  -0.69082  -0.68919  -0.68567  -0.68407
 Alpha  occ. eigenvalues --   -0.60259  -0.54981  -0.52681  -0.50884  -0.47024
 Alpha  occ. eigenvalues --   -0.45152  -0.44508  -0.44282  -0.43682  -0.43131
 Alpha  occ. eigenvalues --   -0.42592  -0.42214  -0.41930  -0.40103  -0.40015
 Alpha  occ. eigenvalues --   -0.39209  -0.39143  -0.38489  -0.38077  -0.37471
 Alpha  occ. eigenvalues --   -0.36517  -0.36268  -0.34298  -0.34070  -0.33572
 Alpha  occ. eigenvalues --   -0.33134  -0.32966  -0.29527  -0.28349  -0.21567
 Alpha  occ. eigenvalues --   -0.17815
 Alpha virt. eigenvalues --    0.01841   0.02240   0.03181   0.04370   0.04420
 Alpha virt. eigenvalues --    0.05286   0.06893   0.07292   0.07677   0.08054
 Alpha virt. eigenvalues --    0.08255   0.08732   0.08978   0.09452   0.09625

 Mulliken charges:
               1
     1  P    0.182481
     2  P    0.124598
     3  C   -0.371113
     4  H    0.116900
     5  H    0.115631
     6  C   -0.422649
     7  H    0.125665
     8  H    0.123878
     9  H    0.106375
    10  C   -0.425092
    11  H    0.132802
    12  H    0.105926
    13  H    0.123309
    14  C    0.063029
    15  C   -0.332525
    16  H    0.102662
    17  H    0.110091
    18  H    0.098411
    19  C   -0.382948
    20  H    0.127800
    21  H    0.107357
    22  H    0.105847
    23  C   -0.355190
    24  H    0.099465
    25  H    0.105282
    26  H    0.128967
    27  C    0.078472
    28  C   -0.358515
    29  H    0.115361
    30  H    0.101647
    31  H    0.104020
    32  C   -0.356205
    33  H    0.119722
    34  H    0.112827
    35  H    0.103037
    36  C   -0.390900
    37  H    0.135411
    38  H    0.110651
    39  H    0.107513
 Sum of Mulliken charges =  -0.00000

 Dipole moment (field-independent basis, Debye):
    X=              0.1900    Y=              0.0436    Z=              1.7775  Tot=              1.7882
 Quadrupole moment (field-independent basis, Debye-Ang):
   XX=            -99.5061   YY=            -99.6844   ZZ=           -106.6936
   XY=             -0.0081   XZ=             -2.2362   YZ=              0.0094

 Summary of Natural Population Analysis:

                                       Natural Population
                Natural  -----------------------------------------------
    Atom  No    Charge         Core      Valence    Rydberg      Total
 -----------------------------------------------------------------------
      P    1    0.79637      9.99882     4.16260    0.04221    14.20363
      P    2    0.79012      9.99846     4.18079    0.03063    14.20988
      C    3   -1.03520      1.99945     5.00269    0.03306     7.03520
      H    4    0.24068      0.00000     0.75685    0.00247     0.75932
      H    5    0.23700      0.00000     0.76024    0.00276     0.76300
      C    6   -0.91634      1.99946     4.89828    0.01860     6.91634
      H    7    0.22452      0.00000     0.77429    0.00118     0.77548
      H    8    0.22870      0.00000     0.77036    0.00094     0.77130
      H    9    0.20254      0.00000     0.79417    0.00328     0.79746
      C   10   -0.91756      1.99946     4.89927    0.01883     6.91756
      H   11    0.22633      0.00000     0.77256    0.00111     0.77367
      H   12    0.20234      0.00000     0.79438    0.00329     0.79766
      H   13    0.22859      0.00000     0.77047    0.00094     0.77141
      C   14   -0.27493      1.99946     4.25036    0.02511     6.27493
      C   15   -0.60292      1.99937     4.59131    0.01224     6.60292
      H   16    0.19800      0.00000     0.80044    0.00156     0.80200
      H   17    0.20384      0.00000     0.79479    0.00137     0.79616
      H   18    0.19501      0.00000     0.80265    0.00234     0.80499
      C   19   -0.60141      1.99937     4.59001    0.01204     6.60141
      H   20    0.21273      0.00000     0.78570    0.00157     0.78727
      H   21    0.20152      0.00000     0.79637    0.00211     0.79848
      H   22    0.19943      0.00000     0.79910    0.00148     0.80057
      C   23   -0.60245      1.99938     4.59072    0.01236     6.60245
      H   24    0.19727      0.00000     0.80116    0.00156     0.80273
      H   25    0.20188      0.00000     0.79602    0.00210     0.79812
      H   26    0.21687      0.00000     0.78176    0.00137     0.78313
      C   27   -0.27595      1.99946     4.25137    0.02513     6.27595
      C   28   -0.60304      1.99937     4.59139    0.01229     6.60304
      H   29    0.20108      0.00000     0.79733    0.00158     0.79892
      H   30    0.19571      0.00000     0.80193    0.00236     0.80429
      H   31    0.19965      0.00000     0.79884    0.00151     0.80035
      C   32   -0.60063      1.99937     4.58885    0.01241     6.60063
      H   33    0.21325      0.00000     0.78533    0.00142     0.78675
      H   34    0.20462      0.00000     0.79408    0.00130     0.79538
      H   35    0.19899      0.00000     0.79900    0.00201     0.80101
      C   36   -0.60589      1.99938     4.59400    0.01252     6.60589
      H   37    0.21562      0.00000     0.78285    0.00154     0.78438
      H   38    0.20503      0.00000     0.79287    0.00210     0.79497
      H   39    0.19865      0.00000     0.79985    0.00151     0.80135
 =======================================================================
   * Total *    0.00000     41.99080    79.69501    0.31419   122.00000

 Normal termination of Gaussian 16 at Thu Jan 23 19:32:15 2025.
