 Gaussian 16, Revision B.01,
 Gaussian 16:  ES64L-G16RevB.01 20-Dec-2017

 --------------------------------------------
 # nmr=giao b3lyp/def2TZVP pop=nbo scfcyc=200
 --------------------------------------------

 --------------
 MS-14 SPE NoRh
 --------------
 Symbolic Z-matrix:
 Charge =  0 Multiplicity = 1

                         Standard orientation:
 ---------------------------------------------------------------------
 Center     Atomic      Atomic             Coordinates (Angstroms)
 Number     Number       Type             X           Y           Z
 ---------------------------------------------------------------------
      1         15           0       -1.429737   -0.285658   -0.734085
      2         15           0        1.404962   -0.254476   -0.727954
      3          6           0       -0.004521   -0.616325    0.495767
      4          1           0       -0.042070   -1.705579    0.575152
      5          6           0        0.011814   -0.054390    1.819852
      6          7           0        0.037237    0.407222    2.875223
      7          6           0       -2.253465    1.311551   -0.358446
      8          6           0       -3.537949    1.513149   -0.882912
      9          1           0       -4.049866    0.714655   -1.406695
     10          6           0       -4.179186    2.733050   -0.714762
     11          1           0       -5.174187    2.875374   -1.115264
     12          6           0       -3.546769    3.764692   -0.026480
     13          1           0       -4.050715    4.713721    0.110524
     14          6           0       -2.271176    3.572573    0.488926
     15          1           0       -1.777257    4.368295    1.032769
     16          6           0       -1.619914    2.354610    0.319918
     17          1           0       -0.629596    2.233734    0.733988
     18          6           0       -2.652714   -1.596730   -0.327260
     19          6           0       -3.555567   -1.445658    0.730140
     20          1           0       -3.596926   -0.521320    1.290271
     21          6           0       -4.411037   -2.488410    1.064076
     22          1           0       -5.108760   -2.366797    1.883948
     23          6           0       -4.371665   -3.684913    0.352845
     24          1           0       -5.042095   -4.492920    0.615787
     25          6           0       -3.469871   -3.841756   -0.694985
     26          1           0       -3.436577   -4.771945   -1.248355
     27          6           0       -2.611459   -2.802304   -1.035810
     28          1           0       -1.905780   -2.928485   -1.847631
     29          6           0        2.081233    1.400744   -0.315621
     30          6           0        1.804084    2.483299   -1.156685
     31          1           0        1.196192    2.334860   -2.039827
     32          6           0        2.304799    3.745641   -0.857033
     33          1           0        2.090692    4.580223   -1.512237
     34          6           0        3.080766    3.933173    0.282502
     35          1           0        3.472551    4.915734    0.514017
     36          6           0        3.359021    2.858411    1.123790
     37          1           0        3.960876    3.003620    2.010691
     38          6           0        2.865286    1.594075    0.827783
     39          1           0        3.095483    0.765759    1.484679
     40          6           0        2.765931   -1.434744   -0.350880
     41          6           0        2.645528   -2.491067    0.553481
     42          1           0        1.742689   -2.635899    1.133226
     43          6           0        3.706131   -3.371898    0.746458
     44          1           0        3.604674   -4.180955    1.459805
     45          6           0        4.888937   -3.211298    0.035279
     46          1           0        5.711068   -3.897255    0.188582
     47          6           0        5.015271   -2.160039   -0.869496
     48          1           0        5.937039   -2.025013   -1.420352
     49          6           0        3.961682   -1.277978   -1.063986
     50          1           0        4.082395   -0.453095   -1.757820
 ---------------------------------------------------------------------

 SCF Done:  E(RB3LYP) =  -1741.26990451     A.U. after   15 cycles

      1  P    Isotropic =   215.7265   Anisotropy =    90.4516

      2  P    Isotropic =   215.3505   Anisotropy =   113.7537

      3  C    Isotropic =   150.1089   Anisotropy =    22.1149

      4  H    Isotropic =    28.8198   Anisotropy =     4.8004

      5  C    Isotropic =    66.3343   Anisotropy =   328.6239

      6  N    Isotropic =   -37.1327   Anisotropy =   456.3216

      7  C    Isotropic =    39.0444   Anisotropy =   183.6956

      8  C    Isotropic =    48.5350   Anisotropy =   185.4056

      9  H    Isotropic =    24.5897   Anisotropy =    11.2242

     10  C    Isotropic =    50.2366   Anisotropy =   184.4428

     11  H    Isotropic =    24.4254   Anisotropy =     5.3729

     12  C    Isotropic =    51.6626   Anisotropy =   183.5408

     13  H    Isotropic =    24.5161   Anisotropy =     4.4214

     14  C    Isotropic =    49.9709   Anisotropy =   185.3957

     15  H    Isotropic =    24.6495   Anisotropy =     7.7848

     16  C    Isotropic =    46.8376   Anisotropy =   191.9174

     17  H    Isotropic =    24.9498   Anisotropy =     6.8687

     18  C    Isotropic =    33.7450   Anisotropy =   204.2683

     19  C    Isotropic =    42.4490   Anisotropy =   190.3990

     20  H    Isotropic =    24.0441   Anisotropy =    12.0371

     21  C    Isotropic =    48.5124   Anisotropy =   185.9819

     22  H    Isotropic =    24.2990   Anisotropy =     6.4661

     23  C    Isotropic =    47.4358   Anisotropy =   190.3926

     24  H    Isotropic =    24.1922   Anisotropy =     4.3022

     25  C    Isotropic =    49.2711   Anisotropy =   184.6031

     26  H    Isotropic =    24.1677   Anisotropy =     5.4641

     27  C    Isotropic =    43.0226   Anisotropy =   180.6190

     28  H    Isotropic =    23.7666   Anisotropy =     8.8356

     29  C    Isotropic =    39.3773   Anisotropy =   196.7101

     30  C    Isotropic =    39.6571   Anisotropy =   185.5103

     31  H    Isotropic =    23.7419   Anisotropy =     7.6359

     32  C    Isotropic =    50.5015   Anisotropy =   184.5545

     33  H    Isotropic =    24.2613   Anisotropy =     5.1477

     34  C    Isotropic =    46.9117   Anisotropy =   192.3398

     35  H    Isotropic =    24.1331   Anisotropy =     4.0331

     36  C    Isotropic =    48.5820   Anisotropy =   186.3651

     37  H    Isotropic =    24.2468   Anisotropy =     6.3220

     38  C    Isotropic =    37.4121   Anisotropy =   195.2739

     39  H    Isotropic =    24.0644   Anisotropy =    10.5738

     40  C    Isotropic =    34.0861   Anisotropy =   194.0848

     41  C    Isotropic =    50.7163   Anisotropy =   182.0530

     42  H    Isotropic =    24.2895   Anisotropy =    11.0307

     43  C    Isotropic =    49.6559   Anisotropy =   184.2671

     44  H    Isotropic =    24.3177   Anisotropy =     6.3392

     45  C    Isotropic =    51.7973   Anisotropy =   183.6398

     46  H    Isotropic =    24.4962   Anisotropy =     4.0423

     47  C    Isotropic =    49.2276   Anisotropy =   186.1514

     48  H    Isotropic =    24.4083   Anisotropy =     5.6544

     49  C    Isotropic =    48.2873   Anisotropy =   186.3861

     50  H    Isotropic =    24.6324   Anisotropy =    11.6849

 The electronic state is 1-A.
 Alpha  occ. eigenvalues --  -77.06959 -77.06787 -14.30872 -10.23315 -10.21016
 Alpha  occ. eigenvalues --  -10.19388 -10.19348 -10.19329 -10.19275 -10.19027
 Alpha  occ. eigenvalues --  -10.18858 -10.18832 -10.18724 -10.18705 -10.18692
 Alpha  occ. eigenvalues --  -10.18632 -10.18586 -10.18555 -10.18490 -10.18454
 Alpha  occ. eigenvalues --  -10.18346 -10.18329 -10.18296 -10.18279 -10.18143
 Alpha  occ. eigenvalues --  -10.18014 -10.18009 -10.17853 -10.17791  -6.55467
 Alpha  occ. eigenvalues --   -6.55307  -4.71670  -4.71541  -4.71506  -4.71379
 Alpha  occ. eigenvalues --   -4.71092  -4.70937  -0.90804  -0.87149  -0.87008
 Alpha  occ. eigenvalues --   -0.86511  -0.86292  -0.80150  -0.77363  -0.76098
 Alpha  occ. eigenvalues --   -0.75940  -0.75867  -0.75571  -0.75361  -0.75210
 Alpha  occ. eigenvalues --   -0.75204  -0.65199  -0.64640  -0.61917  -0.61691
 Alpha  occ. eigenvalues --   -0.61580  -0.61210  -0.60840  -0.60748  -0.58026
 Alpha  occ. eigenvalues --   -0.57129  -0.53688  -0.52957  -0.52787  -0.51042
 Alpha  occ. eigenvalues --   -0.49778  -0.46956  -0.46713  -0.46661  -0.46402
 Alpha  occ. eigenvalues --   -0.46255  -0.46148  -0.45768  -0.45557  -0.43813
 Alpha  occ. eigenvalues --   -0.43591  -0.43383  -0.43323  -0.42838  -0.41657
 Alpha  occ. eigenvalues --   -0.41071  -0.40377  -0.38586  -0.38347  -0.38158
 Alpha  occ. eigenvalues --   -0.37981  -0.36977  -0.36847  -0.36354  -0.35918
 Alpha  occ. eigenvalues --   -0.35745  -0.35693  -0.35497  -0.34046  -0.33638
 Alpha  occ. eigenvalues --   -0.32412  -0.31140  -0.28731  -0.28016  -0.27543
 Alpha  occ. eigenvalues --   -0.27126  -0.26868  -0.26831  -0.26403  -0.26035
 Alpha  occ. eigenvalues --   -0.23455  -0.20302
 Alpha virt. eigenvalues --   -0.04489  -0.04315  -0.03331  -0.03203  -0.02885
 Alpha virt. eigenvalues --   -0.02593  -0.01981  -0.01296   0.00887   0.01473
 Alpha virt. eigenvalues --    0.02284   0.03149   0.04072   0.04745   0.04850

 Mulliken charges:
               1
     1  P    0.167806
     2  P    0.150822
     3  C   -0.111858
     4  H    0.137585
     5  C   -0.285270
     6  N    0.025355
     7  C    0.076496
     8  C   -0.195343
     9  H    0.124103
    10  C   -0.110483
    11  H    0.110429
    12  C   -0.103902
    13  H    0.109401
    14  C   -0.145488
    15  H    0.112341
    16  C   -0.153013
    17  H    0.158639
    18  C    0.008512
    19  C   -0.161667
    20  H    0.146565
    21  C   -0.109524
    22  H    0.114717
    23  C   -0.097527
    24  H    0.115563
    25  C   -0.098827
    26  H    0.114118
    27  C   -0.182550
    28  H    0.121560
    29  C   -0.027301
    30  C   -0.152691
    31  H    0.121968
    32  C   -0.107521
    33  H    0.113544
    34  C   -0.088759
    35  H    0.114661
    36  C   -0.119549
    37  H    0.113732
    38  C   -0.104854
    39  H    0.137721
    40  C    0.089767
    41  C   -0.178842
    42  H    0.109500
    43  C   -0.130255
    44  H    0.111069
    45  C   -0.103854
    46  H    0.111437
    47  C   -0.113433
    48  H    0.111489
    49  C   -0.164603
    50  H    0.118216
 Sum of Mulliken charges =  -0.00000

 Dipole moment (field-independent basis, Debye):
    X=             -0.0210    Y=             -0.7090    Z=             -1.5222  Tot=              1.6794
 Quadrupole moment (field-independent basis, Debye-Ang):
   XX=           -163.3837   YY=           -161.3631   ZZ=           -197.4011
   XY=              3.6619   XZ=              0.1819   YZ=             -3.6919

 Summary of Natural Population Analysis:

                                       Natural Population
                Natural  -----------------------------------------------
    Atom  No    Charge         Core      Valence    Rydberg      Total
 -----------------------------------------------------------------------
      P    1    0.87425      9.99811     4.09511    0.03253    14.12575
      P    2    0.86699      9.99810     4.10185    0.03306    14.13301
      C    3   -0.88465      1.99908     4.85276    0.03281     6.88465
      H    4    0.28673      0.00000     0.71058    0.00269     0.71327
      C    5    0.26635      1.99922     3.69978    0.03465     5.73365
      N    6   -0.32582      1.99961     5.29816    0.02805     7.32582
      C    7   -0.34246      1.99899     4.31286    0.03062     6.34246
      C    8   -0.20398      1.99909     4.18548    0.01941     6.20398
      H    9    0.21273      0.00000     0.78543    0.00184     0.78727
      C   10   -0.19822      1.99918     4.18050    0.01854     6.19822
      H   11    0.20970      0.00000     0.78906    0.00124     0.79030
      C   12   -0.20726      1.99919     4.18876    0.01931     6.20726
      H   13    0.20885      0.00000     0.79000    0.00115     0.79115
      C   14   -0.19218      1.99919     4.17382    0.01917     6.19218
      H   15    0.21187      0.00000     0.78687    0.00126     0.78813
      C   16   -0.20624      1.99907     4.18646    0.02071     6.20624
      H   17    0.22004      0.00000     0.77733    0.00264     0.77996
      C   18   -0.34587      1.99899     4.31548    0.03140     6.34587
      C   19   -0.18959      1.99908     4.17057    0.01995     6.18959
      H   20    0.21993      0.00000     0.77798    0.00209     0.78007
      C   21   -0.20029      1.99919     4.18211    0.01899     6.20029
      H   22    0.21130      0.00000     0.78733    0.00137     0.78870
      C   23   -0.19318      1.99919     4.17505    0.01894     6.19318
      H   24    0.21054      0.00000     0.78828    0.00117     0.78946
      C   25   -0.20425      1.99918     4.18563    0.01944     6.20425
      H   26    0.21158      0.00000     0.78714    0.00128     0.78842
      C   27   -0.19571      1.99910     4.17627    0.02034     6.19571
      H   28    0.21780      0.00000     0.78067    0.00153     0.78220
      C   29   -0.35642      1.99900     4.32532    0.03210     6.35642
      C   30   -0.18539      1.99910     4.16638    0.01991     6.18539
      H   31    0.22088      0.00000     0.77762    0.00150     0.77912
      C   32   -0.20821      1.99918     4.18984    0.01919     6.20821
      H   33    0.21217      0.00000     0.78658    0.00125     0.78783
      C   34   -0.18848      1.99920     4.17059    0.01869     6.18848
      H   35    0.21014      0.00000     0.78869    0.00116     0.78986
      C   36   -0.20049      1.99919     4.18248    0.01881     6.20049
      H   37    0.21222      0.00000     0.78647    0.00131     0.78778
      C   38   -0.17816      1.99908     4.15829    0.02079     6.17816
      H   39    0.21849      0.00000     0.77905    0.00246     0.78151
      C   40   -0.32999      1.99900     4.29940    0.03159     6.32999
      C   41   -0.21326      1.99908     4.19494    0.01924     6.21326
      H   42    0.20088      0.00000     0.79738    0.00175     0.79912
      C   43   -0.19327      1.99919     4.17534    0.01874     6.19327
      H   44    0.21004      0.00000     0.78871    0.00125     0.78996
      C   45   -0.20893      1.99919     4.19050    0.01924     6.20893
      H   46    0.20971      0.00000     0.78913    0.00115     0.79029
      C   47   -0.19333      1.99918     4.17562    0.01853     6.19333
      H   48    0.21036      0.00000     0.78839    0.00125     0.78964
      C   49   -0.20035      1.99908     4.18168    0.01958     6.20035
      H   50    0.21244      0.00000     0.78584    0.00172     0.78756
 =======================================================================
   * Total *    0.00000     73.97305   139.31955    0.70740   214.00000

 Normal termination of Gaussian 16 at Fri Jan 24 05:37:08 2025.
