 Gaussian 16, Revision B.01,
 Gaussian 16:  ES64L-G16RevB.01 20-Dec-2017

 --------------------------------------------
 # nmr=giao b3lyp/def2TZVP pop=nbo scfcyc=200
 --------------------------------------------

 --------------
 MS-13 SPE NoRh
 --------------
 Symbolic Z-matrix:
 Charge =  0 Multiplicity = 1

                         Standard orientation:
 ---------------------------------------------------------------------
 Center     Atomic      Atomic             Coordinates (Angstroms)
 Number     Number       Type             X           Y           Z
 ---------------------------------------------------------------------
      1          6           0       -0.260169   -0.731896    0.691317
      2          1           0       -0.262900   -1.824119    0.722918
      3          6           0       -0.348579   -0.182499    2.109042
      4          1           0       -0.362711    0.907330    2.130223
      5          1           0        0.496442   -0.524469    2.710745
      6          1           0       -1.257341   -0.535560    2.599149
      7          6           0       -3.030709   -1.460767   -0.302576
      8          6           0       -4.279815   -1.093402   -0.817985
      9          1           0       -4.413781   -0.130855   -1.293971
     10          6           0       -5.367695   -1.952642   -0.705581
     11          1           0       -6.329034   -1.653065   -1.103633
     12          6           0       -5.223042   -3.188037   -0.082135
     13          1           0       -6.071041   -3.854247    0.008008
     14          6           0       -3.984375   -3.562120    0.425731
     15          1           0       -3.864228   -4.521032    0.914556
     16          6           0       -2.892251   -2.708520    0.311548
     17          1           0       -1.938383   -3.030237    0.709695
     18          6           0       -2.235348    1.347567   -0.236129
     19          6           0       -2.345484    3.690206   -0.838241
     20          1           0       -2.075221    4.497032   -1.508579
     21          6           0       -3.156433    3.939562    0.262818
     22          1           0       -3.517423    4.941713    0.455558
     23          6           0       -3.512877    2.895925    1.113521
     24          1           0       -4.149589    3.086014    1.968933
     25          6           0       -3.057685    1.606377    0.867367
     26          1           0       -3.357520    0.802261    1.527698
     27          6           0        2.611183   -1.472536    0.073424
     28          1           0        2.839887   -1.177486    1.103225
     29          6           0        2.217086   -2.960998    0.076836
     30          1           0        1.897895   -3.258962   -0.927480
     31          1           0        1.367536   -3.134832    0.739681
     32          6           0        3.386643   -3.850458    0.524969
     33          1           0        3.614349   -3.642156    1.575602
     34          1           0        3.082719   -4.898977    0.475663
     35          6           0        4.640497   -3.616966   -0.321302
     36          1           0        4.453676   -3.946741   -1.350171
     37          1           0        5.466487   -4.225080    0.053621
     38          6           0        5.032837   -2.137487   -0.325152
     39          1           0        5.895915   -1.972274   -0.975048
     40          1           0        5.340808   -1.839967    0.683023
     41          6           0        3.872746   -1.242911   -0.783784
     42          1           0        4.181216   -0.197543   -0.742869
     43          1           0        3.648154   -1.460160   -1.832350
     44          6           0        1.694751    1.425032   -0.088429
     45          1           0        0.732335    1.900250    0.129266
     46          6           0        2.599245    1.607544    1.146071
     47          1           0        3.564376    1.124918    0.973507
     48          1           0        2.162106    1.130605    2.024843
     49          6           0        2.839035    3.098158    1.434258
     50          1           0        1.891085    3.568153    1.719313
     51          1           0        3.506778    3.197292    2.292456
     52          6           0        3.420870    3.821519    0.217296
     53          1           0        4.425593    3.433878    0.010610
     54          1           0        3.538923    4.886234    0.433334
     55          6           0        2.537709    3.629319   -1.018216
     56          1           0        2.993597    4.103843   -1.890691
     57          1           0        1.575732    4.130796   -0.856862
     58          6           0        2.284246    2.145401   -1.315848
     59          1           0        3.227710    1.672910   -1.609309
     60          1           0        1.606100    2.043445   -2.165752
     61          6           0       -1.887045    2.399545   -1.088297
     62          1           0       -1.259954    2.204912   -1.948883
     63         15           0       -1.591428   -0.342417   -0.582429
     64         15           0        1.192605   -0.355804   -0.466848
 ---------------------------------------------------------------------

 SCF Done:  E(RB3LYP) =  -1695.57113142     A.U. after   14 cycles

      1  C    Isotropic =   150.3118   Anisotropy =    16.7008

      2  H    Isotropic =    29.2359   Anisotropy =     6.7906

      3  C    Isotropic =   171.1795   Anisotropy =    11.3884

      4  H    Isotropic =    31.2220   Anisotropy =     3.9230

      5  H    Isotropic =    30.5647   Anisotropy =     8.1013

      6  H    Isotropic =    30.5629   Anisotropy =     8.8751

      7  C    Isotropic =    31.1860   Anisotropy =   196.1114

      8  C    Isotropic =    49.4967   Anisotropy =   182.8952

      9  H    Isotropic =    24.9209   Anisotropy =    12.8476

     10  C    Isotropic =    49.2700   Anisotropy =   184.1520

     11  H    Isotropic =    24.5506   Anisotropy =     6.0386

     12  C    Isotropic =    54.1607   Anisotropy =   177.8960

     13  H    Isotropic =    24.6668   Anisotropy =     3.9708

     14  C    Isotropic =    50.5129   Anisotropy =   181.4169

     15  H    Isotropic =    24.4035   Anisotropy =     6.3919

     16  C    Isotropic =    52.2839   Anisotropy =   181.2834

     17  H    Isotropic =    24.3397   Anisotropy =    11.4981

     18  C    Isotropic =    36.8625   Anisotropy =   204.1741

     19  C    Isotropic =    50.1044   Anisotropy =   183.8735

     20  H    Isotropic =    24.1825   Anisotropy =     5.6190

     21  C    Isotropic =    48.4061   Anisotropy =   189.3256

     22  H    Isotropic =    24.2224   Anisotropy =     4.1620

     23  C    Isotropic =    49.4799   Anisotropy =   184.0494

     24  H    Isotropic =    24.3436   Anisotropy =     5.8891

     25  C    Isotropic =    38.4450   Anisotropy =   189.4782

     26  H    Isotropic =    24.1406   Anisotropy =    10.2059

     27  C    Isotropic =   145.2099   Anisotropy =    20.0906

     28  H    Isotropic =    29.8156   Anisotropy =     5.2494

     29  C    Isotropic =   150.5926   Anisotropy =    10.3686

     30  H    Isotropic =    30.5891   Anisotropy =     5.2163

     31  H    Isotropic =    30.1380   Anisotropy =     8.1431

     32  C    Isotropic =   151.4228   Anisotropy =     7.4972

     33  H    Isotropic =    30.5030   Anisotropy =     7.5081

     34  H    Isotropic =    30.0106   Anisotropy =     9.8886

     35  C    Isotropic =   152.8727   Anisotropy =     3.4471

     36  H    Isotropic =    30.5679   Anisotropy =     8.4357

     37  H    Isotropic =    30.1962   Anisotropy =    10.6641

     38  C    Isotropic =   152.2093   Anisotropy =     6.7353

     39  H    Isotropic =    30.1623   Anisotropy =     9.9182

     40  H    Isotropic =    30.5625   Anisotropy =     7.2097

     41  C    Isotropic =   149.1101   Anisotropy =    13.7234

     42  H    Isotropic =    30.3948   Anisotropy =     8.9651

     43  H    Isotropic =    30.7791   Anisotropy =     5.0361

     44  C    Isotropic =   144.9297   Anisotropy =    10.2975

     45  H    Isotropic =    30.7890   Anisotropy =    10.6120

     46  C    Isotropic =   149.8275   Anisotropy =    11.7039

     47  H    Isotropic =    30.6555   Anisotropy =     6.8702

     48  H    Isotropic =    30.2568   Anisotropy =     5.7599

     49  C    Isotropic =   151.5127   Anisotropy =     7.2025

     50  H    Isotropic =    31.0136   Anisotropy =     6.1841

     51  H    Isotropic =    30.3844   Anisotropy =    10.0389

     52  C    Isotropic =   153.0195   Anisotropy =     3.4795

     53  H    Isotropic =    30.8078   Anisotropy =     8.6744

     54  H    Isotropic =    30.3696   Anisotropy =    10.5799

     55  C    Isotropic =   150.7766   Anisotropy =     6.9614

     56  H    Isotropic =    30.1813   Anisotropy =     9.9504

     57  H    Isotropic =    30.6901   Anisotropy =     7.5340

     58  C    Isotropic =   145.0020   Anisotropy =    20.6402

     59  H    Isotropic =    30.6377   Anisotropy =     5.6638

     60  H    Isotropic =    29.8114   Anisotropy =     5.2350

     61  C    Isotropic =    39.0975   Anisotropy =   184.3014

     62  H    Isotropic =    23.6465   Anisotropy =     7.5536

     63  P    Isotropic =   227.8545   Anisotropy =    81.5358

     64  P    Isotropic =   219.7809   Anisotropy =    91.8849

 The electronic state is 1-A.
 Alpha  occ. eigenvalues --  -77.04402 -77.03115 -10.18913 -10.18562 -10.18337
 Alpha  occ. eigenvalues --  -10.18270 -10.18177 -10.18174 -10.18140 -10.18071
 Alpha  occ. eigenvalues --  -10.17440 -10.17433 -10.17348 -10.17309 -10.17210
 Alpha  occ. eigenvalues --  -10.17201 -10.17023 -10.17020 -10.16730 -10.16546
 Alpha  occ. eigenvalues --  -10.16513 -10.16433 -10.16348 -10.16329 -10.16267
 Alpha  occ. eigenvalues --  -10.16263 -10.16242 -10.16221  -6.52973  -6.51687
 Alpha  occ. eigenvalues --   -4.69113  -4.69105  -4.68611  -4.67850  -4.67777
 Alpha  occ. eigenvalues --   -4.67321  -0.86451  -0.85491  -0.83509  -0.82874
 Alpha  occ. eigenvalues --   -0.78677  -0.75997  -0.75470  -0.74848  -0.74513
 Alpha  occ. eigenvalues --   -0.74415  -0.74238  -0.74141  -0.73602  -0.66681
 Alpha  occ. eigenvalues --   -0.63577  -0.61553  -0.61247  -0.61022  -0.60900
 Alpha  occ. eigenvalues --   -0.60255  -0.60083  -0.59965  -0.55983  -0.55556
 Alpha  occ. eigenvalues --   -0.55232  -0.52537  -0.51770  -0.50282  -0.47952
 Alpha  occ. eigenvalues --   -0.46727  -0.46099  -0.45893  -0.45229  -0.45031
 Alpha  occ. eigenvalues --   -0.44721  -0.44299  -0.44236  -0.44037  -0.43663
 Alpha  occ. eigenvalues --   -0.43300  -0.43077  -0.42606  -0.42301  -0.41155
 Alpha  occ. eigenvalues --   -0.40614  -0.39388  -0.38469  -0.38208  -0.37944
 Alpha  occ. eigenvalues --   -0.37844  -0.37783  -0.37293  -0.37107  -0.36351
 Alpha  occ. eigenvalues --   -0.35348  -0.35162  -0.34913  -0.34658  -0.34537
 Alpha  occ. eigenvalues --   -0.34367  -0.34199  -0.32612  -0.32249  -0.32078
 Alpha  occ. eigenvalues --   -0.31638  -0.30512  -0.30380  -0.28588  -0.27660
 Alpha  occ. eigenvalues --   -0.27091  -0.26437  -0.26162  -0.25529  -0.21690
 Alpha  occ. eigenvalues --   -0.17894
 Alpha virt. eigenvalues --   -0.03457  -0.02330  -0.01766  -0.01027   0.01637
 Alpha virt. eigenvalues --    0.02285   0.03442   0.04026   0.04273   0.04557
 Alpha virt. eigenvalues --    0.04920   0.05148   0.05818   0.06108   0.06778

 Mulliken charges:
               1
     1  C   -0.151134
     2  H    0.073444
     3  C   -0.383112
     4  H    0.133514
     5  H    0.120740
     6  H    0.122655
     7  C    0.092034
     8  C   -0.177846
     9  H    0.125604
    10  C   -0.116651
    11  H    0.106254
    12  C   -0.113659
    13  H    0.105269
    14  C   -0.123835
    15  H    0.103762
    16  C   -0.201639
    17  H    0.104074
    18  C   -0.012019
    19  C   -0.108536
    20  H    0.111522
    21  C   -0.095777
    22  H    0.112061
    23  C   -0.109250
    24  H    0.109490
    25  C   -0.155590
    26  H    0.127819
    27  C   -0.057945
    28  H    0.065683
    29  C   -0.221396
    30  H    0.098593
    31  H    0.085952
    32  C   -0.159353
    33  H    0.076620
    34  H    0.092394
    35  C   -0.157217
    36  H    0.079645
    37  H    0.091315
    38  C   -0.157775
    39  H    0.092103
    40  H    0.079140
    41  C   -0.208160
    42  H    0.092776
    43  H    0.091310
    44  C   -0.105058
    45  H    0.087376
    46  C   -0.236472
    47  H    0.089197
    48  H    0.106853
    49  C   -0.160872
    50  H    0.084061
    51  H    0.088557
    52  C   -0.153397
    53  H    0.074755
    54  H    0.091586
    55  C   -0.165462
    56  H    0.091852
    57  H    0.082911
    58  C   -0.189090
    59  H    0.088259
    60  H    0.099535
    61  C   -0.147652
    62  H    0.126017
    63  P    0.143554
    64  P    0.120614
 Sum of Mulliken charges =  -0.00000

 Dipole moment (field-independent basis, Debye):
    X=              0.5138    Y=              0.9601    Z=              2.1159  Tot=              2.3797
 Quadrupole moment (field-independent basis, Debye-Ang):
   XX=           -181.5023   YY=           -178.2789   ZZ=           -191.3502
   XY=             -3.4796   XZ=             -2.2999   YZ=             -4.6514

 Summary of Natural Population Analysis:

                                       Natural Population
                Natural  -----------------------------------------------
    Atom  No    Charge         Core      Valence    Rydberg      Total
 -----------------------------------------------------------------------
      C    1   -0.76501      1.99943     4.73184    0.03374     6.76501
      H    2    0.23733      0.00000     0.76064    0.00203     0.76267
      C    3   -0.61249      1.99941     4.59894    0.01414     6.61249
      H    4    0.20764      0.00000     0.79043    0.00193     0.79236
      H    5    0.20491      0.00000     0.79336    0.00174     0.79509
      H    6    0.20857      0.00000     0.78959    0.00185     0.79143
      C    7   -0.31805      1.99900     4.28755    0.03149     6.31805
      C    8   -0.20926      1.99909     4.19052    0.01965     6.20926
      H    9    0.21165      0.00000     0.78659    0.00176     0.78835
      C   10   -0.19462      1.99919     4.17679    0.01864     6.19462
      H   11    0.20727      0.00000     0.79145    0.00128     0.79273
      C   12   -0.22024      1.99918     4.20141    0.01964     6.22024
      H   13    0.20699      0.00000     0.79184    0.00118     0.79301
      C   14   -0.19529      1.99919     4.17729    0.01882     6.19529
      H   15    0.20610      0.00000     0.79262    0.00128     0.79390
      C   16   -0.21894      1.99908     4.19998    0.01988     6.21894
      H   17    0.19746      0.00000     0.80074    0.00179     0.80254
      C   18   -0.33663      1.99899     4.30452    0.03311     6.33663
      C   19   -0.20821      1.99918     4.18997    0.01906     6.20821
      H   20    0.21023      0.00000     0.78849    0.00128     0.78977
      C   21   -0.19732      1.99919     4.17895    0.01918     6.19732
      H   22    0.20900      0.00000     0.78982    0.00117     0.79100
      C   23   -0.20659      1.99919     4.18846    0.01894     6.20659
      H   24    0.20881      0.00000     0.78985    0.00134     0.79119
      C   25   -0.19159      1.99908     4.17253    0.01998     6.19159
      H   26    0.21271      0.00000     0.78481    0.00249     0.78729
      C   27   -0.48812      1.99938     4.46435    0.02439     6.48812
      H   28    0.19244      0.00000     0.80379    0.00378     0.80756
      C   29   -0.38722      1.99938     4.37410    0.01374     6.38722
      H   30    0.19566      0.00000     0.80203    0.00231     0.80434
      H   31    0.19276      0.00000     0.80567    0.00157     0.80724
      C   32   -0.37896      1.99942     4.36618    0.01335     6.37896
      H   33    0.18658      0.00000     0.81157    0.00184     0.81342
      H   34    0.20134      0.00000     0.79728    0.00138     0.79866
      C   35   -0.38587      1.99942     4.37323    0.01322     6.38587
      H   36    0.18894      0.00000     0.80922    0.00183     0.81106
      H   37    0.20113      0.00000     0.79752    0.00135     0.79887
      C   38   -0.38050      1.99942     4.36773    0.01335     6.38050
      H   39    0.20139      0.00000     0.79723    0.00139     0.79861
      H   40    0.18635      0.00000     0.81181    0.00184     0.81365
      C   41   -0.39090      1.99938     4.37725    0.01427     6.39090
      H   42    0.19851      0.00000     0.79948    0.00201     0.80149
      H   43    0.19580      0.00000     0.80175    0.00245     0.80420
      C   44   -0.48919      1.99938     4.46422    0.02559     6.48919
      H   45    0.21792      0.00000     0.77924    0.00284     0.78208
      C   46   -0.39434      1.99938     4.38080    0.01416     6.39434
      H   47    0.18691      0.00000     0.81075    0.00234     0.81309
      H   48    0.20045      0.00000     0.79741    0.00214     0.79955
      C   49   -0.38248      1.99943     4.36965    0.01340     6.38248
      H   50    0.18765      0.00000     0.81054    0.00180     0.81235
      H   51    0.19946      0.00000     0.79908    0.00147     0.80054
      C   52   -0.38587      1.99943     4.37313    0.01331     6.38587
      H   53    0.18637      0.00000     0.81179    0.00184     0.81363
      H   54    0.20123      0.00000     0.79743    0.00134     0.79877
      C   55   -0.38415      1.99942     4.37115    0.01358     6.38415
      H   56    0.20176      0.00000     0.79689    0.00136     0.79824
      H   57    0.18838      0.00000     0.80979    0.00182     0.81162
      C   58   -0.38891      1.99938     4.37453    0.01500     6.38891
      H   59    0.18796      0.00000     0.80989    0.00215     0.81204
      H   60    0.21154      0.00000     0.78675    0.00171     0.78846
      C   61   -0.19599      1.99909     4.17606    0.02083     6.19599
      H   62    0.21722      0.00000     0.78023    0.00255     0.78278
      P   63    0.84035      9.99803     4.12975    0.03187    14.15965
      P   64    0.80997      9.99845     4.16047    0.03111    14.19003
 =======================================================================
   * Total *   -0.00000     71.97762   149.39872    0.62366   222.00000

 Normal termination of Gaussian 16 at Fri Jan 24 05:25:40 2025.
