 Gaussian 16, Revision B.01,
 Gaussian 16:  ES64L-G16RevB.01 20-Dec-2017

 --------------------------------------------
 # nmr=giao b3lyp/def2TZVP pop=nbo scfcyc=200
 --------------------------------------------

 -------------
 MS-1 SPE NoRh
 -------------
 Symbolic Z-matrix:
 Charge =  0 Multiplicity = 1

                         Standard orientation:
 ---------------------------------------------------------------------
 Center     Atomic      Atomic             Coordinates (Angstroms)
 Number     Number       Type             X           Y           Z
 ---------------------------------------------------------------------
      1         15           0        2.284148   -1.054545   -0.281989
      2         15           0       -0.013181    0.427379   -0.811688
      3          6           0        1.152160    0.124570    0.655478
      4          1           0        0.675822   -0.405136    1.481284
      5          6           0        1.680738    1.506762    1.084368
      6          1           0        1.036888    1.881716    1.884351
      7          1           0        2.688692    1.454633    1.500162
      8          6           0        1.611442    2.467907   -0.113841
      9          1           0        2.412570    2.249159   -0.825493
     10          1           0        1.743047    3.503060    0.203522
     11          6           0        0.248865    2.276546   -0.798319
     12          1           0        0.220264    2.678673   -1.808462
     13          1           0       -0.548915    2.751701   -0.225869
     14          6           0       -1.741600    0.046409   -0.323347
     15          6           0       -2.337954   -1.109326   -0.837241
     16          6           0       -2.459675    0.843604    0.576525
     17          6           0       -3.629809   -1.461271   -0.461890
     18          1           0       -1.786527   -1.733682   -1.529601
     19          6           0       -3.751713    0.489395    0.946695
     20          1           0       -2.023256    1.740256    0.996958
     21          6           0       -4.338617   -0.661596    0.427306
     22          1           0       -4.083154   -2.357807   -0.867108
     23          1           0       -4.300159    1.112596    1.640999
     24          1           0       -5.345437   -0.933009    0.716501
     25          6           0        2.142012   -2.656749    0.624770
     26          1           0        1.108362   -3.000044    0.604289
     27          1           0        2.764415   -3.408796    0.138591
     28          1           0        2.465839   -2.542460    1.660557
     29          6           0        4.041369   -0.561318    0.001099
     30          1           0        4.283394   -0.565337    1.065222
     31          1           0        4.688768   -1.275824   -0.507772
     32          1           0        4.231562    0.428198   -0.412585
 ---------------------------------------------------------------------

 SCF Done:  E(RB3LYP) =  -1151.03310133     A.U. after   17 cycles

      1  P    Isotropic =   268.4871   Anisotropy =   170.5990

      2  P    Isotropic =   231.2166   Anisotropy =   144.6829

      3  C    Isotropic =   138.2574   Anisotropy =    17.0967

      4  H    Isotropic =    30.3511   Anisotropy =     3.9998

      5  C    Isotropic =   149.3313   Anisotropy =    25.4641

      6  H    Isotropic =    29.9029   Anisotropy =     9.8787

      7  H    Isotropic =    29.7662   Anisotropy =     7.6977

      8  C    Isotropic =   151.0876   Anisotropy =    25.1017

      9  H    Isotropic =    30.0947   Anisotropy =     8.4066

     10  H    Isotropic =    29.7199   Anisotropy =    11.0437

     11  C    Isotropic =   152.9924   Anisotropy =    28.4432

     12  H    Isotropic =    29.6837   Anisotropy =     9.5873

     13  H    Isotropic =    29.7093   Anisotropy =     8.8605

     14  C    Isotropic =    35.1049   Anisotropy =   209.7833

     15  C    Isotropic =    40.8567   Anisotropy =   178.7235

     16  C    Isotropic =    46.8575   Anisotropy =   186.3413

     17  C    Isotropic =    49.9867   Anisotropy =   183.0092

     18  H    Isotropic =    23.7607   Anisotropy =     8.7844

     19  C    Isotropic =    49.9223   Anisotropy =   183.1429

     20  H    Isotropic =    23.9885   Anisotropy =    11.6838

     21  C    Isotropic =    49.1294   Anisotropy =   187.0666

     22  H    Isotropic =    24.2821   Anisotropy =     5.4879

     23  H    Isotropic =    24.3741   Anisotropy =     5.9605

     24  H    Isotropic =    24.3496   Anisotropy =     4.7225

     25  C    Isotropic =   168.7810   Anisotropy =    22.0110

     26  H    Isotropic =    30.7593   Anisotropy =     7.3370

     27  H    Isotropic =    31.1047   Anisotropy =    10.8887

     28  H    Isotropic =    30.8329   Anisotropy =     8.4496

     29  C    Isotropic =   172.5975   Anisotropy =    17.9756

     30  H    Isotropic =    30.9017   Anisotropy =     8.9992

     31  H    Isotropic =    31.2246   Anisotropy =    10.3348

     32  H    Isotropic =    30.7248   Anisotropy =     6.5767

 The electronic state is 1-A.
 Alpha  occ. eigenvalues --  -77.03390 -77.03192 -10.18085 -10.18055 -10.18024
 Alpha  occ. eigenvalues --  -10.18006 -10.18004 -10.17906 -10.17872 -10.17843
 Alpha  occ. eigenvalues --  -10.17693 -10.17070 -10.16381 -10.16249  -6.52022
 Alpha  occ. eigenvalues --   -6.51785  -4.68173  -4.68134  -4.67947  -4.67903
 Alpha  occ. eigenvalues --   -4.67633  -4.67385  -0.86097  -0.82357  -0.75527
 Alpha  occ. eigenvalues --   -0.75245  -0.74969  -0.71133  -0.69113  -0.67733
 Alpha  occ. eigenvalues --   -0.61185  -0.60764  -0.58458  -0.54727  -0.51788
 Alpha  occ. eigenvalues --   -0.50860  -0.47450  -0.46953  -0.45676  -0.44860
 Alpha  occ. eigenvalues --   -0.43113  -0.42771  -0.42499  -0.41105  -0.40209
 Alpha  occ. eigenvalues --   -0.39839  -0.39657  -0.37939  -0.37494  -0.35723
 Alpha  occ. eigenvalues --   -0.35392  -0.35181  -0.33957  -0.32868  -0.32040
 Alpha  occ. eigenvalues --   -0.29800  -0.26222  -0.25598  -0.21879  -0.17988
 Alpha virt. eigenvalues --   -0.03194  -0.01910   0.00764   0.02986   0.04216
 Alpha virt. eigenvalues --    0.04690   0.05982   0.06329   0.06843   0.07077
 Alpha virt. eigenvalues --    0.07692   0.08133   0.08585   0.09179   0.09411

 Mulliken charges:
               1
     1  P    0.164835
     2  P    0.138976
     3  C   -0.185530
     4  H    0.100997
     5  C   -0.187701
     6  H    0.091657
     7  H    0.108182
     8  C   -0.191226
     9  H    0.103549
    10  H    0.099291
    11  C   -0.272460
    12  H    0.115826
    13  H    0.100926
    14  C    0.060698
    15  C   -0.171381
    16  C   -0.174858
    17  C   -0.100934
    18  H    0.117962
    19  C   -0.114010
    20  H    0.104185
    21  C   -0.101327
    22  H    0.109966
    23  H    0.106239
    24  H    0.110805
    25  C   -0.427372
    26  H    0.128357
    27  H    0.125095
    28  H    0.108420
    29  C   -0.427800
    30  H    0.107539
    31  H    0.127487
    32  H    0.123605
 Sum of Mulliken charges =  -0.00000

 Dipole moment (field-independent basis, Debye):
    X=             -0.1703    Y=              0.7388    Z=              2.1393  Tot=              2.2697
 Quadrupole moment (field-independent basis, Debye-Ang):
   XX=            -94.7331   YY=            -96.0520   ZZ=           -105.2592
   XY=              2.2036   XZ=              0.0872   YZ=              0.9832

 Summary of Natural Population Analysis:

                                       Natural Population
                Natural  -----------------------------------------------
    Atom  No    Charge         Core      Valence    Rydberg      Total
 -----------------------------------------------------------------------
      P    1    0.78273      9.99877     4.17705    0.04145    14.21727
      P    2    0.77611      9.99850     4.19120    0.03419    14.22389
      C    3   -0.76542      1.99946     4.73469    0.03127     6.76542
      H    4    0.24004      0.00000     0.75769    0.00228     0.75996
      C    5   -0.39737      1.99941     4.38183    0.01612     6.39737
      H    6    0.20124      0.00000     0.79686    0.00189     0.79876
      H    7    0.20878      0.00000     0.78919    0.00203     0.79122
      C    8   -0.39674      1.99945     4.38293    0.01437     6.39674
      H    9    0.19717      0.00000     0.80105    0.00178     0.80283
      H   10    0.21015      0.00000     0.78840    0.00145     0.78985
      C   11   -0.67732      1.99944     4.65710    0.02078     6.67732
      H   12    0.22919      0.00000     0.76980    0.00102     0.77081
      H   13    0.20409      0.00000     0.79325    0.00266     0.79591
      C   14   -0.33404      1.99901     4.30484    0.03019     6.33404
      C   15   -0.19042      1.99911     4.17023    0.02108     6.19042
      C   16   -0.19521      1.99908     4.17599    0.02014     6.19521
      C   17   -0.20508      1.99918     4.18608    0.01981     6.20508
      H   18    0.21805      0.00000     0.78023    0.00172     0.78195
      C   19   -0.20436      1.99919     4.18575    0.01943     6.20436
      H   20    0.19764      0.00000     0.79898    0.00338     0.80236
      C   21   -0.20013      1.99919     4.18153    0.01941     6.20013
      H   22    0.20917      0.00000     0.78950    0.00132     0.79083
      H   23    0.20627      0.00000     0.79229    0.00144     0.79373
      H   24    0.20807      0.00000     0.79070    0.00122     0.79193
      C   25   -0.91279      1.99946     4.89468    0.01865     6.91279
      H   26    0.22744      0.00000     0.77155    0.00101     0.77256
      H   27    0.22852      0.00000     0.77052    0.00096     0.77148
      H   28    0.20297      0.00000     0.79366    0.00337     0.79703
      C   29   -0.92658      1.99946     4.90789    0.01923     6.92658
      H   30    0.20154      0.00000     0.79488    0.00358     0.79846
      H   31    0.23184      0.00000     0.76723    0.00093     0.76816
      H   32    0.22445      0.00000     0.77431    0.00124     0.77555
 =======================================================================
   * Total *   -0.00000     43.98872    75.65187    0.35941   120.00000

 Normal termination of Gaussian 16 at Fri Jan 24 04:03:27 2025.
