 Gaussian 16, Revision B.01,
 Gaussian 16:  ES64L-G16RevB.01 20-Dec-2017

 --------------------------------------------
 # nmr=giao b3lyp/def2TZVP pop=nbo scfcyc=200
 --------------------------------------------

 --------------
 MS-10 SPE NoRh
 --------------
 Symbolic Z-matrix:
 Charge =  0 Multiplicity = 1

                         Standard orientation:
 ---------------------------------------------------------------------
 Center     Atomic      Atomic             Coordinates (Angstroms)
 Number     Number       Type             X           Y           Z
 ---------------------------------------------------------------------
      1         15           0        1.473537   -0.980894    0.596790
      2         15           0       -1.491832   -1.003673    0.526701
      3          6           0        0.007495   -0.045372   -0.300429
      4          1           0        0.028319   -0.612377   -1.228523
      5          6           0        2.427062    0.143604    1.886393
      6          6           0        1.504537    0.337339    3.096059
      7          1           0        2.058338    0.861828    3.880082
      8          1           0        1.157943   -0.613698    3.503154
      9          1           0        0.637904    0.942385    2.857885
     10          6           0        3.698268   -0.565892    2.387526
     11          1           0        4.072831   -0.002068    3.245199
     12          1           0        4.492815   -0.572673    1.646154
     13          1           0        3.523552   -1.584958    2.728811
     14          6           0        2.851393    1.521551    1.350094
     15          1           0        2.018413    2.118679    0.994639
     16          1           0        3.585446    1.453334    0.551949
     17          1           0        3.322042    2.069330    2.172540
     18          6           0        2.736407   -1.522765   -0.789716
     19          6           0        3.730364   -2.560223   -0.229813
     20          1           0        3.232190   -3.440940    0.170155
     21          1           0        4.389309   -2.164333    0.535312
     22          1           0        4.363161   -2.896887   -1.054756
     23          6           0        3.531047   -0.351161   -1.387656
     24          1           0        4.037333   -0.694595   -2.295049
     25          1           0        4.304617    0.003760   -0.709759
     26          1           0        2.904521    0.495927   -1.659316
     27          6           0        1.957159   -2.236703   -1.906434
     28          1           0        2.676245   -2.689601   -2.593774
     29          1           0        1.346984   -1.558713   -2.497957
     30          1           0        1.324564   -3.034357   -1.516794
     31          6           0       -2.710596    0.007918    1.681055
     32          6           0       -3.774148   -0.967443    2.232284
     33          1           0       -3.339582   -1.836916    2.720750
     34          1           0       -4.479514   -1.310243    1.486509
     35          1           0       -4.350060   -0.429593    2.990850
     36          6           0       -1.953674    0.529435    2.911844
     37          1           0       -2.687496    0.879192    3.641653
     38          1           0       -1.312172    1.375713    2.691300
     39          1           0       -1.357287   -0.248355    3.388038
     40          6           0       -3.430571    1.171239    0.981758
     41          1           0       -4.162641    0.820168    0.257042
     42          1           0       -2.749918    1.856428    0.481100
     43          1           0       -3.980221    1.741898    1.736461
     44          6           0       -2.496227   -1.597567   -1.053728
     45          6           0       -1.623954   -2.633133   -1.785033
     46          1           0       -2.199908   -3.049974   -2.615124
     47          1           0       -1.329477   -3.453299   -1.129896
     48          1           0       -0.723428   -2.203640   -2.213966
     49          6           0       -2.816961   -0.436820   -2.010587
     50          1           0       -3.229903   -0.852205   -2.934221
     51          1           0       -1.944835    0.151656   -2.279465
     52          1           0       -3.559471    0.243571   -1.601644
     53          6           0       -3.824344   -2.296054   -0.710091
     54          1           0       -4.591171   -1.597981   -0.385154
     55          1           0       -3.723664   -3.083180    0.035560
     56          1           0       -4.197813   -2.767118   -1.623158
     57          6           0       -0.008828    1.423151   -0.683586
     58          6           0       -0.233727    2.399670    0.294591
     59          6           0        0.179663    1.862394   -2.017083
     60          6           0       -0.275658    3.754416    0.012294
     61          1           0       -0.366957    2.087447    1.316553
     62          6           0        0.131363    3.236640   -2.285266
     63          6           0       -0.091002    4.181425   -1.296110
     64          1           0       -0.452821    4.469128    0.807189
     65          1           0        0.268687    3.566715   -3.307941
     66          1           0       -0.124127    5.234563   -1.545575
     67          6           0        0.452226    0.960264   -3.198397
     68          1           0       -0.092590    0.018046   -3.170106
     69          1           0        0.166945    1.461952   -4.123141
     70          1           0        1.513546    0.719020   -3.285731
 ---------------------------------------------------------------------

 SCF Done:  E(RB3LYP) =  -1624.10039246     A.U. after   28 cycles

      1  P    Isotropic =   142.5535   Anisotropy =   139.3973

      2  P    Isotropic =   130.2778   Anisotropy =   161.2056

      3  C    Isotropic =   128.8200   Anisotropy =    21.2596

      4  H    Isotropic =    27.9618   Anisotropy =     2.8049

      5  C    Isotropic =   133.8958   Anisotropy =    28.9159

      6  C    Isotropic =   147.3085   Anisotropy =    44.4658

      7  H    Isotropic =    31.2294   Anisotropy =     8.1771

      8  H    Isotropic =    30.2570   Anisotropy =     6.1886

      9  H    Isotropic =    29.8600   Anisotropy =    10.4368

     10  C    Isotropic =   147.5325   Anisotropy =    41.5572

     11  H    Isotropic =    31.3434   Anisotropy =     8.9456

     12  H    Isotropic =    30.6726   Anisotropy =     7.0828

     13  H    Isotropic =    30.6567   Anisotropy =     7.5599

     14  C    Isotropic =   155.7590   Anisotropy =    33.8675

     15  H    Isotropic =    30.3394   Anisotropy =    13.9383

     16  H    Isotropic =    30.8946   Anisotropy =     4.9547

     17  H    Isotropic =    31.6258   Anisotropy =     8.9481

     18  C    Isotropic =   135.0346   Anisotropy =    26.7466

     19  C    Isotropic =   150.5202   Anisotropy =    46.6581

     20  H    Isotropic =    30.7486   Anisotropy =     7.9952

     21  H    Isotropic =    30.4057   Anisotropy =     7.2044

     22  H    Isotropic =    31.3716   Anisotropy =     9.5731

     23  C    Isotropic =   151.7749   Anisotropy =    32.5376

     24  H    Isotropic =    31.0645   Anisotropy =     9.2144

     25  H    Isotropic =    30.5364   Anisotropy =     5.6544

     26  H    Isotropic =    30.6368   Anisotropy =     6.4580

     27  C    Isotropic =   147.5389   Anisotropy =    38.6242

     28  H    Isotropic =    31.1740   Anisotropy =     7.9107

     29  H    Isotropic =    30.0330   Anisotropy =     7.3979

     30  H    Isotropic =    30.4007   Anisotropy =     6.9172

     31  C    Isotropic =   133.0405   Anisotropy =    30.8984

     32  C    Isotropic =   148.5982   Anisotropy =    47.7729

     33  H    Isotropic =    30.6030   Anisotropy =     7.4635

     34  H    Isotropic =    30.3861   Anisotropy =     7.5309

     35  H    Isotropic =    31.3946   Anisotropy =     9.2565

     36  C    Isotropic =   145.4253   Anisotropy =    42.5587

     37  H    Isotropic =    31.0589   Anisotropy =     8.0192

     38  H    Isotropic =    29.8321   Anisotropy =     7.1544

     39  H    Isotropic =    30.0407   Anisotropy =     6.6474

     40  C    Isotropic =   155.4567   Anisotropy =    30.5360

     41  H    Isotropic =    30.8525   Anisotropy =     5.6606

     42  H    Isotropic =    30.4688   Anisotropy =     9.5394

     43  H    Isotropic =    31.3319   Anisotropy =     9.5141

     44  C    Isotropic =   133.2686   Anisotropy =    28.5271

     45  C    Isotropic =   147.4662   Anisotropy =    44.1083

     46  H    Isotropic =    31.3216   Anisotropy =     8.2636

     47  H    Isotropic =    30.4386   Anisotropy =     6.7031

     48  H    Isotropic =    30.0596   Anisotropy =     9.2234

     49  C    Isotropic =   153.2195   Anisotropy =    38.4245

     50  H    Isotropic =    31.2634   Anisotropy =     9.0993

     51  H    Isotropic =    30.5654   Anisotropy =    10.1229

     52  H    Isotropic =    30.6555   Anisotropy =     4.7134

     53  C    Isotropic =   148.4575   Anisotropy =    38.8155

     54  H    Isotropic =    30.6767   Anisotropy =     7.0946

     55  H    Isotropic =    30.6126   Anisotropy =     7.7800

     56  H    Isotropic =    31.2069   Anisotropy =     9.0279

     57  C    Isotropic =    34.1397   Anisotropy =   186.4767

     58  C    Isotropic =    42.1978   Anisotropy =   180.6531

     59  C    Isotropic =    40.8937   Anisotropy =   182.8379

     60  C    Isotropic =    53.7901   Anisotropy =   177.0601

     61  H    Isotropic =    23.8918   Anisotropy =     6.3484

     62  C    Isotropic =    45.2425   Anisotropy =   158.0044

     63  C    Isotropic =    52.8866   Anisotropy =   177.3360

     64  H    Isotropic =    24.5671   Anisotropy =     6.1885

     65  H    Isotropic =    24.4809   Anisotropy =     7.7245

     66  H    Isotropic =    24.6080   Anisotropy =     3.6181

     67  C    Isotropic =   156.9665   Anisotropy =    25.5260

     68  H    Isotropic =    29.0814   Anisotropy =     5.6008

     69  H    Isotropic =    29.5264   Anisotropy =     8.9728

     70  H    Isotropic =    29.1501   Anisotropy =     6.5805

 The electronic state is 1-A.
 Alpha  occ. eigenvalues --  -77.04077 -77.04005 -10.19713 -10.19305 -10.19154
 Alpha  occ. eigenvalues --  -10.19092 -10.19073 -10.19028 -10.18854 -10.17379
 Alpha  occ. eigenvalues --  -10.17335 -10.17302 -10.17283 -10.17123 -10.16109
 Alpha  occ. eigenvalues --  -10.15956 -10.15933 -10.15881 -10.15864 -10.15809
 Alpha  occ. eigenvalues --  -10.15642 -10.15638 -10.15549 -10.15424 -10.15408
 Alpha  occ. eigenvalues --  -10.14855  -6.52420  -6.52362  -4.68586  -4.68529
 Alpha  occ. eigenvalues --   -4.68513  -4.68453  -4.68062  -4.68006  -0.86539
 Alpha  occ. eigenvalues --   -0.81855  -0.81492  -0.80367  -0.80185  -0.78171
 Alpha  occ. eigenvalues --   -0.76851  -0.71006  -0.69566  -0.69088  -0.69029
 Alpha  occ. eigenvalues --   -0.68881  -0.68695  -0.68382  -0.68012  -0.67850
 Alpha  occ. eigenvalues --   -0.67735  -0.61420  -0.61098  -0.59475  -0.57282
 Alpha  occ. eigenvalues --   -0.54751  -0.54392  -0.51820  -0.50994  -0.50312
 Alpha  occ. eigenvalues --   -0.48222  -0.46230  -0.45927  -0.45696  -0.45268
 Alpha  occ. eigenvalues --   -0.45242  -0.44363  -0.44061  -0.44006  -0.43296
 Alpha  occ. eigenvalues --   -0.42954  -0.42854  -0.42747  -0.42199  -0.41870
 Alpha  occ. eigenvalues --   -0.41468  -0.40596  -0.39764  -0.39700  -0.39529
 Alpha  occ. eigenvalues --   -0.39032  -0.38546  -0.38408  -0.38099  -0.37887
 Alpha  occ. eigenvalues --   -0.37762  -0.37578  -0.37172  -0.36340  -0.35893
 Alpha  occ. eigenvalues --   -0.35712  -0.35502  -0.34991  -0.34338  -0.33963
 Alpha  occ. eigenvalues --   -0.33700  -0.33544  -0.33113  -0.32836  -0.32760
 Alpha  occ. eigenvalues --   -0.32665  -0.31855  -0.30748  -0.28178  -0.27807
 Alpha  occ. eigenvalues --   -0.25117  -0.23823  -0.21320  -0.17854
 Alpha virt. eigenvalues --   -0.02297  -0.01583   0.01899   0.02706   0.02818
 Alpha virt. eigenvalues --    0.03787   0.03974   0.04737   0.05161   0.05866
 Alpha virt. eigenvalues --    0.06209   0.06381   0.06766   0.07119   0.07294

 Mulliken charges:
               1
     1  P    0.076291
     2  P    0.069534
     3  C   -0.069206
     4  H   -0.048019
     5  C    0.119507
     6  C   -0.342000
     7  H    0.101847
     8  H    0.118966
     9  H    0.083654
    10  C   -0.391853
    11  H    0.108937
    12  H    0.104969
    13  H    0.129169
    14  C   -0.375636
    15  H    0.168102
    16  H    0.105986
    17  H    0.090327
    18  C    0.133101
    19  C   -0.359045
    20  H    0.119190
    21  H    0.116049
    22  H    0.103723
    23  C   -0.400883
    24  H    0.101194
    25  H    0.110338
    26  H    0.134919
    27  C   -0.411882
    28  H    0.108978
    29  H    0.105898
    30  H    0.142921
    31  C    0.132360
    32  C   -0.365580
    33  H    0.121762
    34  H    0.113562
    35  H    0.104722
    36  C   -0.394730
    37  H    0.108420
    38  H    0.103061
    39  H    0.137845
    40  C   -0.381467
    41  H    0.096143
    42  H    0.162307
    43  H    0.095187
    44  C    0.087560
    45  C   -0.361565
    46  H    0.104001
    47  H    0.123724
    48  H    0.108346
    49  C   -0.328297
    50  H    0.093506
    51  H    0.111028
    52  H    0.107457
    53  C   -0.387930
    54  H    0.107194
    55  H    0.129167
    56  H    0.107460
    57  C    0.110575
    58  C   -0.318953
    59  C    0.099366
    60  C   -0.089481
    61  H    0.097388
    62  C   -0.159461
    63  C   -0.140968
    64  H    0.102200
    65  H    0.092967
    66  H    0.103329
    67  C   -0.388366
    68  H    0.133717
    69  H    0.124285
    70  H    0.143084
 Sum of Mulliken charges =  -0.00000

 Dipole moment (field-independent basis, Debye):
    X=              0.0275    Y=              0.9899    Z=             -1.0584  Tot=              1.4495
 Quadrupole moment (field-independent basis, Debye-Ang):
   XX=           -182.9279   YY=           -185.6871   ZZ=           -179.5323
   XY=             -0.3795   XZ=             -1.3577   YZ=              3.4039

 Summary of Natural Population Analysis:

                                       Natural Population
                Natural  -----------------------------------------------
    Atom  No    Charge         Core      Valence    Rydberg      Total
 -----------------------------------------------------------------------
      P    1    0.77940      9.99839     4.19404    0.02817    14.22060
      P    2    0.76815      9.99841     4.20542    0.02803    14.23185
      C    3   -0.78572      1.99921     4.75470    0.03181     6.78572
      H    4    0.25697      0.00000     0.73972    0.00330     0.74303
      C    5   -0.25895      1.99942     4.23495    0.02458     6.25895
      C    6   -0.60160      1.99936     4.58982    0.01241     6.60160
      H    7    0.19958      0.00000     0.79829    0.00214     0.80042
      H    8    0.21331      0.00000     0.78522    0.00147     0.78669
      H    9    0.20050      0.00000     0.79835    0.00115     0.79950
      C   10   -0.60010      1.99936     4.58865    0.01208     6.60010
      H   11    0.20258      0.00000     0.79520    0.00222     0.79742
      H   12    0.19805      0.00000     0.80045    0.00151     0.80195
      H   13    0.21093      0.00000     0.78752    0.00155     0.78907
      C   14   -0.60938      1.99935     4.59726    0.01278     6.60938
      H   15    0.21723      0.00000     0.78166    0.00111     0.78277
      H   16    0.20272      0.00000     0.79596    0.00133     0.79728
      H   17    0.19157      0.00000     0.80618    0.00224     0.80843
      C   18   -0.26488      1.99943     4.24093    0.02452     6.26488
      C   19   -0.60170      1.99936     4.59001    0.01233     6.60170
      H   20    0.21195      0.00000     0.78664    0.00141     0.78805
      H   21    0.20627      0.00000     0.79249    0.00124     0.79373
      H   22    0.19846      0.00000     0.79941    0.00214     0.80154
      C   23   -0.60755      1.99936     4.59463    0.01357     6.60755
      H   24    0.19421      0.00000     0.80337    0.00242     0.80579
      H   25    0.20085      0.00000     0.79759    0.00157     0.79915
      H   26    0.20360      0.00000     0.79494    0.00146     0.79640
      C   27   -0.60708      1.99936     4.59486    0.01285     6.60708
      H   28    0.20462      0.00000     0.79318    0.00220     0.79538
      H   29    0.19736      0.00000     0.80123    0.00141     0.80264
      H   30    0.21519      0.00000     0.78335    0.00146     0.78481
      C   31   -0.25956      1.99942     4.23609    0.02405     6.25956
      C   32   -0.60196      1.99936     4.59036    0.01224     6.60196
      H   33    0.21288      0.00000     0.78559    0.00152     0.78712
      H   34    0.20582      0.00000     0.79292    0.00126     0.79418
      H   35    0.20052      0.00000     0.79738    0.00210     0.79948
      C   36   -0.59509      1.99935     4.58326    0.01248     6.59509
      H   37    0.20205      0.00000     0.79581    0.00215     0.79795
      H   38    0.19082      0.00000     0.80807    0.00110     0.80918
      H   39    0.21572      0.00000     0.78281    0.00147     0.78428
      C   40   -0.60824      1.99935     4.59598    0.01291     6.60824
      H   41    0.19711      0.00000     0.80132    0.00156     0.80289
      H   42    0.21505      0.00000     0.78344    0.00151     0.78495
      H   43    0.19368      0.00000     0.80402    0.00231     0.80632
      C   44   -0.25322      1.99943     4.22878    0.02501     6.25322
      C   45   -0.60589      1.99936     4.59371    0.01282     6.60589
      H   46    0.20077      0.00000     0.79700    0.00223     0.79923
      H   47    0.21552      0.00000     0.78302    0.00146     0.78448
      H   48    0.19735      0.00000     0.80127    0.00138     0.80265
      C   49   -0.60832      1.99935     4.59558    0.01339     6.60832
      H   50    0.19278      0.00000     0.80480    0.00242     0.80722
      H   51    0.20249      0.00000     0.79604    0.00147     0.79751
      H   52    0.20493      0.00000     0.79365    0.00142     0.79507
      C   53   -0.59955      1.99936     4.58784    0.01235     6.59955
      H   54    0.19786      0.00000     0.80065    0.00149     0.80214
      H   55    0.21083      0.00000     0.78765    0.00152     0.78917
      H   56    0.20053      0.00000     0.79719    0.00228     0.79947
      C   57   -0.05159      1.99891     4.02590    0.02677     6.05159
      C   58   -0.21371      1.99907     4.19403    0.02061     6.21371
      C   59   -0.02450      1.99902     4.00653    0.01895     6.02450
      C   60   -0.20766      1.99915     4.18966    0.01885     6.20766
      H   61    0.19958      0.00000     0.79764    0.00278     0.80042
      C   62   -0.19615      1.99912     4.17849    0.01855     6.19615
      C   63   -0.20637      1.99917     4.18767    0.01952     6.20637
      H   64    0.20856      0.00000     0.79017    0.00127     0.79144
      H   65    0.20189      0.00000     0.79671    0.00140     0.79811
      H   66    0.20846      0.00000     0.79038    0.00116     0.79154
      C   67   -0.62112      1.99939     4.60822    0.01351     6.62112
      H   68    0.20681      0.00000     0.79165    0.00155     0.79319
      H   69    0.21652      0.00000     0.78234    0.00113     0.78348
      H   70    0.21786      0.00000     0.78065    0.00149     0.78214
 =======================================================================
   * Total *   -0.00000     67.97983   149.47026    0.54990   218.00000

 Normal termination of Gaussian 16 at Fri Jan 24 05:30:42 2025.
