 Gaussian 16, Revision B.01,
 Gaussian 16:  ES64L-G16RevB.01 20-Dec-2017

 --------------------------------------------
 # nmr=giao b3lyp/def2TZVP pop=nbo scfcyc=200
 --------------------------------------------

 --------------
 MS-25 SPE NoRh
 --------------
 Symbolic Z-matrix:
 Charge =  0 Multiplicity = 1

                         Standard orientation:
 ---------------------------------------------------------------------
 Center     Atomic      Atomic             Coordinates (Angstroms)
 Number     Number       Type             X           Y           Z
 ---------------------------------------------------------------------
      1          6           0       -0.016997   -0.667244    0.175831
      2          1           0       -0.036171   -1.758710    0.224694
      3          6           0       -2.714004   -1.602699   -0.804469
      4          6           0       -4.069645   -1.265046   -0.839923
      5          1           0       -4.374520   -0.235985   -0.969104
      6          6           0       -5.044099   -2.250060   -0.702388
      7          1           0       -6.090529   -1.972243   -0.725803
      8          6           0       -4.678310   -3.580009   -0.531087
      9          1           0       -5.438435   -4.342923   -0.420033
     10          6           0       -3.331176   -3.927330   -0.513748
     11          1           0       -3.038339   -4.963316   -0.392387
     12          6           0       -2.355420   -2.949330   -0.658972
     13          1           0       -1.314147   -3.247598   -0.673834
     14          6           0       -2.164090    1.287542   -0.769079
     15          6           0       -2.868444    1.539886    0.414761
     16          1           0       -2.973936    0.767195    1.165709
     17          6           0       -3.439526    2.786799    0.635364
     18          1           0       -3.982876    2.972081    1.552833
     19          6           0       -3.312561    3.793738   -0.318376
     20          1           0       -3.762564    4.763538   -0.143631
     21          6           0       -2.612106    3.553101   -1.494047
     22          1           0       -2.513745    4.333166   -2.239013
     23          6           0       -2.039861    2.304982   -1.719465
     24          1           0       -1.494576    2.118978   -2.636079
     25          6           0        2.756145   -1.557298   -0.641808
     26          6           0        2.637547   -2.548760    0.332919
     27          1           0        1.748772   -2.625869    0.943596
     28          6           0        3.680441   -3.444082    0.555427
     29          1           0        3.579385   -4.202533    1.322361
     30          6           0        4.848559   -3.360815   -0.193420
     31          1           0        5.658019   -4.057305   -0.017317
     32          6           0        4.975131   -2.372659   -1.165600
     33          1           0        5.885439   -2.295501   -1.747828
     34          6           0        3.938034   -1.477669   -1.390984
     35          1           0        4.060298   -0.703863   -2.139197
     36          6           0        2.176679    1.279596   -0.782052
     37          6           0        1.876332    2.324759   -1.659028
     38          1           0        1.197194    2.151512   -2.485340
     39          6           0        2.450243    3.578947   -1.479428
     40          1           0        2.214846    4.383272   -2.165343
     41          6           0        3.335464    3.793985   -0.428562
     42          1           0        3.788825    4.768005   -0.293049
     43          6           0        3.646766    2.753934    0.443136
     44          1           0        4.339283    2.917729    1.259266
     45          6           0        3.072424    1.500562    0.269873
     46          1           0        3.325054    0.699243    0.950892
     47          6           0       -0.062328   -0.131305    1.576825
     48          6           0       -0.273741   -1.022033    2.637206
     49          1           0       -0.396216   -2.080725    2.434447
     50          6           0       -0.338114   -0.571316    3.949874
     51          1           0       -0.502454   -1.278036    4.753970
     52          6           0       -0.188533    0.783230    4.227318
     53          1           0       -0.234130    1.138341    5.249928
     54          6           0        0.016532    1.679984    3.184035
     55          1           0        0.130028    2.736453    3.391205
     56          6           0        0.076049    1.229718    1.869875
     57          1           0        0.226729    1.944533    1.073117
     58         15           0       -1.396339   -0.344792   -1.104977
     59         15           0        1.405300   -0.369079   -1.051963
 ---------------------------------------------------------------------

 SCF Done:  E(RB3LYP) =  -1880.12054040     A.U. after   15 cycles

      1  C    Isotropic =   128.2451   Anisotropy =    25.3868

      2  H    Isotropic =    27.3850   Anisotropy =     5.5004

      3  C    Isotropic =    31.1280   Anisotropy =   195.6752

      4  C    Isotropic =    50.3474   Anisotropy =   181.7337

      5  H    Isotropic =    25.0236   Anisotropy =    13.7822

      6  C    Isotropic =    49.6437   Anisotropy =   183.1455

      7  H    Isotropic =    24.6280   Anisotropy =     6.4606

      8  C    Isotropic =    53.3825   Anisotropy =   180.3385

      9  H    Isotropic =    24.5910   Anisotropy =     3.9964

     10  C    Isotropic =    50.2930   Anisotropy =   182.6594

     11  H    Isotropic =    24.2195   Anisotropy =     6.3284

     12  C    Isotropic =    49.3079   Anisotropy =   184.5577

     13  H    Isotropic =    23.8708   Anisotropy =    10.9474

     14  C    Isotropic =    41.3377   Anisotropy =   198.1632

     15  C    Isotropic =    35.8485   Anisotropy =   198.8278

     16  H    Isotropic =    25.0317   Anisotropy =     8.7788

     17  C    Isotropic =    49.7327   Anisotropy =   185.8202

     18  H    Isotropic =    24.6738   Anisotropy =     6.4044

     19  C    Isotropic =    47.9276   Anisotropy =   191.0383

     20  H    Isotropic =    24.3124   Anisotropy =     3.9941

     21  C    Isotropic =    50.3164   Anisotropy =   183.7268

     22  H    Isotropic =    24.1529   Anisotropy =     5.4734

     23  C    Isotropic =    38.7583   Anisotropy =   182.7825

     24  H    Isotropic =    23.4205   Anisotropy =     8.4330

     25  C    Isotropic =    31.1405   Anisotropy =   194.3792

     26  C    Isotropic =    50.3574   Anisotropy =   181.4800

     27  H    Isotropic =    23.8176   Anisotropy =    11.2432

     28  C    Isotropic =    50.2298   Anisotropy =   181.8581

     29  H    Isotropic =    24.3202   Anisotropy =     6.8521

     30  C    Isotropic =    52.9798   Anisotropy =   180.3750

     31  H    Isotropic =    24.5717   Anisotropy =     4.1371

     32  C    Isotropic =    49.3984   Anisotropy =   183.8561

     33  H    Isotropic =    24.4694   Anisotropy =     5.7192

     34  C    Isotropic =    47.6600   Anisotropy =   183.8994

     35  H    Isotropic =    24.6922   Anisotropy =    12.0469

     36  C    Isotropic =    36.8201   Anisotropy =   201.6701

     37  C    Isotropic =    40.3120   Anisotropy =   182.8254

     38  H    Isotropic =    23.3777   Anisotropy =     8.3972

     39  C    Isotropic =    50.9378   Anisotropy =   182.4798

     40  H    Isotropic =    24.3055   Anisotropy =     5.7312

     41  C    Isotropic =    48.6332   Anisotropy =   188.8539

     42  H    Isotropic =    24.4237   Anisotropy =     3.8787

     43  C    Isotropic =    49.4736   Anisotropy =   185.1585

     44  H    Isotropic =    24.7036   Anisotropy =     6.1433

     45  C    Isotropic =    37.4281   Anisotropy =   195.7287

     46  H    Isotropic =    24.9944   Anisotropy =    10.0313

     47  C    Isotropic =    38.9712   Anisotropy =   188.5203

     48  C    Isotropic =    48.4388   Anisotropy =   154.9121

     49  H    Isotropic =    24.2892   Anisotropy =     8.6614

     50  C    Isotropic =    50.3942   Anisotropy =   181.4726

     51  H    Isotropic =    24.4749   Anisotropy =     5.7404

     52  C    Isotropic =    53.0474   Anisotropy =   182.5466

     53  H    Isotropic =    24.7029   Anisotropy =     3.8437

     54  C    Isotropic =    51.2467   Anisotropy =   183.9065

     55  H    Isotropic =    25.1480   Anisotropy =     7.1017

     56  C    Isotropic =    46.0640   Anisotropy =   193.4766

     57  H    Isotropic =    26.8107   Anisotropy =     5.3689

     58  P    Isotropic =   213.2672   Anisotropy =   104.8734

     59  P    Isotropic =   214.9992   Anisotropy =   112.1532

 The electronic state is 1-A.
 Alpha  occ. eigenvalues --  -77.05181 -77.05073 -10.20093 -10.19083 -10.18658
 Alpha  occ. eigenvalues --  -10.18596 -10.18545 -10.18454 -10.18434 -10.18349
 Alpha  occ. eigenvalues --  -10.18264 -10.18251 -10.18207 -10.18170 -10.18060
 Alpha  occ. eigenvalues --  -10.18030 -10.17997 -10.17903 -10.17790 -10.17651
 Alpha  occ. eigenvalues --  -10.17642 -10.17627 -10.17572 -10.17569 -10.17564
 Alpha  occ. eigenvalues --  -10.17512 -10.17510 -10.17471 -10.17403 -10.17391
 Alpha  occ. eigenvalues --  -10.17344 -10.17320 -10.17251  -6.53721  -6.53610
 Alpha  occ. eigenvalues --   -4.69873  -4.69830  -4.69767  -4.69719  -4.69365
 Alpha  occ. eigenvalues --   -4.69252  -0.86730  -0.86438  -0.86113  -0.85733
 Alpha  occ. eigenvalues --   -0.85712  -0.79207  -0.76608  -0.76134  -0.75556
 Alpha  occ. eigenvalues --   -0.75377  -0.75012  -0.74933  -0.74863  -0.74594
 Alpha  occ. eigenvalues --   -0.74562  -0.70734  -0.64161  -0.63242  -0.61439
 Alpha  occ. eigenvalues --   -0.61174  -0.60946  -0.60803  -0.60707  -0.60158
 Alpha  occ. eigenvalues --   -0.60103  -0.59265  -0.56303  -0.55280  -0.52615
 Alpha  occ. eigenvalues --   -0.52234  -0.51968  -0.50160  -0.49995  -0.46834
 Alpha  occ. eigenvalues --   -0.46267  -0.46140  -0.46093  -0.45963  -0.45714
 Alpha  occ. eigenvalues --   -0.45470  -0.45306  -0.44939  -0.44473  -0.43129
 Alpha  occ. eigenvalues --   -0.42938  -0.42855  -0.42601  -0.42409  -0.42245
 Alpha  occ. eigenvalues --   -0.41541  -0.40899  -0.39542  -0.39413  -0.37940
 Alpha  occ. eigenvalues --   -0.37709  -0.37492  -0.37296  -0.37060  -0.35880
 Alpha  occ. eigenvalues --   -0.35458  -0.35319  -0.35170  -0.34962  -0.34927
 Alpha  occ. eigenvalues --   -0.34171  -0.33136  -0.32510  -0.32321  -0.27777
 Alpha  occ. eigenvalues --   -0.27285  -0.26827  -0.26723  -0.26444  -0.26362
 Alpha  occ. eigenvalues --   -0.25898  -0.25778  -0.25148  -0.24569  -0.22160
 Alpha  occ. eigenvalues --   -0.18547
 Alpha virt. eigenvalues --   -0.03995  -0.03507  -0.02680  -0.02573  -0.02268
 Alpha virt. eigenvalues --   -0.02140  -0.01590  -0.01488  -0.00698  -0.00336
 Alpha virt. eigenvalues --    0.01932   0.03047   0.04353   0.05063   0.05298

 Mulliken charges:
               1
     1  C   -0.155890
     2  H    0.065519
     3  C    0.089514
     4  C   -0.184084
     5  H    0.142808
     6  C   -0.117674
     7  H    0.106750
     8  C   -0.111220
     9  H    0.106784
    10  C   -0.120580
    11  H    0.106337
    12  C   -0.216738
    13  H    0.121891
    14  C    0.050993
    15  C   -0.188994
    16  H    0.142817
    17  C   -0.093719
    18  H    0.110692
    19  C   -0.099052
    20  H    0.111740
    21  C   -0.109699
    22  H    0.109167
    23  C   -0.164568
    24  H    0.125686
    25  C    0.054738
    26  C   -0.139568
    27  H    0.099158
    28  C   -0.137535
    29  H    0.103967
    30  C   -0.102643
    31  H    0.107063
    32  C   -0.115977
    33  H    0.107468
    34  C   -0.162077
    35  H    0.115156
    36  C   -0.050872
    37  C   -0.114594
    38  H    0.117069
    39  C   -0.129196
    40  H    0.107494
    41  C   -0.085262
    42  H    0.110883
    43  C   -0.122345
    44  H    0.109334
    45  C   -0.108852
    46  H    0.136311
    47  C    0.126373
    48  C   -0.181471
    49  H    0.109753
    50  C   -0.105221
    51  H    0.105957
    52  C   -0.127164
    53  H    0.105656
    54  C   -0.095676
    55  H    0.106686
    56  C   -0.222829
    57  H    0.163242
    58  P    0.150554
    59  P    0.135938
 Sum of Mulliken charges =  -0.00000

 Dipole moment (field-independent basis, Debye):
    X=             -0.0719    Y=              1.6067    Z=              1.9252  Tot=              2.5085
 Quadrupole moment (field-independent basis, Debye-Ang):
   XX=           -198.7775   YY=           -187.9126   ZZ=           -208.0593
   XY=             -1.2160   XZ=             -2.0367   YZ=             -7.2836

 Summary of Natural Population Analysis:

                                       Natural Population
                Natural  -----------------------------------------------
    Atom  No    Charge         Core      Valence    Rydberg      Total
 -----------------------------------------------------------------------
      C    1   -0.76273      1.99927     4.72767    0.03579     6.76273
      H    2    0.25051      0.00000     0.74671    0.00278     0.74949
      C    3   -0.31797      1.99898     4.28911    0.02988     6.31797
      C    4   -0.21134      1.99909     4.19253    0.01972     6.21134
      H    5    0.21509      0.00000     0.78318    0.00173     0.78491
      C    6   -0.19441      1.99919     4.17644    0.01879     6.19441
      H    7    0.20750      0.00000     0.79119    0.00130     0.79250
      C    8   -0.21527      1.99918     4.19652    0.01957     6.21527
      H    9    0.20771      0.00000     0.79110    0.00118     0.79229
      C   10   -0.19601      1.99918     4.17799    0.01884     6.19601
      H   11    0.20786      0.00000     0.79085    0.00129     0.79214
      C   12   -0.21235      1.99908     4.19384    0.01943     6.21235
      H   13    0.20036      0.00000     0.79795    0.00169     0.79964
      C   14   -0.35144      1.99900     4.32056    0.03188     6.35144
      C   15   -0.18165      1.99908     4.16188    0.02069     6.18165
      H   16    0.21877      0.00000     0.77862    0.00261     0.78123
      C   17   -0.20793      1.99918     4.18979    0.01896     6.20793
      H   18    0.20998      0.00000     0.78867    0.00136     0.79002
      C   19   -0.19180      1.99919     4.17376    0.01885     6.19180
      H   20    0.20897      0.00000     0.78986    0.00118     0.79103
      C   21   -0.21043      1.99918     4.19207    0.01918     6.21043
      H   22    0.21000      0.00000     0.78874    0.00126     0.79000
      C   23   -0.18386      1.99910     4.16468    0.02008     6.18386
      H   24    0.21675      0.00000     0.78173    0.00152     0.78325
      C   25   -0.32106      1.99900     4.29063    0.03143     6.32106
      C   26   -0.21853      1.99907     4.20002    0.01943     6.21853
      H   27    0.20086      0.00000     0.79709    0.00205     0.79914
      C   28   -0.19597      1.99919     4.17805    0.01874     6.19597
      H   29    0.20668      0.00000     0.79204    0.00128     0.79332
      C   30   -0.21474      1.99919     4.19611    0.01945     6.21474
      H   31    0.20773      0.00000     0.79110    0.00117     0.79227
      C   32   -0.19591      1.99918     4.17812    0.01860     6.19591
      H   33    0.20833      0.00000     0.79040    0.00127     0.79167
      C   34   -0.20182      1.99909     4.18311    0.01962     6.20182
      H   35    0.21141      0.00000     0.78686    0.00174     0.78859
      C   36   -0.34044      1.99898     4.30921    0.03224     6.34044
      C   37   -0.19133      1.99908     4.17234    0.01991     6.19133
      H   38    0.21443      0.00000     0.78340    0.00217     0.78557
      C   39   -0.20760      1.99918     4.18975    0.01868     6.20760
      H   40    0.20965      0.00000     0.78907    0.00127     0.79035
      C   41   -0.19599      1.99919     4.17780    0.01900     6.19599
      H   42    0.20867      0.00000     0.79016    0.00117     0.79133
      C   43   -0.20508      1.99919     4.18721    0.01869     6.20508
      H   44    0.20945      0.00000     0.78923    0.00133     0.79055
      C   45   -0.18292      1.99908     4.16426    0.01958     6.18292
      H   46    0.21767      0.00000     0.78015    0.00217     0.78233
      C   47   -0.05652      1.99902     4.03215    0.02535     6.05652
      C   48   -0.20536      1.99909     4.18775    0.01852     6.20536
      H   49    0.20124      0.00000     0.79711    0.00165     0.79876
      C   50   -0.20115      1.99919     4.18344    0.01852     6.20115
      H   51    0.20829      0.00000     0.79048    0.00123     0.79171
      C   52   -0.21361      1.99919     4.19518    0.01924     6.21361
      H   53    0.20744      0.00000     0.79142    0.00115     0.79256
      C   54   -0.19779      1.99919     4.17966    0.01894     6.19779
      H   55    0.20863      0.00000     0.79013    0.00124     0.79137
      C   56   -0.19796      1.99906     4.17933    0.01956     6.19796
      H   57    0.21964      0.00000     0.77800    0.00235     0.78036
      P   58    0.84491      9.99804     4.12474    0.03231    14.15509
      P   59    0.84243      9.99802     4.12774    0.03181    14.15757
 =======================================================================
   * Total *   -0.00000     81.96892   159.25864    0.77244   242.00000

 Normal termination of Gaussian 16 at Fri Jan 24 06:40:26 2025.
