 Gaussian 16, Revision B.01,
 Gaussian 16:  ES64L-G16RevB.01 20-Dec-2017

 --------------------------------------------
 # nmr=giao b3lyp/def2TZVP pop=nbo scfcyc=200
 --------------------------------------------

 -------------
 MS-2 SPE NoRh
 -------------
 Symbolic Z-matrix:
 Charge =  0 Multiplicity = 1

                         Standard orientation:
 ---------------------------------------------------------------------
 Center     Atomic      Atomic             Coordinates (Angstroms)
 Number     Number       Type             X           Y           Z
 ---------------------------------------------------------------------
      1         15           0       -0.876287    0.800279   -0.754293
      2          6           0        0.368099    0.390710    0.613952
      3          1           0        0.005148   -0.382426    1.293613
      4          6           0        0.684061    1.706545    1.344038
      5          1           0        0.019467    1.799468    2.207560
      6          1           0        1.707284    1.709446    1.724447
      7          6           0        0.444057    2.879666    0.378661
      8          1           0        1.268171    2.952370   -0.334798
      9          1           0        0.405575    3.829705    0.913627
     10          6           0       -0.872342    2.631283   -0.377903
     11          1           0       -0.951473    3.216568   -1.292803
     12          1           0       -1.735124    2.870434    0.244405
     13          6           0       -2.528849    0.109449   -0.337520
     14          6           0       -2.973252   -1.016373   -1.036202
     15          6           0       -3.327102    0.635492    0.685102
     16          6           0       -4.194585   -1.603851   -0.724054
     17          1           0       -2.358537   -1.435851   -1.823149
     18          6           0       -4.547561    0.046656    0.992413
     19          1           0       -3.007992    1.500987    1.251791
     20          6           0       -4.984440   -1.071505    0.288188
     21          1           0       -4.530116   -2.474237   -1.274147
     22          1           0       -5.159104    0.463460    1.783578
     23          1           0       -5.938228   -1.524131    0.529225
     24          6           0        4.075551   -0.726270    0.423287
     25          6           0        3.168144   -1.829810    0.955546
     26          1           0        4.760536   -1.127074   -0.334483
     27          1           0        4.673617   -0.278956    1.221383
     28          1           0        3.695830   -2.783222    1.020031
     29          1           0        2.791878   -1.582237    1.958493
     30         15           0        1.651650   -0.362098   -0.561237
     31          7           0        3.188418    0.282322   -0.175687
     32          7           0        2.082097   -1.931969   -0.026145
     33          6           0        1.073203   -2.955759    0.211923
     34          1           0        1.554730   -3.934742    0.233263
     35          1           0        0.536317   -2.821517    1.161377
     36          1           0        0.345296   -2.954704   -0.599986
     37          6           0        3.840271    1.323414   -0.958895
     38          1           0        4.421489    1.975556   -0.304199
     39          1           0        4.520481    0.903898   -1.711660
     40          1           0        3.099183    1.934149   -1.473007
 ---------------------------------------------------------------------

 SCF Done:  E(RB3LYP) =  -1339.21561007     A.U. after   17 cycles

      1  P    Isotropic =   250.0295   Anisotropy =   131.3650

      2  C    Isotropic =   133.4473   Anisotropy =    35.8298

      3  H    Isotropic =    29.9804   Anisotropy =     4.4546

      4  C    Isotropic =   147.7046   Anisotropy =    28.6319

      5  H    Isotropic =    29.9465   Anisotropy =     9.3480

      6  H    Isotropic =    29.5847   Anisotropy =     7.1351

      7  C    Isotropic =   149.3328   Anisotropy =    27.4604

      8  H    Isotropic =    30.3310   Anisotropy =     8.4267

      9  H    Isotropic =    29.7604   Anisotropy =    11.0037

     10  C    Isotropic =   152.1564   Anisotropy =    29.5834

     11  H    Isotropic =    29.6410   Anisotropy =     9.4455

     12  H    Isotropic =    29.5869   Anisotropy =     8.9894

     13  C    Isotropic =    34.6430   Anisotropy =   209.5509

     14  C    Isotropic =    41.8737   Anisotropy =   177.9029

     15  C    Isotropic =    45.9264   Anisotropy =   188.2413

     16  C    Isotropic =    50.2282   Anisotropy =   182.3490

     17  H    Isotropic =    23.8299   Anisotropy =     8.8469

     18  C    Isotropic =    49.8757   Anisotropy =   182.2042

     19  H    Isotropic =    23.9252   Anisotropy =    11.8754

     20  C    Isotropic =    49.6157   Anisotropy =   185.5909

     21  H    Isotropic =    24.3362   Anisotropy =     5.5636

     22  H    Isotropic =    24.3657   Anisotropy =     5.9640

     23  H    Isotropic =    24.3736   Anisotropy =     4.5782

     24  C    Isotropic =   124.5159   Anisotropy =    52.9298

     25  C    Isotropic =   124.3066   Anisotropy =    56.4436

     26  H    Isotropic =    29.1651   Anisotropy =     9.8433

     27  H    Isotropic =    28.7426   Anisotropy =     9.2848

     28  H    Isotropic =    29.0347   Anisotropy =     9.1034

     29  H    Isotropic =    28.9966   Anisotropy =     7.1265

     30  P    Isotropic =   111.1802   Anisotropy =   310.6935

     31  N    Isotropic =   210.3623   Anisotropy =    92.9891

     32  N    Isotropic =   202.9978   Anisotropy =    83.4890

     33  C    Isotropic =   147.6067   Anisotropy =    52.0239

     34  H    Isotropic =    29.4444   Anisotropy =    10.3363

     35  H    Isotropic =    29.9632   Anisotropy =     7.2401

     36  H    Isotropic =    29.1767   Anisotropy =     9.0847

     37  C    Isotropic =   143.1330   Anisotropy =    59.5397

     38  H    Isotropic =    29.2580   Anisotropy =     9.9087

     39  H    Isotropic =    29.4187   Anisotropy =    10.5003

     40  H    Isotropic =    29.0391   Anisotropy =     7.5129

 The electronic state is 1-A.
 Alpha  occ. eigenvalues --  -77.06029 -77.03064 -14.30889 -14.30396 -10.20116
 Alpha  occ. eigenvalues --  -10.20007 -10.19618 -10.19369 -10.17937 -10.17823
 Alpha  occ. eigenvalues --  -10.17786 -10.17716 -10.17681 -10.17659 -10.17231
 Alpha  occ. eigenvalues --  -10.17190 -10.16766 -10.16641  -6.54116  -6.51700
 Alpha  occ. eigenvalues --   -4.70354  -4.70225  -4.69725  -4.67842  -4.67823
 Alpha  occ. eigenvalues --   -4.67318  -0.94001  -0.87910  -0.85919  -0.81628
 Alpha  occ. eigenvalues --   -0.75378  -0.75313  -0.75039  -0.72144  -0.68816
 Alpha  occ. eigenvalues --   -0.67329  -0.66774  -0.60976  -0.60486  -0.59213
 Alpha  occ. eigenvalues --   -0.57959  -0.54588  -0.53130  -0.50855  -0.49002
 Alpha  occ. eigenvalues --   -0.48758  -0.47141  -0.46392  -0.45489  -0.44574
 Alpha  occ. eigenvalues --   -0.44258  -0.43903  -0.43319  -0.42617  -0.42386
 Alpha  occ. eigenvalues --   -0.40627  -0.40039  -0.39397  -0.37753  -0.37179
 Alpha  occ. eigenvalues --   -0.37016  -0.36008  -0.35803  -0.35244  -0.34974
 Alpha  occ. eigenvalues --   -0.34584  -0.33595  -0.31752  -0.30923  -0.27090
 Alpha  occ. eigenvalues --   -0.26037  -0.25014  -0.22557  -0.20491  -0.17575
 Alpha virt. eigenvalues --   -0.02944  -0.01836  -0.00467   0.02700   0.03630
 Alpha virt. eigenvalues --    0.04125   0.05482   0.05593   0.06431   0.06766
 Alpha virt. eigenvalues --    0.07183   0.07678   0.08190   0.08613   0.08955

 Mulliken charges:
               1
     1  P    0.121509
     2  C   -0.190262
     3  H    0.092299
     4  C   -0.157659
     5  H    0.087555
     6  H    0.097552
     7  C   -0.207940
     8  H    0.100384
     9  H    0.095992
    10  C   -0.267244
    11  H    0.113181
    12  H    0.100287
    13  C    0.064746
    14  C   -0.173242
    15  C   -0.174147
    16  C   -0.102302
    17  H    0.116656
    18  C   -0.114805
    19  H    0.104423
    20  C   -0.102688
    21  H    0.108804
    22  H    0.105437
    23  H    0.109687
    24  C   -0.092822
    25  C   -0.103424
    26  H    0.073858
    27  H    0.083123
    28  H    0.093534
    29  H    0.071817
    30  P    0.252046
    31  N   -0.221804
    32  N   -0.207408
    33  C   -0.291561
    34  H    0.116003
    35  H    0.099802
    36  H    0.129165
    37  C   -0.261186
    38  H    0.114569
    39  H    0.099854
    40  H    0.116211
 Sum of Mulliken charges =  -0.00000

 Dipole moment (field-independent basis, Debye):
    X=              0.4266    Y=             -0.1030    Z=              2.4255  Tot=              2.4648
 Quadrupole moment (field-independent basis, Debye-Ang):
   XX=           -115.7865   YY=           -117.7073   ZZ=           -128.8178
   XY=              2.2350   XZ=             -0.3952   YZ=              0.5824

 Summary of Natural Population Analysis:

                                       Natural Population
                Natural  -----------------------------------------------
    Atom  No    Charge         Core      Valence    Rydberg      Total
 -----------------------------------------------------------------------
      P    1    0.76190      9.99850     4.20593    0.03368    14.23810
      C    2   -0.82869      1.99947     4.79331    0.03592     6.82869
      H    3    0.23935      0.00000     0.75724    0.00341     0.76065
      C    4   -0.39781      1.99941     4.38142    0.01698     6.39781
      H    5    0.19750      0.00000     0.80047    0.00203     0.80250
      H    6    0.21563      0.00000     0.78221    0.00216     0.78437
      C    7   -0.39522      1.99945     4.38137    0.01441     6.39522
      H    8    0.19447      0.00000     0.80364    0.00189     0.80553
      H    9    0.20867      0.00000     0.78986    0.00147     0.79133
      C   10   -0.67500      1.99944     4.65526    0.02030     6.67500
      H   11    0.22694      0.00000     0.77203    0.00103     0.77306
      H   12    0.20467      0.00000     0.79280    0.00253     0.79533
      C   13   -0.32644      1.99901     4.29764    0.02980     6.32644
      C   14   -0.19311      1.99910     4.17291    0.02109     6.19311
      C   15   -0.19630      1.99908     4.17706    0.02015     6.19630
      C   16   -0.20520      1.99918     4.18618    0.01984     6.20520
      H   17    0.21651      0.00000     0.78173    0.00177     0.78349
      C   18   -0.20425      1.99919     4.18562    0.01944     6.20425
      H   19    0.19820      0.00000     0.79845    0.00335     0.80180
      C   20   -0.20238      1.99919     4.18371    0.01949     6.20238
      H   21    0.20849      0.00000     0.79018    0.00133     0.79151
      H   22    0.20596      0.00000     0.79261    0.00143     0.79404
      H   23    0.20775      0.00000     0.79102    0.00123     0.79225
      C   24   -0.20932      1.99939     4.19108    0.01885     6.20932
      C   25   -0.22392      1.99938     4.20615    0.01838     6.22392
      H   26    0.16678      0.00000     0.82937    0.00384     0.83322
      H   27    0.18563      0.00000     0.81180    0.00257     0.81437
      H   28    0.19615      0.00000     0.80161    0.00223     0.80385
      H   29    0.15955      0.00000     0.83644    0.00401     0.84045
      P   30    1.17769      9.99825     3.76623    0.05783    13.82231
      N   31   -0.74023      1.99956     5.70796    0.03271     7.74023
      N   32   -0.71078      1.99960     5.67725    0.03393     7.71078
      C   33   -0.39645      1.99938     4.38386    0.01321     6.39645
      H   34    0.19220      0.00000     0.80558    0.00222     0.80780
      H   35    0.16510      0.00000     0.83165    0.00325     0.83490
      H   36    0.20610      0.00000     0.79192    0.00198     0.79390
      C   37   -0.38665      1.99938     4.37213    0.01514     6.38665
      H   38    0.18291      0.00000     0.81483    0.00226     0.81709
      H   39    0.17160      0.00000     0.82480    0.00360     0.82840
      H   40    0.20203      0.00000     0.79597    0.00200     0.79797
 =======================================================================
   * Total *    0.00000     51.98595    97.52130    0.49276   150.00000

 Normal termination of Gaussian 16 at Fri Jan 24 04:16:39 2025.
