 Gaussian 16, Revision B.01,
 Gaussian 16:  ES64L-G16RevB.01 20-Dec-2017

 --------------------------------------------
 # nmr=giao b3lyp/def2TZVP pop=nbo scfcyc=200
 --------------------------------------------

 --------------
 MS-28 SPE NoRh
 --------------
 Symbolic Z-matrix:
 Charge =  0 Multiplicity = 1

                         Standard orientation:
 ---------------------------------------------------------------------
 Center     Atomic      Atomic             Coordinates (Angstroms)
 Number     Number       Type             X           Y           Z
 ---------------------------------------------------------------------
      1         15           0       -1.416865   -0.349420   -1.054966
      2         15           0        1.389962   -0.370761   -1.109145
      3          6           0       -2.757399   -1.548837   -0.649071
      4          6           0       -3.893854   -1.546817   -1.469344
      5          1           0       -3.985099   -0.830695   -2.277374
      6          6           0       -4.929470   -2.442877   -1.240571
      7          1           0       -5.803444   -2.427491   -1.877568
      8          6           0       -4.843163   -3.357037   -0.193336
      9          1           0       -5.650119   -4.055926   -0.014915
     10          6           0       -3.721083   -3.363221    0.626855
     11          1           0       -3.653950   -4.062682    1.450050
     12          6           0       -2.681444   -2.464774    0.400931
     13          1           0       -1.830220   -2.479046    1.067001
     14          6           0       -2.186915    1.295546   -0.765317
     15          6           0       -3.133709    1.489435    0.246936
     16          1           0       -3.436651    0.664072    0.878593
     17          6           0       -3.695444    2.743699    0.443521
     18          1           0       -4.427855    2.885924    1.228024
     19          6           0       -3.321069    3.814864   -0.363999
     20          1           0       -3.763861    4.789998   -0.209897
     21          6           0       -2.384907    3.627900   -1.376170
     22          1           0       -2.098861    4.455966   -2.012208
     23          6           0       -1.822658    2.371052   -1.580439
     24          1           0       -1.102275    2.223468   -2.374355
     25          6           0        2.180513    1.256042   -0.803033
     26          6           0        2.098936    2.242024   -1.790432
     27          1           0        1.569942    2.033641   -2.712184
     28          6           0        2.693777    3.483311   -1.596406
     29          1           0        2.628581    4.239432   -2.368388
     30          6           0        3.375277    3.749877   -0.414393
     31          1           0        3.841297    4.715315   -0.262576
     32          6           0        3.462338    2.773734    0.575270
     33          1           0        3.992626    2.978619    1.496723
     34          6           0        2.869226    1.532163    0.385359
     35          1           0        2.950123    0.781346    1.159861
     36          6           0        2.682941   -1.645214   -0.768538
     37          6           0        2.300022   -2.983446   -0.606732
     38          1           0        1.254349   -3.266293   -0.633252
     39          6           0        3.256882   -3.973297   -0.428048
     40          1           0        2.946101   -5.002868   -0.294683
     41          6           0        4.610441   -3.647156   -0.429185
     42          1           0        5.356000   -4.419679   -0.292572
     43          6           0        4.999699   -2.326477   -0.615765
     44          1           0        6.050491   -2.065351   -0.627401
     45          6           0        4.043748   -1.328394   -0.786485
     46          1           0        4.367508   -0.306942   -0.929264
     47          6           0        0.002832   -0.654326    0.173697
     48          1           0        0.006433   -1.744034    0.246694
     49          6           0        0.060228   -0.088336    1.561210
     50          6           0       -0.081957    1.272022    1.843104
     51          1           0       -0.250815    1.994337    1.058376
     52          6           0        0.000247    1.700872    3.163103
     53          1           0       -0.113732    2.753445    3.398791
     54          6           0        0.364941   -0.409873    3.929200
     55          1           0        0.546074   -1.058676    4.779945
     56          6           0        0.293230   -0.940027    2.645921
     57          1           0        0.425461   -2.005506    2.499857
     58          7           0        0.218885    0.888247    4.196761
 ---------------------------------------------------------------------

 SCF Done:  E(RB3LYP) =  -1896.16445613     A.U. after   15 cycles

      1  P    Isotropic =   216.2855   Anisotropy =   116.7981

      2  P    Isotropic =   211.6000   Anisotropy =   109.5967

      3  C    Isotropic =    32.5997   Anisotropy =   193.6790

      4  C    Isotropic =    46.9743   Anisotropy =   184.6543

      5  H    Isotropic =    24.5466   Anisotropy =    11.5600

      6  C    Isotropic =    49.1032   Anisotropy =   184.6997

      7  H    Isotropic =    24.4007   Anisotropy =     5.6045

      8  C    Isotropic =    51.9699   Anisotropy =   182.2031

      9  H    Isotropic =    24.4872   Anisotropy =     4.1845

     10  C    Isotropic =    49.8935   Anisotropy =   182.7182

     11  H    Isotropic =    24.2924   Anisotropy =     6.8551

     12  C    Isotropic =    49.8052   Anisotropy =   181.9020

     13  H    Isotropic =    23.8957   Anisotropy =    11.2626

     14  C    Isotropic =    37.4219   Anisotropy =   200.5519

     15  C    Isotropic =    38.7413   Anisotropy =   194.6557

     16  H    Isotropic =    25.0350   Anisotropy =    10.4456

     17  C    Isotropic =    49.2292   Anisotropy =   185.7531

     18  H    Isotropic =    24.6844   Anisotropy =     6.1531

     19  C    Isotropic =    48.4039   Anisotropy =   189.3852

     20  H    Isotropic =    24.4314   Anisotropy =     3.9736

     21  C    Isotropic =    50.4167   Anisotropy =   183.4396

     22  H    Isotropic =    24.3379   Anisotropy =     5.9543

     23  C    Isotropic =    40.9528   Anisotropy =   182.9821

     24  H    Isotropic =    23.4737   Anisotropy =     8.3338

     25  C    Isotropic =    42.1007   Anisotropy =   196.4673

     26  C    Isotropic =    38.9716   Anisotropy =   182.3261

     27  H    Isotropic =    23.3846   Anisotropy =     8.4697

     28  C    Isotropic =    50.1807   Anisotropy =   184.2918

     29  H    Isotropic =    24.1013   Anisotropy =     5.4291

     30  C    Isotropic =    47.2970   Anisotropy =   192.2494

     31  H    Isotropic =    24.2540   Anisotropy =     4.0483

     32  C    Isotropic =    49.2325   Anisotropy =   186.8422

     33  H    Isotropic =    24.6042   Anisotropy =     6.4181

     34  C    Isotropic =    36.2023   Anisotropy =   198.4178

     35  H    Isotropic =    25.0737   Anisotropy =     8.8222

     36  C    Isotropic =    31.6634   Anisotropy =   195.0157

     37  C    Isotropic =    49.4030   Anisotropy =   184.5290

     38  H    Isotropic =    23.9193   Anisotropy =    10.8858

     39  C    Isotropic =    50.1066   Anisotropy =   183.1792

     40  H    Isotropic =    24.2129   Anisotropy =     6.3658

     41  C    Isotropic =    52.8247   Anisotropy =   181.4042

     42  H    Isotropic =    24.5638   Anisotropy =     4.0504

     43  C    Isotropic =    49.4256   Anisotropy =   183.6631

     44  H    Isotropic =    24.6116   Anisotropy =     6.4915

     45  C    Isotropic =    50.1634   Anisotropy =   182.1179

     46  H    Isotropic =    25.0457   Anisotropy =    13.7313

     47  C    Isotropic =   128.8053   Anisotropy =    21.7602

     48  H    Isotropic =    27.5759   Anisotropy =     5.4918

     49  C    Isotropic =    30.9520   Anisotropy =   207.2694

     50  C    Isotropic =    53.2390   Anisotropy =   180.5130

     51  H    Isotropic =    27.1188   Anisotropy =     5.6827

     52  C    Isotropic =    28.5761   Anisotropy =   169.7106

     53  H    Isotropic =    23.8686   Anisotropy =     8.9999

     54  C    Isotropic =    27.1968   Anisotropy =   168.2571

     55  H    Isotropic =    23.1800   Anisotropy =     7.7986

     56  C    Isotropic =    54.7712   Anisotropy =   146.1102

     57  H    Isotropic =    24.6040   Anisotropy =     8.9768

     58  N    Isotropic =   -90.7272   Anisotropy =   576.8826

 The electronic state is 1-A.
 Alpha  occ. eigenvalues --  -77.05827 -77.05661 -14.30824 -10.20774 -10.20703
 Alpha  occ. eigenvalues --  -10.20591 -10.20443 -10.19144 -10.19022 -10.18976
 Alpha  occ. eigenvalues --  -10.18883 -10.18827 -10.18821 -10.18664 -10.18629
 Alpha  occ. eigenvalues --  -10.18562 -10.18560 -10.18426 -10.18415 -10.18354
 Alpha  occ. eigenvalues --  -10.18307 -10.18227 -10.18216 -10.18149 -10.18055
 Alpha  occ. eigenvalues --  -10.18016 -10.18006 -10.17966 -10.17918 -10.17884
 Alpha  occ. eigenvalues --  -10.17823 -10.17813 -10.17708  -6.54355  -6.54197
 Alpha  occ. eigenvalues --   -4.70513  -4.70459  -4.70360  -4.70300  -4.69999
 Alpha  occ. eigenvalues --   -4.69837  -0.94296  -0.87026  -0.86791  -0.86183
 Alpha  occ. eigenvalues --   -0.86143  -0.83041  -0.77659  -0.77025  -0.76312
 Alpha  occ. eigenvalues --   -0.75970  -0.75733  -0.75471  -0.75379  -0.75034
 Alpha  occ. eigenvalues --   -0.75002  -0.72854  -0.64647  -0.64424  -0.63349
 Alpha  occ. eigenvalues --   -0.61846  -0.61538  -0.61513  -0.61205  -0.60588
 Alpha  occ. eigenvalues --   -0.60536  -0.60307  -0.56757  -0.55991  -0.53028
 Alpha  occ. eigenvalues --   -0.52650  -0.52216  -0.50560  -0.50460  -0.48573
 Alpha  occ. eigenvalues --   -0.47317  -0.46592  -0.46481  -0.46433  -0.46101
 Alpha  occ. eigenvalues --   -0.45924  -0.45735  -0.45355  -0.45097  -0.43558
 Alpha  occ. eigenvalues --   -0.43513  -0.43221  -0.42988  -0.42924  -0.42379
 Alpha  occ. eigenvalues --   -0.41596  -0.41333  -0.40830  -0.39835  -0.38920
 Alpha  occ. eigenvalues --   -0.38325  -0.38004  -0.37776  -0.37684  -0.36739
 Alpha  occ. eigenvalues --   -0.35838  -0.35678  -0.35534  -0.35411  -0.34958
 Alpha  occ. eigenvalues --   -0.34481  -0.33096  -0.32838  -0.28326  -0.27955
 Alpha  occ. eigenvalues --   -0.27654  -0.27306  -0.27148  -0.26912  -0.26383
 Alpha  occ. eigenvalues --   -0.26258  -0.26119  -0.25816  -0.25793  -0.22662
 Alpha  occ. eigenvalues --   -0.19228
 Alpha virt. eigenvalues --   -0.04551  -0.04302  -0.03416  -0.02984  -0.02823
 Alpha virt. eigenvalues --   -0.02684  -0.02137  -0.02050  -0.01340  -0.00909
 Alpha virt. eigenvalues --    0.01507   0.02799   0.04184   0.04792   0.04851

 Mulliken charges:
               1
     1  P    0.132940
     2  P    0.153215
     3  C    0.048437
     4  C   -0.158699
     5  H    0.112363
     6  C   -0.114714
     7  H    0.109888
     8  C   -0.099049
     9  H    0.109409
    10  C   -0.139811
    11  H    0.106444
    12  C   -0.140360
    13  H    0.108481
    14  C   -0.057452
    15  C   -0.100978
    16  H    0.139958
    17  C   -0.128393
    18  H    0.111983
    19  C   -0.082897
    20  H    0.113025
    21  C   -0.132635
    22  H    0.109171
    23  C   -0.109581
    24  H    0.112461
    25  C    0.058439
    26  C   -0.174223
    27  H    0.129316
    28  C   -0.105964
    29  H    0.111469
    30  C   -0.099528
    31  H    0.114369
    32  C   -0.090696
    33  H    0.115382
    34  C   -0.200950
    35  H    0.145368
    36  C    0.091452
    37  C   -0.220252
    38  H    0.122218
    39  C   -0.118678
    40  H    0.108168
    41  C   -0.111249
    42  H    0.108716
    43  C   -0.116732
    44  H    0.108412
    45  C   -0.183781
    46  H    0.144199
    47  C   -0.156318
    48  H    0.073978
    49  C    0.047552
    50  C   -0.163962
    51  H    0.161508
    52  C   -0.049556
    53  H    0.115949
    54  C   -0.053349
    55  H    0.114634
    56  C   -0.130704
    57  H    0.112320
    58  N   -0.210712
 Sum of Mulliken charges =  -0.00000

 Dipole moment (field-independent basis, Debye):
    X=             -0.0519    Y=              0.7536    Z=             -0.6382  Tot=              0.9888
 Quadrupole moment (field-independent basis, Debye-Ang):
   XX=           -193.6851   YY=           -185.4441   ZZ=           -223.7885
   XY=              2.0624   XZ=              0.9060   YZ=            -12.5714

 Summary of Natural Population Analysis:

                                       Natural Population
                Natural  -----------------------------------------------
    Atom  No    Charge         Core      Valence    Rydberg      Total
 -----------------------------------------------------------------------
      P    1    0.84709      9.99803     4.12306    0.03182    14.15291
      P    2    0.85203      9.99805     4.11826    0.03166    14.14797
      C    3   -0.32423      1.99900     4.29380    0.03143     6.32423
      C    4   -0.19945      1.99909     4.18071    0.01966     6.19945
      H    5    0.21191      0.00000     0.78637    0.00172     0.78809
      C    6   -0.19552      1.99919     4.17781    0.01852     6.19552
      H    7    0.20943      0.00000     0.78931    0.00126     0.79057
      C    8   -0.21094      1.99919     4.19242    0.01933     6.21094
      H    9    0.20866      0.00000     0.79017    0.00116     0.79134
      C   10   -0.19633      1.99919     4.17841    0.01873     6.19633
      H   11    0.20787      0.00000     0.79086    0.00128     0.79213
      C   12   -0.21814      1.99907     4.19962    0.01945     6.21814
      H   13    0.20138      0.00000     0.79647    0.00215     0.79862
      C   14   -0.34200      1.99899     4.31087    0.03214     6.34200
      C   15   -0.18545      1.99908     4.16677    0.01960     6.18545
      H   16    0.21737      0.00000     0.78042    0.00220     0.78263
      C   17   -0.20307      1.99918     4.18518    0.01870     6.20307
      H   18    0.21069      0.00000     0.78799    0.00132     0.78931
      C   19   -0.19534      1.99919     4.17718    0.01896     6.19534
      H   20    0.20971      0.00000     0.78912    0.00116     0.79029
      C   21   -0.20597      1.99918     4.18821    0.01858     6.20597
      H   22    0.21041      0.00000     0.78832    0.00127     0.78959
      C   23   -0.19292      1.99909     4.17408    0.01976     6.19292
      H   24    0.21435      0.00000     0.78347    0.00218     0.78565
      C   25   -0.35447      1.99900     4.32380    0.03167     6.35447
      C   26   -0.18460      1.99910     4.16534    0.02015     6.18460
      H   27    0.21747      0.00000     0.78101    0.00152     0.78253
      C   28   -0.20980      1.99918     4.19145    0.01916     6.20980
      H   29    0.21086      0.00000     0.78788    0.00125     0.78914
      C   30   -0.18945      1.99919     4.17147    0.01878     6.18945
      H   31    0.21016      0.00000     0.78867    0.00117     0.78984
      C   32   -0.20688      1.99918     4.18872    0.01898     6.20688
      H   33    0.21201      0.00000     0.78665    0.00134     0.78799
      C   34   -0.18247      1.99908     4.16275    0.02065     6.18247
      H   35    0.21802      0.00000     0.77935    0.00263     0.78198
      C   36   -0.32273      1.99899     4.29256    0.03118     6.32273
      C   37   -0.21244      1.99908     4.19416    0.01920     6.21244
      H   38    0.20078      0.00000     0.79756    0.00167     0.79922
      C   39   -0.19529      1.99918     4.17740    0.01870     6.19529
      H   40    0.20874      0.00000     0.79000    0.00126     0.79126
      C   41   -0.21292      1.99919     4.19430    0.01943     6.21292
      H   42    0.20866      0.00000     0.79018    0.00116     0.79134
      C   43   -0.19358      1.99919     4.17574    0.01865     6.19358
      H   44    0.20839      0.00000     0.79034    0.00127     0.79161
      C   45   -0.21029      1.99909     4.19175    0.01946     6.21029
      H   46    0.21548      0.00000     0.78280    0.00171     0.78452
      C   47   -0.77421      1.99926     4.73927    0.03568     6.77421
      H   48    0.25316      0.00000     0.74391    0.00293     0.74684
      C   49   -0.01620      1.99901     3.99167    0.02552     6.01620
      C   50   -0.24378      1.99901     4.22528    0.01948     6.24378
      H   51    0.22521      0.00000     0.77247    0.00233     0.77479
      C   52    0.03897      1.99924     3.93693    0.02486     5.96103
      H   53    0.18818      0.00000     0.81048    0.00133     0.81182
      C   54    0.03563      1.99924     3.94053    0.02461     5.96437
      H   55    0.18793      0.00000     0.81071    0.00136     0.81207
      C   56   -0.25234      1.99904     4.23513    0.01817     6.25234
      H   57    0.20760      0.00000     0.79072    0.00168     0.79240
      N   58   -0.41737      1.99947     5.38449    0.03340     7.41737
 =======================================================================
   * Total *   -0.00000     81.96924   159.23438    0.79638   242.00000

 Normal termination of Gaussian 16 at Fri Jan 24 06:53:28 2025.
