 Gaussian 16, Revision B.01,
 Gaussian 16:  ES64L-G16RevB.01 20-Dec-2017

 --------------------------------------------
 # nmr=giao b3lyp/def2TZVP pop=nbo scfcyc=200
 --------------------------------------------

 --------------
 MS-23 SPE NoRh
 --------------
 Symbolic Z-matrix:
 Charge =  0 Multiplicity = 1

                         Standard orientation:
 ---------------------------------------------------------------------
 Center     Atomic      Atomic             Coordinates (Angstroms)
 Number     Number       Type             X           Y           Z
 ---------------------------------------------------------------------
      1         15           0        1.069710    0.655964   -1.168971
      2         15           0       -1.669589    0.060600   -1.016687
      3          6           0        1.474152    2.281663   -0.408934
      4          6           0        1.058459    3.447855   -1.061328
      5          1           0        0.504501    3.374576   -1.987314
      6          6           0        1.344234    4.696249   -0.518834
      7          1           0        1.021262    5.592837   -1.032394
      8          6           0        2.043377    4.789745    0.679664
      9          1           0        2.268129    5.762307    1.101249
     10          6           0        2.455345    3.633740    1.336571
     11          1           0        2.998211    3.702585    2.270943
     12          6           0        2.177256    2.381899    0.799560
     13          1           0        2.502597    1.494922    1.328611
     14          6           0        2.649948   -0.287697   -1.280937
     15          6           0        3.887819    0.360546   -1.259634
     16          1           0        3.944683    1.427631   -1.095785
     17          6           0        5.062302   -0.364462   -1.435786
     18          1           0        6.015075    0.147738   -1.409889
     19          6           0        5.013943   -1.738424   -1.639616
     20          1           0        5.929614   -2.300860   -1.773903
     21          6           0        3.783753   -2.389596   -1.676995
     22          1           0        3.738820   -3.458147   -1.844082
     23          6           0        2.609060   -1.668676   -1.508409
     24          1           0        1.661702   -2.191851   -1.561569
     25          6           0       -0.096766   -0.288028   -0.014055
     26          1           0        0.068650   -1.333323   -0.291777
     27          6           0       -0.058050   -0.191598    1.515692
     28          1           0        0.018621    0.838165    1.855235
     29          1           0       -0.981525   -0.615747    1.914166
     30          6           0        1.111773   -0.962277    2.108148
     31          6           0        1.935984   -3.139108    2.627858
     32          1           0        2.155408   -2.812781    3.644751
     33          1           0        2.833015   -2.993956    2.025172
     34          6           0        1.436836   -4.564675    2.581215
     35          1           0        0.537154   -4.686190    3.184422
     36          1           0        2.206148   -5.230686    2.977558
     37          1           0        1.213849   -4.872960    1.558772
     38          6           0       -2.721565    1.338942   -0.212134
     39          6           0       -2.177001    2.371888    0.556271
     40          1           0       -1.116941    2.411245    0.762319
     41          6           0       -2.994662    3.378261    1.059956
     42          1           0       -2.560712    4.166643    1.662199
     43          6           0       -4.358940    3.376219    0.788914
     44          1           0       -4.992375    4.161493    1.182780
     45          6           0       -4.905071    2.362363    0.008258
     46          1           0       -5.964525    2.355255   -0.210468
     47          6           0       -4.093709    1.351960   -0.492414
     48          1           0       -4.538338    0.566882   -1.091653
     49          6           0       -2.618460   -1.515173   -0.901413
     50          6           0       -3.432579   -1.808461    0.198214
     51          1           0       -3.590540   -1.073330    0.976055
     52          6           0       -4.059677   -3.046220    0.292352
     53          1           0       -4.689753   -3.263410    1.145683
     54          6           0       -3.878964   -4.000446   -0.703860
     55          1           0       -4.372171   -4.962364   -0.628549
     56          6           0       -3.066513   -3.718642   -1.795783
     57          1           0       -2.925189   -4.458257   -2.573913
     58          6           0       -2.437970   -2.482072   -1.895795
     59          1           0       -1.803701   -2.266329   -2.746610
     60          8           0        0.883794   -2.281344    2.092156
     61          8           0        2.122533   -0.451806    2.528142
 ---------------------------------------------------------------------

 SCF Done:  E(RB3LYP) =  -1955.61733360     A.U. after   15 cycles

      1  P    Isotropic =   224.3338   Anisotropy =    89.4396

      2  P    Isotropic =   210.1075   Anisotropy =   100.9144

      3  C    Isotropic =    41.2166   Anisotropy =   194.9420

      4  C    Isotropic =    37.7271   Anisotropy =   185.0166

      5  H    Isotropic =    23.6825   Anisotropy =     8.2283

      6  C    Isotropic =    49.5793   Anisotropy =   184.7886

      7  H    Isotropic =    24.1375   Anisotropy =     5.0962

      8  C    Isotropic =    47.4524   Anisotropy =   191.4911

      9  H    Isotropic =    24.0238   Anisotropy =     3.9716

     10  C    Isotropic =    49.3038   Anisotropy =   185.6661

     11  H    Isotropic =    23.9716   Anisotropy =     6.3646

     12  C    Isotropic =    34.0616   Anisotropy =   201.9534

     13  H    Isotropic =    22.5191   Anisotropy =     8.9107

     14  C    Isotropic =    30.6762   Anisotropy =   197.3826

     15  C    Isotropic =    50.3066   Anisotropy =   182.3492

     16  H    Isotropic =    24.8842   Anisotropy =    13.0371

     17  C    Isotropic =    49.5403   Anisotropy =   183.6809

     18  H    Isotropic =    24.5878   Anisotropy =     6.1862

     19  C    Isotropic =    53.7680   Anisotropy =   179.7509

     20  H    Isotropic =    24.6748   Anisotropy =     4.1205

     21  C    Isotropic =    51.0047   Anisotropy =   182.0433

     22  H    Isotropic =    24.4524   Anisotropy =     6.2722

     23  C    Isotropic =    50.8209   Anisotropy =   183.6384

     24  H    Isotropic =    24.2871   Anisotropy =     9.8216

     25  C    Isotropic =   129.0332   Anisotropy =    14.2652

     26  H    Isotropic =    29.0988   Anisotropy =     3.4608

     27  C    Isotropic =   148.2465   Anisotropy =    34.4576

     28  H    Isotropic =    29.0883   Anisotropy =     3.7351

     29  H    Isotropic =    29.2760   Anisotropy =     4.6847

     30  C    Isotropic =     3.4194   Anisotropy =   100.4814

     31  C    Isotropic =   116.2389   Anisotropy =    65.2058

     32  H    Isotropic =    28.1276   Anisotropy =     7.0685

     33  H    Isotropic =    28.5446   Anisotropy =     4.0205

     34  C    Isotropic =   168.6666   Anisotropy =    22.1691

     35  H    Isotropic =    30.9615   Anisotropy =     7.5463

     36  H    Isotropic =    31.0653   Anisotropy =    10.6735

     37  H    Isotropic =    30.9126   Anisotropy =     5.6458

     38  C    Isotropic =    36.0621   Anisotropy =   187.8269

     39  C    Isotropic =    48.1405   Anisotropy =   181.7423

     40  H    Isotropic =    25.4437   Anisotropy =     7.2102

     41  C    Isotropic =    50.4410   Anisotropy =   183.0790

     42  H    Isotropic =    24.8778   Anisotropy =     8.3076

     43  C    Isotropic =    53.0271   Anisotropy =   180.8708

     44  H    Isotropic =    24.6783   Anisotropy =     4.5157

     45  C    Isotropic =    50.1401   Anisotropy =   183.8880

     46  H    Isotropic =    24.5209   Anisotropy =     5.5035

     47  C    Isotropic =    48.5736   Anisotropy =   183.8432

     48  H    Isotropic =    24.5928   Anisotropy =    11.7461

     49  C    Isotropic =    31.5917   Anisotropy =   209.8458

     50  C    Isotropic =    43.9011   Anisotropy =   187.8815

     51  H    Isotropic =    24.0672   Anisotropy =    11.1326

     52  C    Isotropic =    49.0397   Anisotropy =   184.6383

     53  H    Isotropic =    24.3061   Anisotropy =     6.1998

     54  C    Isotropic =    48.8274   Anisotropy =   188.1256

     55  H    Isotropic =    24.1985   Anisotropy =     4.1081

     56  C    Isotropic =    49.2378   Anisotropy =   184.7756

     57  H    Isotropic =    24.0555   Anisotropy =     5.2630

     58  C    Isotropic =    42.1884   Anisotropy =   180.8458

     59  H    Isotropic =    23.5557   Anisotropy =     8.9043

     60  O    Isotropic =   105.8560   Anisotropy =   168.5839

     61  O    Isotropic =  -101.3035   Anisotropy =   586.4689

 The electronic state is 1-A.
 Alpha  occ. eigenvalues --  -77.05294 -77.04890 -19.17562 -19.11539 -10.30298
 Alpha  occ. eigenvalues --  -10.23406 -10.20431 -10.19320 -10.18807 -10.18685
 Alpha  occ. eigenvalues --  -10.18482 -10.18386 -10.18360 -10.18334 -10.18251
 Alpha  occ. eigenvalues --  -10.18239 -10.18193 -10.18159 -10.18121 -10.17895
 Alpha  occ. eigenvalues --  -10.17746 -10.17732 -10.17712 -10.17660 -10.17630
 Alpha  occ. eigenvalues --  -10.17621 -10.17578 -10.17512 -10.17506 -10.17459
 Alpha  occ. eigenvalues --  -10.17301 -10.17172 -10.17153  -6.53837  -6.53450
 Alpha  occ. eigenvalues --   -4.69991  -4.69955  -4.69604  -4.69566  -4.69475
 Alpha  occ. eigenvalues --   -4.69089  -1.10980  -1.02255  -0.86625  -0.86262
 Alpha  occ. eigenvalues --   -0.85886  -0.85562  -0.81161  -0.78153  -0.76598
 Alpha  occ. eigenvalues --   -0.75892  -0.75594  -0.75206  -0.75046  -0.74805
 Alpha  occ. eigenvalues --   -0.74741  -0.74409  -0.69696  -0.64668  -0.64197
 Alpha  occ. eigenvalues --   -0.61815  -0.61377  -0.60974  -0.60880  -0.60405
 Alpha  occ. eigenvalues --   -0.60279  -0.59928  -0.57495  -0.56380  -0.55319
 Alpha  occ. eigenvalues --   -0.52553  -0.52051  -0.50912  -0.50576  -0.50192
 Alpha  occ. eigenvalues --   -0.49324  -0.48132  -0.46316  -0.46164  -0.45962
 Alpha  occ. eigenvalues --   -0.45825  -0.45595  -0.45455  -0.45218  -0.45130
 Alpha  occ. eigenvalues --   -0.44607  -0.43349  -0.43101  -0.42667  -0.42447
 Alpha  occ. eigenvalues --   -0.42438  -0.41326  -0.41035  -0.40790  -0.40470
 Alpha  occ. eigenvalues --   -0.40028  -0.38438  -0.38259  -0.37868  -0.37572
 Alpha  occ. eigenvalues --   -0.37382  -0.37141  -0.36662  -0.36116  -0.35531
 Alpha  occ. eigenvalues --   -0.35450  -0.34960  -0.34893  -0.34547  -0.32920
 Alpha  occ. eigenvalues --   -0.32259  -0.31801  -0.31090  -0.28580  -0.27703
 Alpha  occ. eigenvalues --   -0.27055  -0.26727  -0.26659  -0.26307  -0.25915
 Alpha  occ. eigenvalues --   -0.25640  -0.25565  -0.22040  -0.18646
 Alpha virt. eigenvalues --   -0.03814  -0.03421  -0.02784  -0.02475  -0.01962
 Alpha virt. eigenvalues --   -0.01606  -0.01439  -0.00833   0.00025   0.02089
 Alpha virt. eigenvalues --    0.02552   0.04041   0.04787   0.05193   0.05373

 Mulliken charges:
               1
     1  P    0.156994
     2  P    0.157983
     3  C   -0.036132
     4  C   -0.139049
     5  H    0.118221
     6  C   -0.104706
     7  H    0.111312
     8  C   -0.094729
     9  H    0.111690
    10  C   -0.118230
    11  H    0.114268
    12  C   -0.197944
    13  H    0.202217
    14  C    0.098689
    15  C   -0.168991
    16  H    0.141456
    17  C   -0.120828
    18  H    0.106044
    19  C   -0.106746
    20  H    0.105330
    21  C   -0.126261
    22  H    0.104265
    23  C   -0.215062
    24  H    0.110939
    25  C   -0.245586
    26  H    0.119568
    27  C   -0.167624
    28  H    0.125549
    29  H    0.113683
    30  C    0.332026
    31  C   -0.037756
    32  H    0.112523
    33  H    0.122139
    34  C   -0.304161
    35  H    0.112716
    36  H    0.110663
    37  H    0.114224
    38  C    0.054836
    39  C   -0.144795
    40  H    0.157127
    41  C   -0.162898
    42  H    0.108201
    43  C   -0.102749
    44  H    0.107110
    45  C   -0.113704
    46  H    0.108863
    47  C   -0.194631
    48  H    0.129140
    49  C    0.054228
    50  C   -0.193981
    51  H    0.140765
    52  C   -0.109164
    53  H    0.109648
    54  C   -0.102926
    55  H    0.111596
    56  C   -0.098217
    57  H    0.111394
    58  C   -0.198631
    59  H    0.120541
    60  O   -0.264592
    61  O   -0.345854
 Sum of Mulliken charges =  -0.00000

 Dipole moment (field-independent basis, Debye):
    X=             -0.8617    Y=             -1.8634    Z=              1.8440  Tot=              2.7596
 Quadrupole moment (field-independent basis, Debye-Ang):
   XX=           -201.1212   YY=           -182.3590   ZZ=           -213.5755
   XY=             -0.2133   XZ=             -2.2499   YZ=              1.8244

 Summary of Natural Population Analysis:

                                       Natural Population
                Natural  -----------------------------------------------
    Atom  No    Charge         Core      Valence    Rydberg      Total
 -----------------------------------------------------------------------
      P    1    0.83424      9.99802     4.13551    0.03223    14.16576
      P    2    0.85279      9.99805     4.11733    0.03183    14.14721
      C    3   -0.35446      1.99900     4.32258    0.03289     6.35446
      C    4   -0.18540      1.99911     4.16590    0.02039     6.18540
      H    5    0.22160      0.00000     0.77688    0.00152     0.77840
      C    6   -0.21094      1.99918     4.19237    0.01939     6.21094
      H    7    0.21090      0.00000     0.78784    0.00126     0.78910
      C    8   -0.19328      1.99919     4.17513    0.01895     6.19328
      H    9    0.20863      0.00000     0.79018    0.00119     0.79137
      C   10   -0.20818      1.99918     4.19016    0.01885     6.20818
      H   11    0.21093      0.00000     0.78769    0.00138     0.78907
      C   12   -0.20271      1.99909     4.18347    0.02016     6.20271
      H   13    0.24265      0.00000     0.75532    0.00203     0.75735
      C   14   -0.31820      1.99899     4.28776    0.03145     6.31820
      C   15   -0.20752      1.99909     4.18894    0.01950     6.20752
      H   16    0.21500      0.00000     0.78322    0.00178     0.78500
      C   17   -0.19235      1.99919     4.17454    0.01862     6.19235
      H   18    0.20755      0.00000     0.79118    0.00127     0.79245
      C   19   -0.21704      1.99919     4.19827    0.01958     6.21704
      H   20    0.20685      0.00000     0.79197    0.00118     0.79315
      C   21   -0.19887      1.99918     4.18096    0.01873     6.19887
      H   22    0.20614      0.00000     0.79258    0.00128     0.79386
      C   23   -0.21490      1.99908     4.19637    0.01944     6.21490
      H   24    0.19959      0.00000     0.79846    0.00195     0.80041
      C   25   -0.75230      1.99937     4.71944    0.03349     6.75230
      H   26    0.25870      0.00000     0.73944    0.00186     0.74130
      C   27   -0.50720      1.99922     4.48827    0.01971     6.50720
      H   28    0.23015      0.00000     0.76763    0.00222     0.76985
      H   29    0.23020      0.00000     0.76711    0.00269     0.76980
      C   30    0.78224      1.99945     3.18123    0.03708     5.21776
      C   31   -0.07122      1.99926     4.05444    0.01752     6.07122
      H   32    0.18370      0.00000     0.81451    0.00180     0.81630
      H   33    0.18754      0.00000     0.81022    0.00223     0.81246
      C   34   -0.60830      1.99947     4.59775    0.01108     6.60830
      H   35    0.20886      0.00000     0.78995    0.00119     0.79114
      H   36    0.21209      0.00000     0.78710    0.00081     0.78791
      H   37    0.20913      0.00000     0.78969    0.00118     0.79087
      C   38   -0.33288      1.99899     4.30286    0.03104     6.33288
      C   39   -0.21513      1.99908     4.19622    0.01983     6.21513
      H   40    0.21164      0.00000     0.78630    0.00205     0.78836
      C   41   -0.19486      1.99919     4.17716    0.01851     6.19486
      H   42    0.20930      0.00000     0.78943    0.00127     0.79070
      C   43   -0.21426      1.99919     4.19558    0.01949     6.21426
      H   44    0.20782      0.00000     0.79100    0.00118     0.79218
      C   45   -0.19740      1.99918     4.17962    0.01859     6.19740
      H   46    0.20845      0.00000     0.79028    0.00127     0.79155
      C   47   -0.20792      1.99909     4.18918    0.01964     6.20792
      H   48    0.21359      0.00000     0.78463    0.00178     0.78641
      C   49   -0.33386      1.99900     4.30226    0.03260     6.33386
      C   50   -0.19864      1.99908     4.17963    0.01992     6.19864
      H   51    0.21285      0.00000     0.78484    0.00231     0.78715
      C   52   -0.20298      1.99919     4.18478    0.01901     6.20298
      H   53    0.20835      0.00000     0.79029    0.00136     0.79165
      C   54   -0.19937      1.99919     4.18103    0.01915     6.19937
      H   55    0.20894      0.00000     0.78989    0.00117     0.79106
      C   56   -0.20410      1.99918     4.18552    0.01940     6.20410
      H   57    0.20998      0.00000     0.78877    0.00126     0.79002
      C   58   -0.19743      1.99910     4.17793    0.02040     6.19743
      H   59    0.21693      0.00000     0.78151    0.00156     0.78307
      O   60   -0.48918      1.99973     6.47471    0.01474     8.48918
      O   61   -0.59642      1.99973     6.56992    0.02677     8.59642
 =======================================================================
   * Total *   -0.00000     81.97123   165.24476    0.78401   248.00000

 Normal termination of Gaussian 16 at Fri Jan 24 06:22:58 2025.
