 Gaussian 16, Revision B.01,
 Gaussian 16:  ES64L-G16RevB.01 20-Dec-2017

 --------------------------------------------
 # nmr=giao b3lyp/def2TZVP pop=nbo scfcyc=200
 --------------------------------------------

 --------------
 MS-29 SPE NoRh
 --------------
 Symbolic Z-matrix:
 Charge =  0 Multiplicity = 1

                         Standard orientation:
 ---------------------------------------------------------------------
 Center     Atomic      Atomic             Coordinates (Angstroms)
 Number     Number       Type             X           Y           Z
 ---------------------------------------------------------------------
      1         15           0       -1.403589   -0.508690   -1.208254
      2         15           0        1.404332   -0.534089   -1.199559
      3          7           0       -0.010082   -1.171887    2.399538
      4          6           0       -2.753353   -1.682424   -0.765121
      5          6           0       -3.894524   -1.690463   -1.575999
      6          1           0       -3.986628   -0.994148   -2.402032
      7          6           0       -4.934163   -2.575635   -1.318447
      8          1           0       -5.813120   -2.569486   -1.950422
      9          6           0       -4.844789   -3.463778   -0.250019
     10          1           0       -5.654640   -4.153619   -0.049253
     11          6           0       -3.716624   -3.456003    0.562200
     12          1           0       -3.647297   -4.136342    1.401648
     13          6           0       -2.671979   -2.570454    0.310016
     14          1           0       -1.815965   -2.572252    0.972399
     15          6           0       -2.159191    1.152387   -0.966867
     16          6           0       -3.054950    1.393191    0.081778
     17          1           0       -3.318255    0.599028    0.769154
     18          6           0       -3.623226    2.651320    0.238222
     19          1           0       -4.318854    2.828012    1.048071
     20          6           0       -3.307623    3.677311   -0.648168
     21          1           0       -3.758861    4.654247   -0.527484
     22          6           0       -2.423762    3.443832   -1.695919
     23          1           0       -2.185479    4.236559   -2.393582
     24          6           0       -1.854505    2.184347   -1.857282
     25          1           0       -1.177007    1.998519   -2.681443
     26          6           0        2.163928    1.130157   -0.993843
     27          6           0        1.938889    2.114146   -1.959426
     28          1           0        1.315703    1.889016   -2.816323
     29          6           0        2.521708    3.370754   -1.831523
     30          1           0        2.346430    4.126392   -2.588246
     31          6           0        3.338661    3.649953   -0.742510
     32          1           0        3.799492    4.625171   -0.646359
     33          6           0        3.574770    2.670727    0.219495
     34          1           0        4.219777    2.883025    1.062531
     35          6           0        2.993962    1.414985    0.095618
     36          1           0        3.199207    0.656687    0.841163
     37          6           0        2.752010   -1.695431   -0.720013
     38          6           0        2.644177   -2.596887    0.340799
     39          1           0        1.766822   -2.612636    0.975335
     40          6           0        3.689852   -3.474428    0.619069
     41          1           0        3.599031   -4.164131    1.448666
     42          6           0        4.843202   -3.461693   -0.154530
     43          1           0        5.653593   -4.145823    0.065578
     44          6           0        4.959035   -2.560350   -1.210871
     45          1           0        5.859461   -2.539560   -1.812311
     46          6           0        3.920346   -1.683803   -1.493164
     47          1           0        4.031411   -0.976942   -2.308003
     48          6           0       -0.005402   -0.782020    0.040026
     49          1           0       -0.014802   -1.870510    0.134871
     50          6           0       -0.008758   -0.234483    1.438892
     51          6           0       -0.007500    1.128752    1.725511
     52          1           0       -0.004192    1.853685    0.923633
     53          6           0       -0.008490    1.560413    3.053721
     54          6           0       -0.006480    0.576000    4.041201
     55          1           0       -0.000772    0.843414    5.090356
     56          6           0       -0.009378   -0.762167    3.668269
     57          1           0       -0.007468   -1.542636    4.421850
     58          6           0       -0.034823    3.023778    3.396683
     59          1           0       -1.063718    3.392112    3.417618
     60          1           0        0.400784    3.209970    4.378341
     61          1           0        0.508644    3.614947    2.657905
 ---------------------------------------------------------------------

 SCF Done:  E(RB3LYP) =  -1935.50437361     A.U. after   15 cycles

      1  P    Isotropic =   221.7724   Anisotropy =   107.2544

      2  P    Isotropic =   221.2676   Anisotropy =   108.3567

      3  N    Isotropic =   -83.9519   Anisotropy =   504.1357

      4  C    Isotropic =    32.3020   Anisotropy =   193.5274

      5  C    Isotropic =    47.4425   Anisotropy =   183.7644

      6  H    Isotropic =    24.6409   Anisotropy =    11.6861

      7  C    Isotropic =    49.7394   Anisotropy =   182.8862

      8  H    Isotropic =    24.4938   Anisotropy =     5.6470

      9  C    Isotropic =    52.3256   Anisotropy =   181.1174

     10  H    Isotropic =    24.5589   Anisotropy =     4.2749

     11  C    Isotropic =    49.7362   Anisotropy =   182.7672

     12  H    Isotropic =    24.2911   Anisotropy =     7.0156

     13  C    Isotropic =    47.8279   Anisotropy =   188.0908

     14  H    Isotropic =    23.1938   Anisotropy =    11.4053

     15  C    Isotropic =    36.8070   Anisotropy =   202.9632

     16  C    Isotropic =    38.1015   Anisotropy =   195.3157

     17  H    Isotropic =    25.1472   Anisotropy =     9.8184

     18  C    Isotropic =    50.0977   Anisotropy =   184.4841

     19  H    Isotropic =    24.7899   Anisotropy =     6.0683

     20  C    Isotropic =    49.0111   Anisotropy =   188.4183

     21  H    Isotropic =    24.4801   Anisotropy =     3.9212

     22  C    Isotropic =    50.9879   Anisotropy =   182.5314

     23  H    Isotropic =    24.2897   Anisotropy =     5.6744

     24  C    Isotropic =    40.2164   Anisotropy =   182.8941

     25  H    Isotropic =    23.3275   Anisotropy =     8.1504

     26  C    Isotropic =    37.0131   Anisotropy =   202.7147

     27  C    Isotropic =    39.8673   Anisotropy =   182.2678

     28  H    Isotropic =    23.2326   Anisotropy =     8.2428

     29  C    Isotropic =    51.1128   Anisotropy =   182.1362

     30  H    Isotropic =    24.2007   Anisotropy =     5.4468

     31  C    Isotropic =    48.7720   Anisotropy =   188.7946

     32  H    Isotropic =    24.4234   Anisotropy =     3.9405

     33  C    Isotropic =    49.8615   Anisotropy =   184.6962

     34  H    Isotropic =    24.7697   Anisotropy =     6.1410

     35  C    Isotropic =    37.3867   Anisotropy =   195.6567

     36  H    Isotropic =    25.1390   Anisotropy =     9.5014

     37  C    Isotropic =    31.5907   Anisotropy =   193.7458

     38  C    Isotropic =    48.2556   Anisotropy =   187.5361

     39  H    Isotropic =    23.2132   Anisotropy =    11.3644

     40  C    Isotropic =    49.9820   Anisotropy =   182.4814

     41  H    Isotropic =    24.3264   Anisotropy =     7.0058

     42  C    Isotropic =    52.5836   Anisotropy =   180.5452

     43  H    Isotropic =    24.5947   Anisotropy =     4.2470

     44  C    Isotropic =    49.8274   Anisotropy =   182.5816

     45  H    Isotropic =    24.5317   Anisotropy =     5.7175

     46  C    Isotropic =    47.8622   Anisotropy =   183.7168

     47  H    Isotropic =    24.7341   Anisotropy =    11.8959

     48  C    Isotropic =   132.6532   Anisotropy =    33.1256

     49  H    Isotropic =    26.6468   Anisotropy =     6.9171

     50  C    Isotropic =    18.2839   Anisotropy =   176.1643

     51  C    Isotropic =    52.0569   Anisotropy =   165.9566

     52  H    Isotropic =    27.0957   Anisotropy =     6.3251

     53  C    Isotropic =    29.6275   Anisotropy =   218.0964

     54  C    Isotropic =    57.7100   Anisotropy =   152.3144

     55  H    Isotropic =    25.0041   Anisotropy =     6.0544

     56  C    Isotropic =    28.0445   Anisotropy =   165.0361

     57  H    Isotropic =    23.0545   Anisotropy =     5.6032

     58  C    Isotropic =   161.5078   Anisotropy =    39.1186

     59  H    Isotropic =    30.0852   Anisotropy =     7.3120

     60  H    Isotropic =    30.2007   Anisotropy =     9.2664

     61  H    Isotropic =    30.6082   Anisotropy =     5.2149

 The electronic state is 1-A.
 Alpha  occ. eigenvalues --  -77.05067 -77.05047 -14.31197 -10.22085 -10.20845
 Alpha  occ. eigenvalues --  -10.20266 -10.19555 -10.18661 -10.18642 -10.18422
 Alpha  occ. eigenvalues --  -10.18414 -10.18371 -10.18363 -10.18214 -10.18180
 Alpha  occ. eigenvalues --  -10.18171 -10.18132 -10.18077 -10.18060 -10.18042
 Alpha  occ. eigenvalues --  -10.17991 -10.17981 -10.17859 -10.17852 -10.17378
 Alpha  occ. eigenvalues --  -10.17296 -10.17290 -10.17216 -10.17204 -10.17123
 Alpha  occ. eigenvalues --  -10.17121 -10.17098 -10.17037 -10.17015  -6.53606
 Alpha  occ. eigenvalues --   -6.53585  -4.69766  -4.69745  -4.69710  -4.69689
 Alpha  occ. eigenvalues --   -4.69249  -4.69227  -0.94887  -0.86568  -0.86463
 Alpha  occ. eigenvalues --   -0.85466  -0.85383  -0.82546  -0.79774  -0.76526
 Alpha  occ. eigenvalues --   -0.76430  -0.75572  -0.75472  -0.74657  -0.74534
 Alpha  occ. eigenvalues --   -0.74465  -0.74417  -0.72030  -0.71473  -0.64380
 Alpha  occ. eigenvalues --   -0.64072  -0.62039  -0.61407  -0.61227  -0.60571
 Alpha  occ. eigenvalues --   -0.60389  -0.60096  -0.59975  -0.59208  -0.56174
 Alpha  occ. eigenvalues --   -0.55094  -0.52210  -0.52162  -0.51671  -0.50292
 Alpha  occ. eigenvalues --   -0.49816  -0.49271  -0.46830  -0.46202  -0.46140
 Alpha  occ. eigenvalues --   -0.45779  -0.45715  -0.45364  -0.44981  -0.44712
 Alpha  occ. eigenvalues --   -0.44423  -0.43699  -0.43583  -0.43217  -0.42879
 Alpha  occ. eigenvalues --   -0.42233  -0.42149  -0.41700  -0.40891  -0.40567
 Alpha  occ. eigenvalues --   -0.40182  -0.40119  -0.38739  -0.38441  -0.37888
 Alpha  occ. eigenvalues --   -0.37346  -0.37048  -0.36940  -0.36348  -0.35531
 Alpha  occ. eigenvalues --   -0.35209  -0.35058  -0.34620  -0.34262  -0.33271
 Alpha  occ. eigenvalues --   -0.32339  -0.32234  -0.28338  -0.27662  -0.27068
 Alpha  occ. eigenvalues --   -0.26989  -0.26782  -0.26570  -0.26371  -0.25983
 Alpha  occ. eigenvalues --   -0.25468  -0.25346  -0.25294  -0.22036  -0.18710
 Alpha virt. eigenvalues --   -0.03932  -0.03820  -0.03311  -0.02836  -0.02194
 Alpha virt. eigenvalues --   -0.02192  -0.01695  -0.01385  -0.01009  -0.00367
 Alpha virt. eigenvalues --    0.02403   0.03229   0.04297   0.04742   0.04995

 Mulliken charges:
               1
     1  P    0.116902
     2  P    0.118055
     3  N   -0.319008
     4  C    0.057354
     5  C   -0.168652
     6  H    0.109229
     7  C   -0.113343
     8  H    0.106615
     9  C   -0.102047
    10  H    0.106159
    11  C   -0.146160
    12  H    0.106188
    13  C   -0.169151
    14  H    0.147346
    15  C   -0.033406
    16  C   -0.103917
    17  H    0.139561
    18  C   -0.137505
    19  H    0.108935
    20  C   -0.080236
    21  H    0.110747
    22  C   -0.135982
    23  H    0.107362
    24  C   -0.114804
    25  H    0.117119
    26  C   -0.023837
    27  C   -0.138207
    28  H    0.129805
    29  C   -0.127515
    30  H    0.108135
    31  C   -0.084419
    32  H    0.111234
    33  C   -0.131818
    34  H    0.109098
    35  C   -0.112494
    36  H    0.138477
    37  C    0.063461
    38  C   -0.170036
    39  H    0.144181
    40  C   -0.145915
    41  H    0.105811
    42  C   -0.102306
    43  H    0.105604
    44  C   -0.115247
    45  H    0.106115
    46  C   -0.169715
    47  H    0.110767
    48  C   -0.162636
    49  H    0.135669
    50  C    0.276476
    51  C   -0.341647
    52  H    0.164181
    53  C    0.172423
    54  C   -0.138330
    55  H    0.104941
    56  C   -0.065614
    57  H    0.111445
    58  C   -0.373638
    59  H    0.129543
    60  H    0.117170
    61  H    0.131477
 Sum of Mulliken charges =  -0.00000

 Dipole moment (field-independent basis, Debye):
    X=             -0.0731    Y=              3.6482    Z=              2.5434  Tot=              4.4479
 Quadrupole moment (field-independent basis, Debye-Ang):
   XX=           -204.7451   YY=           -200.3740   ZZ=           -205.6423
   XY=              0.6199   XZ=             -0.3263   YZ=             -5.0292

 Summary of Natural Population Analysis:

                                       Natural Population
                Natural  -----------------------------------------------
    Atom  No    Charge         Core      Valence    Rydberg      Total
 -----------------------------------------------------------------------
      P    1    0.84941      9.99803     4.12126    0.03130    14.15059
      P    2    0.84935      9.99804     4.12133    0.03129    14.15065
      N    3   -0.45343      1.99940     5.42088    0.03315     7.45343
      C    4   -0.32527      1.99900     4.29503    0.03124     6.32527
      C    5   -0.20089      1.99909     4.18212    0.01969     6.20089
      H    6    0.21009      0.00000     0.78816    0.00175     0.78991
      C    7   -0.19829      1.99919     4.18051    0.01860     6.19829
      H    8    0.20782      0.00000     0.79091    0.00127     0.79218
      C    9   -0.21223      1.99919     4.19369    0.01936     6.21223
      H   10    0.20698      0.00000     0.79184    0.00118     0.79302
      C   11   -0.19610      1.99919     4.17824    0.01867     6.19610
      H   12    0.20726      0.00000     0.79146    0.00128     0.79274
      C   13   -0.21930      1.99907     4.20061    0.01962     6.21930
      H   14    0.22013      0.00000     0.77764    0.00223     0.77987
      C   15   -0.33887      1.99898     4.30773    0.03216     6.33887
      C   16   -0.18478      1.99908     4.16604    0.01965     6.18478
      H   17    0.21709      0.00000     0.78069    0.00222     0.78291
      C   18   -0.20699      1.99918     4.18900    0.01881     6.20699
      H   19    0.20848      0.00000     0.79020    0.00133     0.79152
      C   20   -0.19714      1.99919     4.17887    0.01908     6.19714
      H   21    0.20840      0.00000     0.79043    0.00117     0.79160
      C   22   -0.20749      1.99918     4.18964    0.01867     6.20749
      H   23    0.20951      0.00000     0.78922    0.00127     0.79049
      C   24   -0.19019      1.99909     4.17119    0.01991     6.19019
      H   25    0.21335      0.00000     0.78473    0.00191     0.78665
      C   26   -0.33941      1.99898     4.30873    0.03170     6.33941
      C   27   -0.18975      1.99909     4.17063    0.02004     6.18975
      H   28    0.21374      0.00000     0.78439    0.00187     0.78626
      C   29   -0.20853      1.99918     4.19063    0.01872     6.20853
      H   30    0.20959      0.00000     0.78914    0.00127     0.79041
      C   31   -0.19637      1.99919     4.17818    0.01900     6.19637
      H   32    0.20863      0.00000     0.79020    0.00117     0.79137
      C   33   -0.20736      1.99919     4.18917    0.01900     6.20736
      H   34    0.20890      0.00000     0.78979    0.00131     0.79110
      C   35   -0.18399      1.99907     4.16470    0.02021     6.18399
      H   36    0.21707      0.00000     0.78047    0.00246     0.78293
      C   37   -0.32524      1.99900     4.29499    0.03125     6.32524
      C   38   -0.21926      1.99907     4.20055    0.01963     6.21926
      H   39    0.21987      0.00000     0.77794    0.00220     0.78013
      C   40   -0.19613      1.99919     4.17827    0.01867     6.19613
      H   41    0.20712      0.00000     0.79160    0.00128     0.79288
      C   42   -0.21301      1.99919     4.19443    0.01940     6.21301
      H   43    0.20677      0.00000     0.79205    0.00118     0.79323
      C   44   -0.19824      1.99918     4.18046    0.01860     6.19824
      H   45    0.20765      0.00000     0.79108    0.00127     0.79235
      C   46   -0.20169      1.99909     4.18295    0.01966     6.20169
      H   47    0.20969      0.00000     0.78857    0.00175     0.79031
      C   48   -0.80358      1.99926     4.76762    0.03670     6.80358
      H   49    0.27599      0.00000     0.72143    0.00258     0.72401
      C   50    0.18515      1.99904     3.78779    0.02802     5.81485
      C   51   -0.23946      1.99892     4.22106    0.01948     6.23946
      H   52    0.22288      0.00000     0.77447    0.00265     0.77712
      C   53    0.02973      1.99912     3.95212    0.01903     5.97027
      C   54   -0.26082      1.99905     4.24357    0.01820     6.26082
      H   55    0.20945      0.00000     0.78921    0.00134     0.79055
      C   56    0.04662      1.99924     3.92935    0.02480     5.95338
      H   57    0.18842      0.00000     0.81022    0.00135     0.81158
      C   58   -0.61689      1.99941     4.60542    0.01206     6.61689
      H   59    0.22301      0.00000     0.77572    0.00127     0.77699
      H   60    0.21276      0.00000     0.78618    0.00106     0.78724
      H   61    0.21984      0.00000     0.77903    0.00113     0.78016
 =======================================================================
   * Total *    0.00000     83.96835   165.22351    0.80813   250.00000

 Normal termination of Gaussian 16 at Fri Jan 24 16:01:20 2025.
