 Gaussian 16, Revision B.01,
 Gaussian 16:  ES64L-G16RevB.01 20-Dec-2017

 --------------------------------------------
 # nmr=giao b3lyp/def2TZVP pop=nbo scfcyc=200
 --------------------------------------------

 --------------
 MS-34 SPE NoRh
 --------------
 Symbolic Z-matrix:
 Charge =  0 Multiplicity = 1

                         Standard orientation:
 ---------------------------------------------------------------------
 Center     Atomic      Atomic             Coordinates (Angstroms)
 Number     Number       Type             X           Y           Z
 ---------------------------------------------------------------------
      1         15           0        1.345835   -0.401354   -1.295079
      2         15           0       -1.471844   -0.375077   -1.258513
      3          6           0       -0.037958   -0.731366   -0.057043
      4          6           0        2.703587   -1.582830   -0.902783
      5          6           0        3.875559   -1.501758   -1.665767
      6          6           0        4.913756   -2.399195   -1.457143
      7          6           0        4.796208   -3.391153   -0.487723
      8          6           0        3.636966   -3.476970    0.274083
      9          6           0        2.592027   -2.579593    0.068381
     10          6           0        2.083961    1.263988   -1.061476
     11          6           0        1.702644    2.298111   -1.921723
     12          6           0        2.256526    3.565810   -1.781157
     13          6           0        3.201109    3.804892   -0.789377
     14          6           0        3.589155    2.776301    0.065294
     15          6           0        3.034427    1.511498   -0.065531
     16          6           0       -2.766392   -1.602512   -0.803037
     17          6           0       -2.706505   -2.877871   -1.373538
     18          6           0       -3.621006   -3.856694   -0.999804
     19          6           0       -4.605235   -3.567433   -0.059601
     20          6           0       -4.668467   -2.300159    0.511575
     21          6           0       -3.754046   -1.319049    0.145572
     22          6           0       -2.226996    1.278893   -0.994052
     23          6           0       -1.582323    2.314587   -0.313641
     24          6           0       -2.172590    3.575224   -0.251325
     25          6           0       -3.395471    3.814335   -0.866632
     26          6           0       -4.038135    2.785934   -1.550474
     27          6           0       -3.457555    1.526651   -1.619372
     28          1           0       -0.097598   -1.823110   -0.059760
     29          1           0        3.988869   -0.724622   -2.413185
     30          1           0        5.816481   -2.322559   -2.050246
     31          1           0        5.606726   -4.090503   -0.324729
     32          1           0        3.541869   -4.240934    1.035387
     33          1           0        1.706325   -2.666418    0.684471
     34          1           0        0.973203    2.107057   -2.699463
     35          1           0        1.957089    4.361682   -2.451146
     36          1           0        3.639695    4.789583   -0.685143
     37          1           0        4.327664    2.961075    0.836450
     38          1           0        3.343996    0.720215    0.602948
     39          1           0       -1.942047   -3.105033   -2.106371
     40          1           0       -3.569172   -4.840983   -1.447103
     41          1           0       -5.321003   -4.327571    0.226145
     42          1           0       -5.432924   -2.072997    1.244409
     43          1           0       -3.814660   -0.337598    0.596853
     44          1           0       -0.639562    2.148265    0.188952
     45          1           0       -1.669530    4.368858    0.286311
     46          1           0       -3.849181    4.795937   -0.812140
     47          1           0       -4.993009    2.962579   -2.029471
     48          1           0       -3.975517    0.734395   -2.146189
     49          6           0       -0.010785   -0.312570    1.374586
     50          8           0       -0.448336   -1.283482    2.230275
     51          6           0        0.247456    0.710022    3.334565
     52          6           0       -0.414574   -0.683804    3.554495
     53          1           0       -1.441296   -0.616887    3.916751
     54          1           0        0.159431   -1.341013    4.205479
     55          7           0        0.370751    0.794031    1.855830
     56          6           0       -0.632851    1.852207    3.842967
     57          1           0       -0.764011    1.780514    4.925626
     58          1           0       -0.173537    2.815436    3.618469
     59          1           0       -1.618656    1.825123    3.375043
     60          6           0        1.646074    0.784784    3.953128
     61          1           0        2.127496    1.726877    3.690231
     62          1           0        1.586505    0.721166    5.042688
     63          1           0        2.276520   -0.034110    3.598923
 ---------------------------------------------------------------------

 SCF Done:  E(RB3LYP) =  -1973.83347914     A.U. after   15 cycles

      1  P    Isotropic =   218.3847   Anisotropy =    99.8256

      2  P    Isotropic =   221.0767   Anisotropy =    79.2307

      3  C    Isotropic =   135.4371   Anisotropy =    15.4197

      4  C    Isotropic =    31.8078   Anisotropy =   196.3820

      5  C    Isotropic =    47.8625   Anisotropy =   185.5868

      6  C    Isotropic =    49.6061   Anisotropy =   184.2360

      7  C    Isotropic =    52.9995   Anisotropy =   180.9215

      8  C    Isotropic =    50.1144   Anisotropy =   182.7335

      9  C    Isotropic =    50.2279   Anisotropy =   182.3094

     10  C    Isotropic =    37.1231   Anisotropy =   198.6313

     11  C    Isotropic =    38.8811   Anisotropy =   186.9251

     12  C    Isotropic =    51.2598   Anisotropy =   182.4157

     13  C    Isotropic =    48.4196   Anisotropy =   188.7485

     14  C    Isotropic =    51.0244   Anisotropy =   181.8077

     15  C    Isotropic =    36.7925   Anisotropy =   195.9978

     16  C    Isotropic =    31.6701   Anisotropy =   206.9053

     17  C    Isotropic =    43.1268   Anisotropy =   181.2510

     18  C    Isotropic =    49.3463   Anisotropy =   184.1917

     19  C    Isotropic =    49.0497   Anisotropy =   187.5969

     20  C    Isotropic =    49.7953   Anisotropy =   183.4259

     21  C    Isotropic =    43.2149   Anisotropy =   189.4544

     22  C    Isotropic =    37.8221   Anisotropy =   182.9156

     23  C    Isotropic =    44.3746   Anisotropy =   200.1620

     24  C    Isotropic =    50.5110   Anisotropy =   185.0992

     25  C    Isotropic =    52.5494   Anisotropy =   181.5396

     26  C    Isotropic =    51.0634   Anisotropy =   182.3583

     27  C    Isotropic =    48.0163   Anisotropy =   184.4009

     28  H    Isotropic =    28.5533   Anisotropy =     2.8291

     29  H    Isotropic =    24.6066   Anisotropy =    11.8768

     30  H    Isotropic =    24.4420   Anisotropy =     5.4832

     31  H    Isotropic =    24.5605   Anisotropy =     3.9430

     32  H    Isotropic =    24.4073   Anisotropy =     6.8065

     33  H    Isotropic =    24.1954   Anisotropy =    10.8680

     34  H    Isotropic =    23.8411   Anisotropy =     7.8582

     35  H    Isotropic =    24.4100   Anisotropy =     5.1997

     36  H    Isotropic =    24.2872   Anisotropy =     3.8813

     37  H    Isotropic =    24.4666   Anisotropy =     6.2531

     38  H    Isotropic =    24.2995   Anisotropy =    10.0145

     39  H    Isotropic =    23.7451   Anisotropy =     9.3062

     40  H    Isotropic =    24.2038   Anisotropy =     5.4383

     41  H    Isotropic =    24.3142   Anisotropy =     4.0982

     42  H    Isotropic =    24.4531   Anisotropy =     6.5634

     43  H    Isotropic =    24.2138   Anisotropy =    11.5125

     44  H    Isotropic =    23.8797   Anisotropy =     6.3809

     45  H    Isotropic =    24.7103   Anisotropy =     7.7231

     46  H    Isotropic =    24.5840   Anisotropy =     4.4207

     47  H    Isotropic =    24.4570   Anisotropy =     5.0982

     48  H    Isotropic =    24.4870   Anisotropy =    11.2043

     49  C    Isotropic =    14.9730   Anisotropy =    68.7871

     50  O    Isotropic =   123.1319   Anisotropy =   214.3020

     51  C    Isotropic =   106.1882   Anisotropy =    61.0823

     52  C    Isotropic =   100.3952   Anisotropy =    59.0908

     53  H    Isotropic =    28.3377   Anisotropy =     5.5519

     54  H    Isotropic =    28.1364   Anisotropy =     5.9055

     55  N    Isotropic =   -19.1069   Anisotropy =   259.5044

     56  C    Isotropic =   152.4772   Anisotropy =    40.8771

     57  H    Isotropic =    30.9839   Anisotropy =     9.7544

     58  H    Isotropic =    30.6431   Anisotropy =     6.3982

     59  H    Isotropic =    31.1120   Anisotropy =     5.7563

     60  C    Isotropic =   152.1935   Anisotropy =    40.8282

     61  H    Isotropic =    30.6414   Anisotropy =     6.4865

     62  H    Isotropic =    30.9865   Anisotropy =     9.7739

     63  H    Isotropic =    30.9090   Anisotropy =     5.5291

 The electronic state is 1-A.
 Alpha  occ. eigenvalues --  -77.05720 -77.05225 -19.16535 -14.29391 -10.26622
 Alpha  occ. eigenvalues --  -10.23006 -10.21966 -10.20591 -10.18464 -10.18435
 Alpha  occ. eigenvalues --  -10.18389 -10.18148 -10.18124 -10.18059 -10.17950
 Alpha  occ. eigenvalues --  -10.17916 -10.17840 -10.17723 -10.17693 -10.17657
 Alpha  occ. eigenvalues --  -10.17580 -10.17566 -10.17521 -10.17515 -10.17499
 Alpha  occ. eigenvalues --  -10.17426 -10.17361 -10.17342 -10.17338 -10.17168
 Alpha  occ. eigenvalues --  -10.17104 -10.16840 -10.16612 -10.16545  -6.54224
 Alpha  occ. eigenvalues --   -6.53761  -4.70406  -4.70316  -4.69940  -4.69862
 Alpha  occ. eigenvalues --   -4.69856  -4.69397  -1.08910  -0.90949  -0.86309
 Alpha  occ. eigenvalues --   -0.86053  -0.85569  -0.85474  -0.81574  -0.77700
 Alpha  occ. eigenvalues --   -0.76402  -0.75303  -0.75001  -0.74867  -0.74584
 Alpha  occ. eigenvalues --   -0.74428  -0.74371  -0.74040  -0.69848  -0.69714
 Alpha  occ. eigenvalues --   -0.64125  -0.63296  -0.61169  -0.60754  -0.60699
 Alpha  occ. eigenvalues --   -0.60384  -0.59931  -0.59867  -0.58909  -0.57847
 Alpha  occ. eigenvalues --   -0.56182  -0.54215  -0.52264  -0.51948  -0.51004
 Alpha  occ. eigenvalues --   -0.50046  -0.49560  -0.48204  -0.46527  -0.45953
 Alpha  occ. eigenvalues --   -0.45807  -0.45631  -0.45483  -0.45324  -0.45132
 Alpha  occ. eigenvalues --   -0.44695  -0.44522  -0.43874  -0.42836  -0.42798
 Alpha  occ. eigenvalues --   -0.42528  -0.42401  -0.42231  -0.41604  -0.41188
 Alpha  occ. eigenvalues --   -0.40789  -0.40370  -0.39596  -0.38706  -0.37674
 Alpha  occ. eigenvalues --   -0.37579  -0.37298  -0.37167  -0.36848  -0.36562
 Alpha  occ. eigenvalues --   -0.35751  -0.35457  -0.35158  -0.34875  -0.34686
 Alpha  occ. eigenvalues --   -0.34497  -0.33713  -0.32790  -0.32138  -0.31686
 Alpha  occ. eigenvalues --   -0.28334  -0.27807  -0.27074  -0.26763  -0.26333
 Alpha  occ. eigenvalues --   -0.26063  -0.26009  -0.25694  -0.25346  -0.24852
 Alpha  occ. eigenvalues --   -0.22055  -0.18793
 Alpha virt. eigenvalues --   -0.03570  -0.03185  -0.02568  -0.02117  -0.02000
 Alpha virt. eigenvalues --   -0.01760  -0.01193  -0.00366   0.00690   0.02157
 Alpha virt. eigenvalues --    0.03262   0.04345   0.04659   0.04932   0.05199

 Mulliken charges:
               1
     1  P    0.133280
     2  P    0.148369
     3  C   -0.158808
     4  C    0.081982
     5  C   -0.177190
     6  C   -0.110199
     7  C   -0.106208
     8  C   -0.141244
     9  C   -0.182936
    10  C    0.028727
    11  C   -0.156090
    12  C   -0.115376
    13  C   -0.090431
    14  C   -0.128252
    15  C   -0.107893
    16  C    0.055139
    17  C   -0.198899
    18  C   -0.096411
    19  C   -0.101177
    20  C   -0.112456
    21  C   -0.175688
    22  C    0.053032
    23  C   -0.173636
    24  C   -0.143754
    25  C   -0.108024
    26  C   -0.106794
    27  C   -0.202956
    28  H    0.131288
    29  H    0.117049
    30  H    0.108024
    31  H    0.106962
    32  H    0.105926
    33  H    0.125258
    34  H    0.121950
    35  H    0.108705
    36  H    0.108459
    37  H    0.103776
    38  H    0.122884
    39  H    0.119421
    40  H    0.110819
    41  H    0.110726
    42  H    0.107217
    43  H    0.137402
    44  H    0.196708
    45  H    0.106848
    46  H    0.105362
    47  H    0.107400
    48  H    0.119789
    49  C    0.184089
    50  O   -0.303066
    51  C    0.266692
    52  C   -0.043089
    53  H    0.092538
    54  H    0.100269
    55  N   -0.313612
    56  C   -0.369808
    57  H    0.105740
    58  H    0.113692
    59  H    0.120180
    60  C   -0.384658
    61  H    0.118669
    62  H    0.106594
    63  H    0.117690
 Sum of Mulliken charges =  -0.00000

 Dipole moment (field-independent basis, Debye):
    X=             -0.2929    Y=              0.0454    Z=              3.1858  Tot=              3.1995
 Quadrupole moment (field-independent basis, Debye-Ang):
   XX=           -202.6439   YY=           -201.9432   ZZ=           -209.3045
   XY=              2.0093   XZ=             -0.1537   YZ=             -1.9922

 Summary of Natural Population Analysis:

                                       Natural Population
                Natural  -----------------------------------------------
    Atom  No    Charge         Core      Valence    Rydberg      Total
 -----------------------------------------------------------------------
      P    1    0.85884      9.99805     4.11086    0.03226    14.14116
      P    2    0.87157      9.99807     4.09846    0.03190    14.12843
      C    3   -0.82883      1.99918     4.79380    0.03585     6.82883
      C    4   -0.32326      1.99900     4.29296    0.03129     6.32326
      C    5   -0.20157      1.99909     4.18285    0.01964     6.20157
      C    6   -0.19586      1.99918     4.17805    0.01863     6.19586
      C    7   -0.21491      1.99919     4.19626    0.01947     6.21491
      C    8   -0.19638      1.99919     4.17840    0.01880     6.19638
      C    9   -0.22033      1.99908     4.20176    0.01949     6.22033
      C   10   -0.33923      1.99898     4.30775    0.03251     6.33923
      C   11   -0.18510      1.99909     4.16627    0.01973     6.18510
      C   12   -0.20922      1.99918     4.19136    0.01868     6.20922
      C   13   -0.19412      1.99919     4.17587    0.01905     6.19412
      C   14   -0.20833      1.99918     4.19027    0.01888     6.20833
      C   15   -0.16859      1.99907     4.14942    0.02009     6.16859
      C   16   -0.33486      1.99899     4.30447    0.03141     6.33486
      C   17   -0.19694      1.99910     4.17776    0.02008     6.19694
      C   18   -0.20302      1.99919     4.18441    0.01943     6.20302
      C   19   -0.19886      1.99919     4.18055    0.01911     6.19886
      C   20   -0.20253      1.99919     4.18431    0.01904     6.20253
      C   21   -0.19136      1.99908     4.17224    0.02004     6.19136
      C   22   -0.34250      1.99898     4.31218    0.03134     6.34250
      C   23   -0.21735      1.99908     4.19828    0.01999     6.21735
      C   24   -0.19753      1.99919     4.17917    0.01918     6.19753
      C   25   -0.21259      1.99919     4.19390    0.01951     6.21259
      C   26   -0.20225      1.99918     4.18438    0.01868     6.20225
      C   27   -0.20519      1.99909     4.18656    0.01954     6.20519
      H   28    0.27587      0.00000     0.72181    0.00232     0.72413
      H   29    0.21243      0.00000     0.78584    0.00173     0.78757
      H   30    0.20855      0.00000     0.79019    0.00127     0.79145
      H   31    0.20762      0.00000     0.79121    0.00117     0.79238
      H   32    0.20694      0.00000     0.79179    0.00127     0.79306
      H   33    0.20557      0.00000     0.79252    0.00191     0.79443
      H   34    0.21844      0.00000     0.77974    0.00182     0.78156
      H   35    0.20995      0.00000     0.78878    0.00127     0.79005
      H   36    0.20707      0.00000     0.79175    0.00118     0.79293
      H   37    0.20654      0.00000     0.79212    0.00134     0.79346
      H   38    0.21348      0.00000     0.78412    0.00240     0.78652
      H   39    0.21606      0.00000     0.78239    0.00155     0.78394
      H   40    0.20978      0.00000     0.78893    0.00129     0.79022
      H   41    0.20838      0.00000     0.79043    0.00119     0.79162
      H   42    0.20732      0.00000     0.79129    0.00140     0.79268
      H   43    0.21419      0.00000     0.78358    0.00223     0.78581
      H   44    0.24117      0.00000     0.75632    0.00251     0.75883
      H   45    0.20784      0.00000     0.79084    0.00131     0.79216
      H   46    0.20651      0.00000     0.79232    0.00117     0.79349
      H   47    0.20800      0.00000     0.79075    0.00125     0.79200
      H   48    0.21177      0.00000     0.78636    0.00187     0.78823
      C   49    0.51745      1.99908     3.45147    0.03200     5.48255
      O   50   -0.48296      1.99977     6.46130    0.02189     8.48296
      C   51    0.06162      1.99944     3.92029    0.01866     5.93838
      C   52   -0.08789      1.99921     4.07219    0.01649     6.08789
      H   53    0.18087      0.00000     0.81752    0.00161     0.81913
      H   54    0.18470      0.00000     0.81385    0.00146     0.81530
      N   55   -0.48434      1.99925     5.45186    0.03324     7.48434
      C   56   -0.58890      1.99937     4.57733    0.01220     6.58890
      H   57    0.20016      0.00000     0.79889    0.00096     0.79984
      H   58    0.21387      0.00000     0.78494    0.00119     0.78613
      H   59    0.21049      0.00000     0.78841    0.00109     0.78951
      C   60   -0.59081      1.99937     4.57930    0.01213     6.59081
      H   61    0.21500      0.00000     0.78376    0.00124     0.78500
      H   62    0.20043      0.00000     0.79856    0.00100     0.79957
      H   63    0.20712      0.00000     0.79182    0.00106     0.79288
 =======================================================================
   * Total *   -0.00000     83.96963   169.22711    0.80326   254.00000

 1\1\GINC-G8NODEC2\SP\RB3LYP\def2TZVP\C30H29N1O1P2\ROOT\24-Jan-2025\0\\
 # nmr=giao b3lyp/def2TZVP pop=nbo scfcyc=200\\MS-34 SPE NoRh\\0,1\P,0,
 -0.09,1.378,0.128\P,0,0.189,-1.426,0.161\C,0,-1.02,-0.11,0.819\C,0,-0.
 288,2.743,1.349\C,0,0.283,3.983,1.035\C,0,0.217,5.036,1.937\C,0,-0.416
 ,4.866,3.165\C,0,-0.986,3.639,3.483\C,0,-0.922,2.579,2.582\C,0,-0.863,
 2.006,-1.415\C,0,-0.289,1.667,-2.644\C,0,-0.841,2.141,-3.829\C,0,-1.96
 1,2.964,-3.793\C,0,-2.532,3.31,-2.571\C,0,-1.99,2.834,-1.386\C,0,0.246
 ,-2.7,1.489\C,0,1.14,-2.519,2.549\C,0,1.162,-3.419,3.609\C,0,0.297,-4.

 Normal termination of Gaussian 16 at Fri Jan 24 15:57:07 2025.
