 Gaussian 16, Revision B.01,
 Gaussian 16:  ES64L-G16RevB.01 20-Dec-2017

 --------------------------------------------
 # nmr=giao b3lyp/def2TZVP pop=nbo scfcyc=200
 --------------------------------------------

 --------------
 MS-39 SPE NoRh
 --------------
 Symbolic Z-matrix:
 Charge =  0 Multiplicity = 1

                         Standard orientation:
 ---------------------------------------------------------------------
 Center     Atomic      Atomic             Coordinates (Angstroms)
 Number     Number       Type             X           Y           Z
 ---------------------------------------------------------------------
      1         15           0       -0.060003    0.427019    1.736064
      2         15           0       -2.569630   -0.266573    0.681074
      3          6           0        0.545229    2.089429    1.237221
      4          6           0        1.611278    2.231734    0.339243
      5          6           0        2.048655    3.500610   -0.023693
      6          6           0        1.430107    4.633482    0.499398
      7          6           0        0.365672    4.497863    1.383859
      8          6           0       -0.076318    3.231591    1.750788
      9          1           0        2.084767    1.352321   -0.077952
     10          1           0        2.874889    3.603774   -0.716356
     11          1           0        1.776953    5.619411    0.215931
     12          1           0       -0.119801    5.376763    1.790047
     13          1           0       -0.913602    3.127457    2.429813
     14          6           0        1.410218   -0.512067    2.333053
     15          6           0        1.334697   -1.904518    2.449773
     16          6           0        2.399980   -2.627387    2.971876
     17          6           0        3.546770   -1.966697    3.404500
     18          6           0        3.619733   -0.582341    3.315654
     19          6           0        2.558816    0.144955    2.783685
     20          1           0        0.442205   -2.436866    2.142077
     21          1           0        2.332838   -3.704876    3.045112
     22          1           0        4.375360   -2.530595    3.814939
     23          1           0        4.505290   -0.061375    3.656324
     24          1           0        2.635340    1.221856    2.716161
     25          6           0       -3.430607    1.032987   -0.299254
     26          6           0       -4.814761    0.929246   -0.487263
     27          6           0       -5.517234    1.948196   -1.119954
     28          6           0       -4.851777    3.084974   -1.567524
     29          6           0       -3.480795    3.202375   -1.369079
     30          6           0       -2.773644    2.188544   -0.731817
     31          1           0       -5.349494    0.050701   -0.150781
     32          1           0       -6.585456    1.849669   -1.265947
     33          1           0       -5.399448    3.874961   -2.064370
     34          1           0       -2.955707    4.087243   -1.707803
     35          1           0       -1.712644    2.317799   -0.567124
     36          6           0       -3.301118   -1.874388    0.149337
     37          6           0       -3.340870   -2.930747    1.064987
     38          6           0       -3.793825   -4.186423    0.673446
     39          6           0       -4.210961   -4.398532   -0.635956
     40          6           0       -4.169346   -3.354074   -1.555716
     41          6           0       -3.714563   -2.098332   -1.169621
     42          1           0       -3.013416   -2.771596    2.084902
     43          1           0       -3.824859   -4.995458    1.391752
     44          1           0       -4.568208   -5.374462   -0.941100
     45          1           0       -4.489947   -3.516307   -2.577225
     46          1           0       -3.692643   -1.295013   -1.894728
     47          7           0        1.118896   -0.618524   -1.396097
     48          1           0        1.172234   -1.612613   -1.191977
     49          7           0        5.391276   -1.085571   -2.184613
     50          6           0       -0.745613   -0.430579    0.197391
     51          1           0       -0.583856   -1.492922    0.405485
     52          6           0       -0.246590   -0.144070   -1.215834
     53          1           0       -0.257439    0.926955   -1.420549
     54          1           0       -0.954326   -0.601584   -1.927955
     55          6           0        1.640076   -0.380855   -2.748859
     56          1           0        0.952144   -0.765738   -3.517536
     57          1           0        1.698122    0.703101   -2.899442
     58          6           0        3.017003   -1.008619   -2.956164
     59          1           0        2.968570   -2.084394   -2.758734
     60          1           0        3.270963   -0.899949   -4.012537
     61          6           0        4.110183   -0.397532   -2.077727
     62          1           0        3.793035   -0.458402   -1.035370
     63          1           0        4.209885    0.680202   -2.318891
     64          6           0        6.290772   -0.709575   -1.102087
     65          1           0        5.822939   -0.922897   -0.139891
     66          1           0        6.568674    0.359876   -1.121942
     67          1           0        7.209655   -1.294152   -1.166954
     68          6           0        6.033167   -0.908840   -3.480891
     69          1           0        5.405270   -1.300321   -4.281099
     70          1           0        6.971546   -1.463925   -3.501394
     71          1           0        6.257463    0.150853   -3.703593
 ---------------------------------------------------------------------

 SCF Done:  E(RB3LYP) =  -1995.67208731     A.U. after   14 cycles

      1  P    Isotropic =   224.3396   Anisotropy =    90.9250

      2  P    Isotropic =   219.2937   Anisotropy =    96.2218

      3  C    Isotropic =    40.3123   Anisotropy =   197.9598

      4  C    Isotropic =    36.1166   Anisotropy =   197.4882

      5  C    Isotropic =    49.6315   Anisotropy =   183.5773

      6  C    Isotropic =    47.5847   Anisotropy =   190.2019

      7  C    Isotropic =    49.6499   Anisotropy =   184.3484

      8  C    Isotropic =    37.9939   Anisotropy =   184.5684

      9  H    Isotropic =    23.0822   Anisotropy =     8.0097

     10  H    Isotropic =    24.1231   Anisotropy =     7.2540

     11  H    Isotropic =    24.0483   Anisotropy =     4.4221

     12  H    Isotropic =    24.0918   Anisotropy =     4.8731

     13  H    Isotropic =    23.6352   Anisotropy =     8.1089

     14  C    Isotropic =    27.8374   Anisotropy =   202.2646

     15  C    Isotropic =    50.8954   Anisotropy =   182.8318

     16  C    Isotropic =    50.4746   Anisotropy =   182.7586

     17  C    Isotropic =    54.0915   Anisotropy =   179.3955

     18  C    Isotropic =    49.9657   Anisotropy =   183.8025

     19  C    Isotropic =    51.1599   Anisotropy =   181.8065

     20  H    Isotropic =    24.2509   Anisotropy =    10.2101

     21  H    Isotropic =    24.3926   Anisotropy =     6.0068

     22  H    Isotropic =    24.6411   Anisotropy =     3.7243

     23  H    Isotropic =    24.5826   Anisotropy =     5.8783

     24  H    Isotropic =    24.8821   Anisotropy =    12.7065

     25  C    Isotropic =    35.8445   Anisotropy =   188.4805

     26  C    Isotropic =    48.6775   Anisotropy =   183.2053

     27  C    Isotropic =    49.8776   Anisotropy =   183.1952

     28  C    Isotropic =    53.4531   Anisotropy =   180.1552

     29  C    Isotropic =    50.7383   Anisotropy =   182.6410

     30  C    Isotropic =    48.6487   Anisotropy =   181.0181

     31  H    Isotropic =    24.5414   Anisotropy =    11.7660

     32  H    Isotropic =    24.4972   Anisotropy =     5.4669

     33  H    Isotropic =    24.6878   Anisotropy =     4.5454

     34  H    Isotropic =    24.8334   Anisotropy =     8.3830

     35  H    Isotropic =    25.2186   Anisotropy =     7.7320

     36  C    Isotropic =    31.2362   Anisotropy =   210.1745

     37  C    Isotropic =    42.2943   Anisotropy =   179.9646

     38  C    Isotropic =    49.1900   Anisotropy =   184.5945

     39  C    Isotropic =    49.1101   Anisotropy =   187.8962

     40  C    Isotropic =    49.3070   Anisotropy =   184.0477

     41  C    Isotropic =    43.4291   Anisotropy =   187.2546

     42  H    Isotropic =    23.5746   Anisotropy =     9.1389

     43  H    Isotropic =    24.0837   Anisotropy =     5.3979

     44  H    Isotropic =    24.2377   Anisotropy =     4.1674

     45  H    Isotropic =    24.3311   Anisotropy =     6.3385

     46  H    Isotropic =    23.9510   Anisotropy =    11.1934

     47  N    Isotropic =   187.4289   Anisotropy =    47.3315

     48  H    Isotropic =    32.8019   Anisotropy =     6.2108

     49  N    Isotropic =   210.8748   Anisotropy =    46.3504

     50  C    Isotropic =   125.5831   Anisotropy =    17.3136

     51  H    Isotropic =    29.7340   Anisotropy =     5.8434

     52  C    Isotropic =   132.6690   Anisotropy =    50.0408

     53  H    Isotropic =    29.1078   Anisotropy =     4.1849

     54  H    Isotropic =    28.8006   Anisotropy =     8.2122

     55  C    Isotropic =   130.5228   Anisotropy =    46.9385

     56  H    Isotropic =    29.2541   Anisotropy =     7.4424

     57  H    Isotropic =    29.5323   Anisotropy =     5.0160

     58  C    Isotropic =   148.7975   Anisotropy =    20.2226

     59  H    Isotropic =    30.8609   Anisotropy =     4.4655

     60  H    Isotropic =    30.2179   Anisotropy =     7.8862

     61  C    Isotropic =   121.7602   Anisotropy =    62.8637

     62  H    Isotropic =    29.2167   Anisotropy =    11.2194

     63  H    Isotropic =    30.2050   Anisotropy =     4.0678

     64  C    Isotropic =   133.8008   Anisotropy =    73.4906

     65  H    Isotropic =    29.8348   Anisotropy =     8.5276

     66  H    Isotropic =    30.0780   Anisotropy =     7.1100

     67  H    Isotropic =    29.7515   Anisotropy =     9.6448

     68  C    Isotropic =   139.3514   Anisotropy =    66.4498

     69  H    Isotropic =    29.3554   Anisotropy =     8.7901

     70  H    Isotropic =    29.8077   Anisotropy =    10.4491

     71  H    Isotropic =    30.5013   Anisotropy =     8.9006

 The electronic state is 1-A.
 Alpha  occ. eigenvalues --  -77.05048 -77.04574 -14.30620 -14.30585 -10.20325
 Alpha  occ. eigenvalues --  -10.19723 -10.19589 -10.18798 -10.18700 -10.18572
 Alpha  occ. eigenvalues --  -10.18510 -10.18411 -10.18317 -10.18300 -10.18281
 Alpha  occ. eigenvalues --  -10.18267 -10.18228 -10.18172 -10.18152 -10.18130
 Alpha  occ. eigenvalues --  -10.18067 -10.17989 -10.17929 -10.17748 -10.17610
 Alpha  occ. eigenvalues --  -10.17590 -10.17549 -10.17527 -10.17486 -10.17385
 Alpha  occ. eigenvalues --  -10.17322 -10.17260 -10.17110 -10.17046 -10.16900
 Alpha  occ. eigenvalues --   -6.53594  -6.53149  -4.69747  -4.69713  -4.69302
 Alpha  occ. eigenvalues --   -4.69267  -4.69229  -4.68785  -0.92120  -0.91248
 Alpha  occ. eigenvalues --   -0.86488  -0.86318  -0.85767  -0.85480  -0.79286
 Alpha  occ. eigenvalues --   -0.77064  -0.76475  -0.75495  -0.75308  -0.74987
 Alpha  occ. eigenvalues --   -0.74799  -0.74628  -0.74367  -0.73832  -0.70441
 Alpha  occ. eigenvalues --   -0.68644  -0.65113  -0.64076  -0.61558  -0.61291
 Alpha  occ. eigenvalues --   -0.61124  -0.60953  -0.60688  -0.60190  -0.60147
 Alpha  occ. eigenvalues --   -0.59906  -0.57629  -0.56248  -0.55089  -0.52406
 Alpha  occ. eigenvalues --   -0.52036  -0.50482  -0.50217  -0.48834  -0.48544
 Alpha  occ. eigenvalues --   -0.47794  -0.46421  -0.46120  -0.45959  -0.45839
 Alpha  occ. eigenvalues --   -0.45705  -0.45452  -0.45346  -0.45100  -0.44713
 Alpha  occ. eigenvalues --   -0.44606  -0.44260  -0.43034  -0.42777  -0.42583
 Alpha  occ. eigenvalues --   -0.42289  -0.42254  -0.41624  -0.40788  -0.40449
 Alpha  occ. eigenvalues --   -0.39166  -0.39104  -0.38371  -0.38017  -0.37966
 Alpha  occ. eigenvalues --   -0.37532  -0.37371  -0.37264  -0.36883  -0.36752
 Alpha  occ. eigenvalues --   -0.35501  -0.35337  -0.35170  -0.34870  -0.34793
 Alpha  occ. eigenvalues --   -0.34538  -0.33900  -0.33783  -0.32789  -0.32018
 Alpha  occ. eigenvalues --   -0.31242  -0.27913  -0.26927  -0.26735  -0.26596
 Alpha  occ. eigenvalues --   -0.26331  -0.25874  -0.25613  -0.25505  -0.23638
 Alpha  occ. eigenvalues --   -0.21707  -0.21638  -0.18424
 Alpha virt. eigenvalues --   -0.03723  -0.03224  -0.02528  -0.02417  -0.01921
 Alpha virt. eigenvalues --   -0.01515  -0.01384  -0.00801   0.01760   0.02828
 Alpha virt. eigenvalues --    0.03350   0.03942   0.04442   0.04921   0.05048

 Mulliken charges:
               1
     1  P    0.152576
     2  P    0.159683
     3  C   -0.045626
     4  C   -0.196242
     5  C   -0.139115
     6  C   -0.085897
     7  C   -0.105588
     8  C   -0.136916
     9  H    0.235324
    10  H    0.107924
    11  H    0.111437
    12  H    0.111839
    13  H    0.116837
    14  C    0.116477
    15  C   -0.229472
    16  C   -0.116020
    17  C   -0.110996
    18  C   -0.127634
    19  C   -0.181856
    20  H    0.116693
    21  H    0.104202
    22  H    0.105450
    23  H    0.105544
    24  H    0.140171
    25  C    0.060031
    26  C   -0.199163
    27  C   -0.113534
    28  C   -0.104294
    29  C   -0.160716
    30  C   -0.154762
    31  H    0.131110
    32  H    0.108223
    33  H    0.106376
    34  H    0.106526
    35  H    0.159735
    36  C    0.051475
    37  C   -0.196035
    38  C   -0.100499
    39  C   -0.103060
    40  C   -0.108220
    41  C   -0.197252
    42  H    0.120738
    43  H    0.111475
    44  H    0.111671
    45  H    0.109600
    46  H    0.140588
    47  N   -0.359443
    48  H    0.173501
    49  N   -0.150408
    50  C   -0.163991
    51  H    0.092367
    52  C   -0.142980
    53  H    0.111751
    54  H    0.097886
    55  C   -0.082428
    56  H    0.081662
    57  H    0.093283
    58  C   -0.169211
    59  H    0.092347
    60  H    0.088726
    61  C   -0.137242
    62  H    0.128661
    63  H    0.052978
    64  C   -0.263373
    65  H    0.128247
    66  H    0.080238
    67  H    0.109819
    68  C   -0.259562
    69  H    0.115706
    70  H    0.113415
    71  H    0.079248
 Sum of Mulliken charges =  -0.00000

 Dipole moment (field-independent basis, Debye):
    X=              0.6778    Y=             -0.3004    Z=             -2.7749  Tot=              2.8723
 Quadrupole moment (field-independent basis, Debye-Ang):
   XX=           -218.8334   YY=           -206.9556   ZZ=           -228.3674
   XY=              6.3862   XZ=              4.9308   YZ=             -3.0352

 Summary of Natural Population Analysis:

                                       Natural Population
                Natural  -----------------------------------------------
    Atom  No    Charge         Core      Valence    Rydberg      Total
 -----------------------------------------------------------------------
      P    1    0.83310      9.99802     4.13590    0.03299    14.16690
      P    2    0.84840      9.99806     4.12157    0.03197    14.15160
      C    3   -0.34970      1.99900     4.31801    0.03270     6.34970
      C    4   -0.20062      1.99908     4.17978    0.02177     6.20062
      C    5   -0.21196      1.99918     4.19351    0.01927     6.21196
      C    6   -0.19434      1.99919     4.17618    0.01896     6.19434
      C    7   -0.21091      1.99918     4.19239    0.01934     6.21091
      C    8   -0.18655      1.99910     4.16700    0.02045     6.18655
      H    9    0.23394      0.00000     0.76328    0.00277     0.76606
      H   10    0.20817      0.00000     0.79039    0.00144     0.79183
      H   11    0.20853      0.00000     0.79029    0.00118     0.79147
      H   12    0.21102      0.00000     0.78773    0.00126     0.78898
      H   13    0.22190      0.00000     0.77652    0.00157     0.77810
      C   14   -0.30857      1.99898     4.27949    0.03009     6.30857
      C   15   -0.21573      1.99908     4.19707    0.01958     6.21573
      C   16   -0.19609      1.99919     4.17804    0.01887     6.19609
      C   17   -0.21969      1.99918     4.20074    0.01977     6.21969
      C   18   -0.19574      1.99918     4.17761    0.01895     6.19574
      C   19   -0.21276      1.99908     4.19388    0.01980     6.21276
      H   20    0.19833      0.00000     0.79962    0.00205     0.80167
      H   21    0.20675      0.00000     0.79195    0.00130     0.79325
      H   22    0.20696      0.00000     0.79184    0.00119     0.79304
      H   23    0.20669      0.00000     0.79200    0.00131     0.79331
      H   24    0.21425      0.00000     0.78400    0.00175     0.78575
      C   25   -0.32949      1.99899     4.29953    0.03097     6.32949
      C   26   -0.20948      1.99909     4.19079    0.01960     6.20948
      C   27   -0.19671      1.99918     4.17892    0.01860     6.19671
      C   28   -0.21604      1.99919     4.19731    0.01954     6.21604
      C   29   -0.19529      1.99918     4.17756    0.01855     6.19529
      C   30   -0.21620      1.99908     4.19736    0.01976     6.21620
      H   31    0.21357      0.00000     0.78464    0.00179     0.78643
      H   32    0.20812      0.00000     0.79061    0.00127     0.79188
      H   33    0.20744      0.00000     0.79138    0.00118     0.79256
      H   34    0.20837      0.00000     0.79035    0.00128     0.79163
      H   35    0.21097      0.00000     0.78697    0.00206     0.78903
      C   36   -0.33202      1.99900     4.30038    0.03264     6.33202
      C   37   -0.19977      1.99910     4.18024    0.02043     6.19977
      C   38   -0.20448      1.99918     4.18592    0.01938     6.20448
      C   39   -0.20064      1.99919     4.18230    0.01915     6.20064
      C   40   -0.20450      1.99919     4.18630    0.01901     6.20450
      C   41   -0.20092      1.99908     4.18167    0.02017     6.20092
      H   42    0.21672      0.00000     0.78171    0.00157     0.78328
      H   43    0.21001      0.00000     0.78873    0.00126     0.78999
      H   44    0.20891      0.00000     0.78991    0.00117     0.79109
      H   45    0.20814      0.00000     0.79049    0.00136     0.79186
      H   46    0.21386      0.00000     0.78378    0.00236     0.78614
      N   47   -0.61328      1.99953     5.58679    0.02696     7.61328
      H   48    0.34674      0.00000     0.64988    0.00337     0.65326
      N   49   -0.41226      1.99955     5.38468    0.02803     7.41226
      C   50   -0.75632      1.99938     4.72188    0.03506     6.75632
      H   51    0.24598      0.00000     0.75199    0.00203     0.75402
      C   52   -0.22995      1.99931     4.21095    0.01970     6.22995
      H   53    0.19498      0.00000     0.80225    0.00277     0.80502
      H   54    0.16856      0.00000     0.82724    0.00420     0.83144
      C   55   -0.19836      1.99938     4.18501    0.01397     6.19836
      H   56    0.15994      0.00000     0.83703    0.00303     0.84006
      H   57    0.17907      0.00000     0.81891    0.00202     0.82093
      C   58   -0.39478      1.99940     4.38031    0.01507     6.39478
      H   59    0.19872      0.00000     0.79927    0.00202     0.80128
      H   60    0.19935      0.00000     0.79920    0.00145     0.80065
      C   61   -0.21324      1.99935     4.19696    0.01693     6.21324
      H   62    0.20434      0.00000     0.79280    0.00286     0.79566
      H   63    0.14179      0.00000     0.85072    0.00749     0.85821
      C   64   -0.39788      1.99939     4.38781    0.01069     6.39788
      H   65    0.19885      0.00000     0.79965    0.00149     0.80115
      H   66    0.15312      0.00000     0.84215    0.00474     0.84688
      H   67    0.19174      0.00000     0.80669    0.00157     0.80826
      C   68   -0.40434      1.99939     4.39397    0.01098     6.40434
      H   69    0.19279      0.00000     0.80557    0.00164     0.80721
      H   70    0.19498      0.00000     0.80348    0.00154     0.80502
      H   71    0.15351      0.00000     0.84150    0.00499     0.84649
 =======================================================================
   * Total *   -0.00000     85.96966   179.19233    0.83801   266.00000

 Normal termination of Gaussian 16 at Fri Jan 24 17:10:07 2025.
