 Gaussian 16, Revision B.01,
 Gaussian 16:  ES64L-G16RevB.01 20-Dec-2017

 --------------------------------------------
 # nmr=giao b3lyp/def2TZVP pop=nbo scfcyc=200
 --------------------------------------------

 --------------
 MS-36 SPE NoRh
 --------------
 Symbolic Z-matrix:
 Charge =  0 Multiplicity = 1

                         Standard orientation:
 ---------------------------------------------------------------------
 Center     Atomic      Atomic             Coordinates (Angstroms)
 Number     Number       Type             X           Y           Z
 ---------------------------------------------------------------------
      1         15           0       -0.154540    1.362470    1.246804
      2         15           0        1.988351   -0.430414    0.961169
      3          6           0       -0.058628    2.897630    0.237404
      4          6           0        0.934322    3.840549    0.519708
      5          1           0        1.634695    3.656029    1.324028
      6          6           0        1.029117    5.008546   -0.231451
      7          1           0        1.800122    5.735116   -0.003756
      8          6           0        0.133177    5.242747   -1.268061
      9          1           0        0.202315    6.153930   -1.850232
     10          6           0       -0.857311    4.306493   -1.556324
     11          1           0       -1.556636    4.488868   -2.362946
     12          6           0       -0.956020    3.138226   -0.810607
     13          1           0       -1.722236    2.409396   -1.040530
     14          6           0       -1.915480    1.195034    1.767771
     15          6           0       -2.725748    2.325094    1.914632
     16          1           0       -2.356438    3.303328    1.637004
     17          6           0       -4.021321    2.201009    2.406976
     18          1           0       -4.639868    3.083994    2.508694
     19          6           0       -4.520501    0.953993    2.762085
     20          1           0       -5.529991    0.859744    3.141501
     21          6           0       -3.714783   -0.173752    2.632715
     22          1           0       -4.094442   -1.148912    2.911016
     23          6           0       -2.418180   -0.053993    2.149216
     24          1           0       -1.805518   -0.944371    2.076903
     25          6           0        0.306977   -0.104550    0.148536
     26          1           0       -0.280789   -0.931713    0.552067
     27          6           0        0.128805   -0.084312   -1.372117
     28          1           0        0.588144    0.809590   -1.790794
     29          1           0        0.677375   -0.946023   -1.786208
     30          6           0        3.378603    0.046502   -0.150921
     31          6           0        3.312452    1.208546   -0.927730
     32          1           0        2.414324    1.810200   -0.948418
     33          6           0        4.409500    1.617914   -1.677340
     34          1           0        4.340048    2.512596   -2.282522
     35          6           0        5.593316    0.885948   -1.646148
     36          1           0        6.446360    1.207012   -2.229155
     37          6           0        5.674819   -0.256787   -0.858181
     38          1           0        6.593895   -0.828386   -0.822071
     39          6           0        4.577599   -0.674546   -0.112993
     40          1           0        4.661273   -1.567580    0.492354
     41          6           0        2.056724   -2.266540    1.112085
     42          6           0        2.343158   -3.086747    0.015071
     43          1           0        2.614049   -2.652318   -0.938849
     44          6           0        2.293802   -4.469525    0.143849
     45          1           0        2.520724   -5.095584   -0.709397
     46          6           0        1.953097   -5.047937    1.363485
     47          1           0        1.918274   -6.126320    1.460674
     48          6           0        1.658879   -4.240727    2.455164
     49          1           0        1.392793   -4.685991    3.406165
     50          6           0        1.709293   -2.855404    2.331012
     51          1           0        1.472269   -2.228726    3.182119
     52          6           0       -1.938570   -1.396237   -1.695419
     53          1           0       -1.400353   -2.141593   -2.299121
     54          1           0       -1.939759   -1.761523   -0.666531
     55          6           0       -3.392318   -1.275354   -2.149445
     56          1           0       -3.424015   -0.854856   -3.173957
     57          1           0       -3.881574   -0.550292   -1.496702
     58          7           0       -4.119521   -2.534152   -2.063640
     59          6           0       -5.561972   -2.321049   -2.021527
     60          1           0       -5.958093   -1.856663   -2.941069
     61          1           0       -6.068783   -3.276944   -1.884283
     62          1           0       -5.819271   -1.679539   -1.176971
     63          6           0       -3.765798   -3.472315   -3.122162
     64          1           0       -4.304832   -4.408983   -2.975378
     65          1           0       -4.011343   -3.089247   -4.128865
     66          1           0       -2.700649   -3.701407   -3.096694
     67          7           0       -1.280051   -0.088700   -1.748029
     68          1           0       -1.374284    0.295553   -2.681675
 ---------------------------------------------------------------------

 SCF Done:  E(RB3LYP) =  -1956.34157642     A.U. after   15 cycles

      1  P    Isotropic =   219.5142   Anisotropy =    92.5002

      2  P    Isotropic =   219.3559   Anisotropy =   104.0459

      3  C    Isotropic =    39.7300   Anisotropy =   198.7311

      4  C    Isotropic =    37.5227   Anisotropy =   185.0109

      5  H    Isotropic =    23.5337   Anisotropy =     8.4436

      6  C    Isotropic =    49.7994   Anisotropy =   183.7260

      7  H    Isotropic =    24.0526   Anisotropy =     5.0664

      8  C    Isotropic =    47.7397   Anisotropy =   190.0540

      9  H    Isotropic =    24.0757   Anisotropy =     4.0895

     10  C    Isotropic =    49.9377   Anisotropy =   183.0582

     11  H    Isotropic =    24.2097   Anisotropy =     6.7481

     12  C    Isotropic =    36.0154   Anisotropy =   196.4060

     13  H    Isotropic =    23.0633   Anisotropy =     9.5597

     14  C    Isotropic =    28.3717   Anisotropy =   200.8719

     15  C    Isotropic =    51.4782   Anisotropy =   180.0844

     16  H    Isotropic =    24.9078   Anisotropy =    12.8597

     17  C    Isotropic =    50.0232   Anisotropy =   182.7303

     18  H    Isotropic =    24.5881   Anisotropy =     5.9429

     19  C    Isotropic =    54.6223   Anisotropy =   178.1149

     20  H    Isotropic =    24.6828   Anisotropy =     3.9489

     21  C    Isotropic =    50.4749   Anisotropy =   183.0458

     22  H    Isotropic =    24.4176   Anisotropy =     6.2130

     23  C    Isotropic =    51.3292   Anisotropy =   184.0552

     24  H    Isotropic =    24.3352   Anisotropy =     9.7057

     25  C    Isotropic =   131.3341   Anisotropy =    29.1238

     26  H    Isotropic =    29.2197   Anisotropy =     3.7988

     27  C    Isotropic =   132.8130   Anisotropy =    49.0936

     28  H    Isotropic =    28.7401   Anisotropy =     5.3344

     29  H    Isotropic =    28.8893   Anisotropy =     6.6032

     30  C    Isotropic =    35.0700   Anisotropy =   190.6870

     31  C    Isotropic =    48.7073   Anisotropy =   180.6457

     32  H    Isotropic =    25.0101   Anisotropy =     7.9594

     33  C    Isotropic =    50.7219   Anisotropy =   182.3223

     34  H    Isotropic =    24.7759   Anisotropy =     8.1335

     35  C    Isotropic =    53.4825   Anisotropy =   179.4581

     36  H    Isotropic =    24.6910   Anisotropy =     4.4499

     37  C    Isotropic =    49.8033   Anisotropy =   183.1961

     38  H    Isotropic =    24.5041   Anisotropy =     5.7289

     39  C    Isotropic =    49.2891   Anisotropy =   182.7883

     40  H    Isotropic =    24.6073   Anisotropy =    12.1521

     41  C    Isotropic =    32.2117   Anisotropy =   210.2432

     42  C    Isotropic =    42.8592   Anisotropy =   186.9086

     43  H    Isotropic =    23.8627   Anisotropy =    10.7157

     44  C    Isotropic =    49.3317   Anisotropy =   184.7674

     45  H    Isotropic =    24.2756   Anisotropy =     6.0869

     46  C    Isotropic =    48.8261   Anisotropy =   188.8412

     47  H    Isotropic =    24.1841   Anisotropy =     4.0681

     48  C    Isotropic =    49.1958   Anisotropy =   184.5873

     49  H    Isotropic =    24.0624   Anisotropy =     5.1885

     50  C    Isotropic =    41.3081   Anisotropy =   180.3886

     51  H    Isotropic =    23.5806   Anisotropy =     8.8026

     52  C    Isotropic =   132.1308   Anisotropy =    44.7081

     53  H    Isotropic =    29.6439   Anisotropy =     7.7118

     54  H    Isotropic =    29.5401   Anisotropy =     5.6064

     55  C    Isotropic =   120.0574   Anisotropy =    66.0065

     56  H    Isotropic =    30.3837   Anisotropy =     3.5899

     57  H    Isotropic =    29.8211   Anisotropy =     7.1775

     58  N    Isotropic =   214.8397   Anisotropy =    42.8732

     59  C    Isotropic =   133.5248   Anisotropy =    75.0197

     60  H    Isotropic =    30.1288   Anisotropy =     9.0372

     61  H    Isotropic =    29.7744   Anisotropy =    10.1106

     62  H    Isotropic =    29.7858   Anisotropy =     7.8354

     63  C    Isotropic =   138.0938   Anisotropy =    68.0943

     64  H    Isotropic =    29.8229   Anisotropy =     9.7166

     65  H    Isotropic =    30.5039   Anisotropy =     8.7696

     66  H    Isotropic =    29.4686   Anisotropy =     7.4124

     67  N    Isotropic =   202.2947   Anisotropy =    51.7222

     68  H    Isotropic =    31.8462   Anisotropy =    12.0036

 The electronic state is 1-A.
 Alpha  occ. eigenvalues --  -77.04836 -77.04403 -14.31071 -14.30716 -10.20411
 Alpha  occ. eigenvalues --  -10.19349 -10.19291 -10.19197 -10.18829 -10.18728
 Alpha  occ. eigenvalues --  -10.18579 -10.18427 -10.18403 -10.18302 -10.18197
 Alpha  occ. eigenvalues --  -10.18168 -10.18156 -10.18073 -10.18044 -10.18035
 Alpha  occ. eigenvalues --  -10.18012 -10.17988 -10.17950 -10.17774 -10.17520
 Alpha  occ. eigenvalues --  -10.17478 -10.17463 -10.17414 -10.17229 -10.17227
 Alpha  occ. eigenvalues --  -10.17145 -10.17064 -10.16921 -10.16816  -6.53387
 Alpha  occ. eigenvalues --   -6.52978  -4.69536  -4.69507  -4.69130  -4.69097
 Alpha  occ. eigenvalues --   -4.69023  -4.68614  -0.92791  -0.90900  -0.86415
 Alpha  occ. eigenvalues --   -0.86301  -0.85652  -0.85281  -0.78547  -0.76416
 Alpha  occ. eigenvalues --   -0.75644  -0.75396  -0.75312  -0.74840  -0.74560
 Alpha  occ. eigenvalues --   -0.74518  -0.74219  -0.72648  -0.70775  -0.66339
 Alpha  occ. eigenvalues --   -0.63946  -0.63281  -0.61313  -0.61098  -0.60772
 Alpha  occ. eigenvalues --   -0.60620  -0.60061  -0.59818  -0.59626  -0.58533
 Alpha  occ. eigenvalues --   -0.56149  -0.54826  -0.52321  -0.51920  -0.50822
 Alpha  occ. eigenvalues --   -0.50154  -0.49184  -0.48474  -0.47992  -0.46279
 Alpha  occ. eigenvalues --   -0.46024  -0.45890  -0.45695  -0.45576  -0.45367
 Alpha  occ. eigenvalues --   -0.45121  -0.44951  -0.44590  -0.44036  -0.43465
 Alpha  occ. eigenvalues --   -0.42932  -0.42751  -0.42522  -0.42361  -0.42009
 Alpha  occ. eigenvalues --   -0.40843  -0.40580  -0.40249  -0.39463  -0.38303
 Alpha  occ. eigenvalues --   -0.38214  -0.37751  -0.37410  -0.37190  -0.37154
 Alpha  occ. eigenvalues --   -0.36935  -0.36260  -0.35515  -0.35262  -0.35225
 Alpha  occ. eigenvalues --   -0.35078  -0.34792  -0.34431  -0.33844  -0.32650
 Alpha  occ. eigenvalues --   -0.31952  -0.31046  -0.27740  -0.26810  -0.26694
 Alpha  occ. eigenvalues --   -0.26496  -0.26311  -0.25760  -0.25543  -0.25316
 Alpha  occ. eigenvalues --   -0.23971  -0.22131  -0.21304  -0.18198
 Alpha virt. eigenvalues --   -0.03610  -0.03237  -0.02351  -0.02251  -0.01863
 Alpha virt. eigenvalues --   -0.01442  -0.01200  -0.00703   0.01862   0.02911
 Alpha virt. eigenvalues --    0.03661   0.03755   0.04699   0.04817   0.05086

 Mulliken charges:
               1
     1  P    0.160999
     2  P    0.160681
     3  C   -0.022889
     4  C   -0.175496
     5  H    0.119766
     6  C   -0.089691
     7  H    0.112251
     8  C   -0.102824
     9  H    0.111537
    10  C   -0.086879
    11  H    0.107860
    12  C   -0.179996
    13  H    0.157461
    14  C    0.127706
    15  C   -0.187288
    16  H    0.136434
    17  C   -0.120027
    18  H    0.104511
    19  C   -0.114484
    20  H    0.103866
    21  C   -0.121616
    22  H    0.104598
    23  C   -0.232182
    24  H    0.121289
    25  C   -0.187201
    26  H    0.095580
    27  C   -0.127295
    28  H    0.123977
    29  H    0.100800
    30  C    0.050047
    31  C   -0.161958
    32  H    0.162432
    33  C   -0.162383
    34  H    0.106104
    35  C   -0.101905
    36  H    0.105804
    37  C   -0.120054
    38  H    0.107417
    39  C   -0.190978
    40  H    0.136323
    41  C    0.051951
    42  C   -0.202556
    43  H    0.137997
    44  C   -0.098653
    45  H    0.108625
    46  C   -0.104214
    47  H    0.111453
    48  C   -0.095564
    49  H    0.111506
    50  C   -0.197749
    51  H    0.121966
    52  C   -0.061979
    53  H    0.072507
    54  H    0.090975
    55  C   -0.125325
    56  H    0.054677
    57  H    0.123618
    58  N   -0.164854
    59  C   -0.262571
    60  H    0.083370
    61  H    0.111343
    62  H    0.121591
    63  C   -0.264556
    64  H    0.113947
    65  H    0.082570
    66  H    0.115966
    67  N   -0.343772
    68  H    0.175434
 Sum of Mulliken charges =  -0.00000

 Dipole moment (field-independent basis, Debye):
    X=             -0.8570    Y=             -0.9761    Z=             -3.2630  Tot=              3.5120
 Quadrupole moment (field-independent basis, Debye-Ang):
   XX=           -212.4323   YY=           -200.4710   ZZ=           -217.3445
   XY=              0.0892   XZ=             -2.4094   YZ=             -7.5240

 Summary of Natural Population Analysis:

                                       Natural Population
                Natural  -----------------------------------------------
    Atom  No    Charge         Core      Valence    Rydberg      Total
 -----------------------------------------------------------------------
      P    1    0.83405      9.99801     4.13593    0.03201    14.16595
      P    2    0.84420      9.99806     4.12602    0.03173    14.15580
      C    3   -0.34633      1.99900     4.31417    0.03316     6.34633
      C    4   -0.18985      1.99910     4.17019    0.02055     6.18985
      H    5    0.22229      0.00000     0.77616    0.00155     0.77771
      C    6   -0.21118      1.99918     4.19261    0.01940     6.21118
      H    7    0.21099      0.00000     0.78775    0.00126     0.78901
      C    8   -0.19519      1.99919     4.17696    0.01904     6.19519
      H    9    0.20855      0.00000     0.79027    0.00118     0.79145
      C   10   -0.21172      1.99918     4.19363    0.01890     6.21172
      H   11    0.20734      0.00000     0.79126    0.00140     0.79266
      C   12   -0.19739      1.99908     4.17768    0.02062     6.19739
      H   13    0.23074      0.00000     0.76643    0.00283     0.76926
      C   14   -0.31039      1.99899     4.28006    0.03134     6.31039
      C   15   -0.21345      1.99909     4.19486    0.01951     6.21345
      H   16    0.21294      0.00000     0.78529    0.00177     0.78706
      C   17   -0.19502      1.99918     4.17713    0.01871     6.19502
      H   18    0.20632      0.00000     0.79240    0.00128     0.79368
      C   19   -0.22191      1.99918     4.20303    0.01969     6.22191
      H   20    0.20627      0.00000     0.79255    0.00118     0.79373
      C   21   -0.19547      1.99918     4.17760    0.01868     6.19547
      H   22    0.20715      0.00000     0.79158    0.00127     0.79285
      C   23   -0.21459      1.99908     4.19608    0.01944     6.21459
      H   24    0.19879      0.00000     0.79923    0.00198     0.80121
      C   25   -0.76465      1.99938     4.72884    0.03643     6.76465
      H   26    0.25148      0.00000     0.74651    0.00201     0.74852
      C   27   -0.22650      1.99930     4.20882    0.01838     6.22650
      H   28    0.20246      0.00000     0.79494    0.00261     0.79754
      H   29    0.16872      0.00000     0.82716    0.00412     0.83128
      C   30   -0.32709      1.99899     4.29680    0.03130     6.32709
      C   31   -0.21767      1.99908     4.19883    0.01976     6.21767
      H   32    0.20999      0.00000     0.78800    0.00201     0.79001
      C   33   -0.19579      1.99919     4.17812    0.01849     6.19579
      H   34    0.20784      0.00000     0.79088    0.00128     0.79216
      C   35   -0.21719      1.99919     4.19847    0.01954     6.21719
      H   36    0.20711      0.00000     0.79171    0.00118     0.79289
      C   37   -0.19633      1.99918     4.17852    0.01863     6.19633
      H   38    0.20772      0.00000     0.79102    0.00127     0.79228
      C   39   -0.21180      1.99909     4.19312    0.01959     6.21180
      H   40    0.21411      0.00000     0.78412    0.00177     0.78589
      C   41   -0.33411      1.99900     4.30232    0.03278     6.33411
      C   42   -0.19958      1.99908     4.18026    0.02024     6.19958
      H   43    0.21191      0.00000     0.78570    0.00239     0.78809
      C   44   -0.20516      1.99919     4.18696    0.01902     6.20516
      H   45    0.20779      0.00000     0.79084    0.00137     0.79221
      C   46   -0.19879      1.99919     4.18051    0.01909     6.19879
      H   47    0.20887      0.00000     0.78995    0.00118     0.79113
      C   48   -0.20466      1.99918     4.18609    0.01939     6.20466
      H   49    0.21029      0.00000     0.78846    0.00125     0.78971
      C   50   -0.19557      1.99910     4.17612    0.02034     6.19557
      H   51    0.21861      0.00000     0.77986    0.00154     0.78139
      C   52   -0.20983      1.99937     4.19533    0.01513     6.20983
      H   53    0.15284      0.00000     0.84430    0.00286     0.84716
      H   54    0.18864      0.00000     0.80889    0.00246     0.81136
      C   55   -0.20987      1.99934     4.19382    0.01671     6.20987
      H   56    0.14113      0.00000     0.85314    0.00573     0.85887
      H   57    0.20221      0.00000     0.79563    0.00217     0.79779
      N   58   -0.41316      1.99955     5.38581    0.02781     7.41316
      C   59   -0.39666      1.99939     4.38683    0.01045     6.39666
      H   60    0.15468      0.00000     0.84072    0.00460     0.84532
      H   61    0.19269      0.00000     0.80570    0.00161     0.80731
      H   62    0.19702      0.00000     0.80152    0.00146     0.80298
      C   63   -0.40389      1.99939     4.39360    0.01090     6.40389
      H   64    0.19537      0.00000     0.80304    0.00158     0.80463
      H   65    0.15422      0.00000     0.84087    0.00490     0.84578
      H   66    0.19433      0.00000     0.80403    0.00165     0.80567
      N   67   -0.61117      1.99953     5.58523    0.02641     7.61117
      H   68    0.35232      0.00000     0.64509    0.00260     0.64768
 =======================================================================
   * Total *   -0.00000     83.97022   173.21531    0.81447   258.00000

 Normal termination of Gaussian 16 at Fri Jan 24 15:59:57 2025.
