 Gaussian 16, Revision B.01,
 Gaussian 16:  ES64L-G16RevB.01 20-Dec-2017

 --------------------------------------------
 # nmr=giao b3lyp/def2TZVP pop=nbo scfcyc=200
 --------------------------------------------

 --------------
 MS-37 SPE NoRh
 --------------
 Symbolic Z-matrix:
 Charge =  0 Multiplicity = 1

                         Standard orientation:
 ---------------------------------------------------------------------
 Center     Atomic      Atomic             Coordinates (Angstroms)
 Number     Number       Type             X           Y           Z
 ---------------------------------------------------------------------
      1         15           0        0.815643    1.250478   -1.362358
      2         15           0       -1.882279    0.555466   -1.109566
      3          6           0        1.419304    2.477543   -0.127922
      4          6           0        0.793614    3.722325   -0.029101
      5          1           0       -0.031228    3.960300   -0.689530
      6          6           0        1.227477    4.655270    0.908297
      7          1           0        0.740002    5.619871    0.974124
      8          6           0        2.290394    4.350677    1.752720
      9          1           0        2.631378    5.078666    2.477943
     10          6           0        2.920910    3.113705    1.657862
     11          1           0        3.753557    2.877228    2.308866
     12          6           0        2.492347    2.179709    0.722139
     13          1           0        3.004973    1.229176    0.642878
     14          6           0        2.349042    0.479088   -2.034777
     15          6           0        3.334138    1.337216   -2.542350
     16          1           0        3.225076    2.411509   -2.451521
     17          6           0        4.471640    0.820985   -3.148734
     18          1           0        5.228417    1.494334   -3.529923
     19          6           0        4.638156   -0.557029   -3.261054
     20          1           0        5.525530   -0.958977   -3.732588
     21          6           0        3.664615   -1.412286   -2.759583
     22          1           0        3.792184   -2.485089   -2.834002
     23          6           0        2.520526   -0.901547   -2.152524
     24          1           0        1.792056   -1.593184   -1.750591
     25          6           0       -0.213995   -0.046374   -0.447267
     26          1           0       -0.078633   -0.956704   -1.038970
     27          6           0        0.006478   -0.413029    1.017809
     28          1           0        0.529807    0.367425    1.571557
     29          1           0       -0.951125   -0.539092    1.530393
     30          6           0        0.758215   -1.730992    1.197810
     31          6           0        1.796611   -3.105264    2.988389
     32          6           0        1.961927   -2.785236    4.469399
     33          1           0        2.570856   -1.891901    4.608237
     34          1           0        2.453580   -3.619138    4.973967
     35          1           0        0.991824   -2.621886    4.940605
     36          6           0       -2.858647    1.401846    0.202136
     37          6           0       -2.250657    2.080205    1.262135
     38          1           0       -1.177829    2.061543    1.387854
     39          6           0       -3.019941    2.799422    2.170655
     40          1           0       -2.535270    3.310746    2.992936
     41          6           0       -4.401594    2.860468    2.026608
     42          1           0       -4.998928    3.419360    2.736928
     43          6           0       -5.014641    2.200612    0.965574
     44          1           0       -6.089162    2.245023    0.844667
     45          6           0       -4.250632    1.477909    0.057225
     46          1           0       -4.745261    0.964289   -0.756480
     47          6           0       -2.801994   -0.992480   -1.500073
     48          6           0       -3.512104   -1.699160   -0.523251
     49          1           0       -3.607520   -1.304696    0.480196
     50          6           0       -4.114180   -2.912209   -0.839205
     51          1           0       -4.663422   -3.451741   -0.077762
     52          6           0       -4.010181   -3.432230   -2.125399
     53          1           0       -4.482481   -4.376157   -2.367726
     54          6           0       -3.301183   -2.738072   -3.099403
     55          1           0       -3.216874   -3.139732   -4.100883
     56          6           0       -2.699180   -1.523485   -2.789418
     57          1           0       -2.142396   -0.987197   -3.548103
     58          8           0        1.117179   -1.874899    2.469644
     59          8           0        0.955248   -2.519536    0.301171
     60          6           0        0.887198   -4.314313    2.782915
     61          1           0       -0.091668   -4.138188    3.232557
     62          1           0        0.759511   -4.548689    1.728607
     63          1           0        1.330494   -5.180562    3.276889
     64          6           0        3.152089   -3.266624    2.304432
     65          1           0        3.749816   -2.359881    2.417878
     66          1           0        3.694199   -4.085906    2.780323
     67          1           0        3.044153   -3.494331    1.246744
 ---------------------------------------------------------------------

 SCF Done:  E(RB3LYP) =  -2034.27541366     A.U. after   15 cycles

      1  P    Isotropic =   212.5428   Anisotropy =   108.3010

      2  P    Isotropic =   210.0913   Anisotropy =   103.0430

      3  C    Isotropic =    35.6689   Anisotropy =   205.2962

      4  C    Isotropic =    38.3936   Anisotropy =   186.1514

      5  H    Isotropic =    23.6702   Anisotropy =     8.2014

      6  C    Isotropic =    49.7750   Anisotropy =   185.0376

      7  H    Isotropic =    24.1938   Anisotropy =     5.1667

      8  C    Isotropic =    48.6133   Anisotropy =   189.1973

      9  H    Isotropic =    24.2022   Anisotropy =     4.0398

     10  C    Isotropic =    49.8201   Anisotropy =   183.2721

     11  H    Isotropic =    24.3235   Anisotropy =     6.5487

     12  C    Isotropic =    38.0148   Anisotropy =   189.1677

     13  H    Isotropic =    24.2647   Anisotropy =    10.0943

     14  C    Isotropic =    32.9398   Anisotropy =   192.8993

     15  C    Isotropic =    49.2633   Anisotropy =   182.4903

     16  H    Isotropic =    24.8151   Anisotropy =    12.2314

     17  C    Isotropic =    50.2705   Anisotropy =   182.4789

     18  H    Isotropic =    24.5602   Anisotropy =     5.5377

     19  C    Isotropic =    53.4882   Anisotropy =   179.5502

     20  H    Isotropic =    24.6528   Anisotropy =     4.0439

     21  C    Isotropic =    50.3943   Anisotropy =   183.2071

     22  H    Isotropic =    24.4101   Anisotropy =     6.8566

     23  C    Isotropic =    48.2483   Anisotropy =   191.1288

     24  H    Isotropic =    23.4473   Anisotropy =     9.4971

     25  C    Isotropic =   141.7254   Anisotropy =    23.0653

     26  H    Isotropic =    28.2022   Anisotropy =     4.3682

     27  C    Isotropic =   147.7351   Anisotropy =    42.9228

     28  H    Isotropic =    29.2640   Anisotropy =     4.8459

     29  H    Isotropic =    29.2537   Anisotropy =     4.5805

     30  C    Isotropic =     3.3315   Anisotropy =    88.9230

     31  C    Isotropic =    91.6439   Anisotropy =    84.5426

     32  C    Isotropic =   151.1780   Anisotropy =    48.4557

     33  H    Isotropic =    30.6306   Anisotropy =     6.8767

     34  H    Isotropic =    31.0594   Anisotropy =     9.2090

     35  H    Isotropic =    30.6508   Anisotropy =     6.8946

     36  C    Isotropic =    35.3979   Anisotropy =   190.1004

     37  C    Isotropic =    48.0648   Anisotropy =   181.9691

     38  H    Isotropic =    25.2029   Anisotropy =     7.6569

     39  C    Isotropic =    50.8019   Anisotropy =   182.9885

     40  H    Isotropic =    24.6828   Anisotropy =     7.7937

     41  C    Isotropic =    53.3019   Anisotropy =   180.4996

     42  H    Isotropic =    24.6090   Anisotropy =     4.3360

     43  C    Isotropic =    49.7733   Anisotropy =   184.0789

     44  H    Isotropic =    24.4449   Anisotropy =     5.4494

     45  C    Isotropic =    47.9662   Anisotropy =   185.2338

     46  H    Isotropic =    24.5197   Anisotropy =    11.7637

     47  C    Isotropic =    31.2264   Anisotropy =   209.8513

     48  C    Isotropic =    44.5967   Anisotropy =   186.6949

     49  H    Isotropic =    24.1974   Anisotropy =    11.0453

     50  C    Isotropic =    49.6666   Anisotropy =   183.7778

     51  H    Isotropic =    24.4341   Anisotropy =     6.2555

     52  C    Isotropic =    49.2050   Anisotropy =   188.1149

     53  H    Isotropic =    24.2830   Anisotropy =     4.0596

     54  C    Isotropic =    49.3078   Anisotropy =   184.8158

     55  H    Isotropic =    24.1400   Anisotropy =     5.3362

     56  C    Isotropic =    41.9111   Anisotropy =   181.6409

     57  H    Isotropic =    23.6772   Anisotropy =     9.0411

     58  O    Isotropic =    75.7294   Anisotropy =   134.6349

     59  O    Isotropic =   -87.3738   Anisotropy =   600.2084

     60  C    Isotropic =   157.5033   Anisotropy =    40.6363

     61  H    Isotropic =    31.0231   Anisotropy =     6.5700

     62  H    Isotropic =    29.5202   Anisotropy =     5.3148

     63  H    Isotropic =    31.0722   Anisotropy =     9.3344

     64  C    Isotropic =   156.8193   Anisotropy =    39.8944

     65  H    Isotropic =    30.9230   Anisotropy =     5.8389

     66  H    Isotropic =    31.0267   Anisotropy =     9.1612

     67  H    Isotropic =    29.3861   Anisotropy =     5.9774

 The electronic state is 1-A.
 Alpha  occ. eigenvalues --  -77.04870 -77.04618 -19.17107 -19.11546 -10.30514
 Alpha  occ. eigenvalues --  -10.25423 -10.19461 -10.19172 -10.18635 -10.18611
 Alpha  occ. eigenvalues --  -10.18363 -10.18252 -10.18245 -10.18223 -10.18145
 Alpha  occ. eigenvalues --  -10.18124 -10.17878 -10.17868 -10.17853 -10.17809
 Alpha  occ. eigenvalues --  -10.17728 -10.17704 -10.17634 -10.17618 -10.17573
 Alpha  occ. eigenvalues --  -10.17558 -10.17375 -10.17271 -10.17046 -10.16982
 Alpha  occ. eigenvalues --  -10.16889 -10.16865 -10.16841 -10.16752 -10.16648
 Alpha  occ. eigenvalues --   -6.53421  -6.53179  -4.69570  -4.69543  -4.69332
 Alpha  occ. eigenvalues --   -4.69297  -4.69058  -4.68815  -1.10527  -1.02324
 Alpha  occ. eigenvalues --   -0.86494  -0.86202  -0.85693  -0.85154  -0.82953
 Alpha  occ. eigenvalues --   -0.79747  -0.76422  -0.75999  -0.75504  -0.75116
 Alpha  occ. eigenvalues --   -0.74944  -0.74481  -0.74307  -0.74189  -0.70636
 Alpha  occ. eigenvalues --   -0.70484  -0.69550  -0.63967  -0.63367  -0.61352
 Alpha  occ. eigenvalues --   -0.61125  -0.60814  -0.60659  -0.59993  -0.59847
 Alpha  occ. eigenvalues --   -0.59657  -0.56121  -0.54928  -0.52939  -0.52207
 Alpha  occ. eigenvalues --   -0.51972  -0.50805  -0.50051  -0.49686  -0.48844
 Alpha  occ. eigenvalues --   -0.48329  -0.46188  -0.45996  -0.45895  -0.45797
 Alpha  occ. eigenvalues --   -0.45665  -0.45481  -0.45151  -0.44848  -0.44670
 Alpha  occ. eigenvalues --   -0.44275  -0.43015  -0.42878  -0.42717  -0.42511
 Alpha  occ. eigenvalues --   -0.42230  -0.41754  -0.41550  -0.40968  -0.40701
 Alpha  occ. eigenvalues --   -0.39947  -0.39084  -0.38260  -0.38077  -0.37820
 Alpha  occ. eigenvalues --   -0.37700  -0.37335  -0.37068  -0.36793  -0.36536
 Alpha  occ. eigenvalues --   -0.35945  -0.35347  -0.35212  -0.34979  -0.34798
 Alpha  occ. eigenvalues --   -0.34253  -0.34070  -0.32650  -0.31905  -0.31400
 Alpha  occ. eigenvalues --   -0.30639  -0.28258  -0.27635  -0.26872  -0.26844
 Alpha  occ. eigenvalues --   -0.26491  -0.26125  -0.25852  -0.25523  -0.25160
 Alpha  occ. eigenvalues --   -0.21683  -0.18273
 Alpha virt. eigenvalues --   -0.03621  -0.02950  -0.02649  -0.02391  -0.01822
 Alpha virt. eigenvalues --   -0.01684  -0.01021  -0.00551   0.00223   0.01757
 Alpha virt. eigenvalues --    0.02918   0.04205   0.04665   0.05222   0.05400

 Mulliken charges:
               1
     1  P    0.146968
     2  P    0.157904
     3  C   -0.008487
     4  C   -0.169394
     5  H    0.124412
     6  C   -0.101408
     7  H    0.112975
     8  C   -0.097160
     9  H    0.111812
    10  C   -0.106959
    11  H    0.108179
    12  C   -0.168438
    13  H    0.140770
    14  C    0.069860
    15  C   -0.174650
    16  H    0.117584
    17  C   -0.116058
    18  H    0.105074
    19  C   -0.107437
    20  H    0.103814
    21  C   -0.148210
    22  H    0.105607
    23  C   -0.178606
    24  H    0.150142
    25  C   -0.184396
    26  H    0.145931
    27  C   -0.252127
    28  H    0.147205
    29  H    0.136248
    30  C    0.351868
    31  C    0.216806
    32  C   -0.313518
    33  H    0.114871
    34  H    0.105347
    35  H    0.115196
    36  C    0.052018
    37  C   -0.162322
    38  H    0.158776
    39  C   -0.147090
    40  H    0.106417
    41  C   -0.106607
    42  H    0.106505
    43  C   -0.110183
    44  H    0.108698
    45  C   -0.205799
    46  H    0.129416
    47  C    0.052227
    48  C   -0.188355
    49  H    0.134116
    50  C   -0.107078
    51  H    0.106876
    52  C   -0.101669
    53  H    0.110077
    54  C   -0.095689
    55  H    0.110482
    56  C   -0.192201
    57  H    0.119556
    58  O   -0.265016
    59  O   -0.382732
    60  C   -0.372561
    61  H    0.110901
    62  H    0.153642
    63  H    0.110958
    64  C   -0.368678
    65  H    0.110372
    66  H    0.109835
    67  H    0.153380
 Sum of Mulliken charges =  -0.00000

 Dipole moment (field-independent basis, Debye):
    X=              0.6627    Y=             -1.3271    Z=              3.9269  Tot=              4.1977
 Quadrupole moment (field-independent basis, Debye-Ang):
   XX=           -210.6106   YY=           -208.2703   ZZ=           -216.1240
   XY=              2.3368   XZ=              3.4110   YZ=              3.1453

 Summary of Natural Population Analysis:

                                       Natural Population
                Natural  -----------------------------------------------
    Atom  No    Charge         Core      Valence    Rydberg      Total
 -----------------------------------------------------------------------
      P    1    0.83654      9.99803     4.13359    0.03183    14.16346
      P    2    0.85155      9.99805     4.11877    0.03162    14.14845
      C    3   -0.33916      1.99899     4.30743    0.03273     6.33916
      C    4   -0.19335      1.99909     4.17387    0.02039     6.19335
      H    5    0.22069      0.00000     0.77743    0.00188     0.77931
      C    6   -0.20551      1.99918     4.18762    0.01871     6.20551
      H    7    0.21125      0.00000     0.78749    0.00126     0.78875
      C    8   -0.19779      1.99919     4.17954    0.01906     6.19779
      H    9    0.20903      0.00000     0.78980    0.00117     0.79097
      C   10   -0.20647      1.99918     4.18836    0.01892     6.20647
      H   11    0.20861      0.00000     0.79005    0.00134     0.79139
      C   12   -0.19800      1.99908     4.17900    0.01992     6.19800
      H   13    0.21424      0.00000     0.78353    0.00222     0.78576
      C   14   -0.32491      1.99900     4.29492    0.03100     6.32491
      C   15   -0.20714      1.99909     4.18834    0.01971     6.20714
      H   16    0.20987      0.00000     0.78835    0.00178     0.79013
      C   17   -0.19896      1.99918     4.18111    0.01867     6.19896
      H   18    0.20683      0.00000     0.79189    0.00128     0.79317
      C   19   -0.21724      1.99919     4.19851    0.01954     6.21724
      H   20    0.20589      0.00000     0.79292    0.00118     0.79411
      C   21   -0.19571      1.99919     4.17779    0.01873     6.19571
      H   22    0.20685      0.00000     0.79187    0.00128     0.79315
      C   23   -0.21960      1.99908     4.20092    0.01960     6.21960
      H   24    0.22586      0.00000     0.77247    0.00167     0.77414
      C   25   -0.77809      1.99938     4.74397    0.03475     6.77809
      H   26    0.28467      0.00000     0.71339    0.00194     0.71533
      C   27   -0.51622      1.99921     4.49780    0.01920     6.51622
      H   28    0.23751      0.00000     0.75999    0.00250     0.76249
      H   29    0.23936      0.00000     0.75803    0.00262     0.76064
      C   30    0.79308      1.99942     3.16868    0.03882     5.20692
      C   31    0.26846      1.99926     3.71305    0.01923     5.73154
      C   32   -0.60092      1.99936     4.58929    0.01227     6.60092
      H   33    0.21249      0.00000     0.78640    0.00111     0.78751
      H   34    0.20815      0.00000     0.79088    0.00098     0.79185
      H   35    0.21258      0.00000     0.78630    0.00111     0.78742
      C   36   -0.33184      1.99899     4.30190    0.03094     6.33184
      C   37   -0.22007      1.99908     4.20124    0.01975     6.22007
      H   38    0.21054      0.00000     0.78748    0.00197     0.78946
      C   39   -0.19680      1.99918     4.17901    0.01861     6.19680
      H   40    0.20814      0.00000     0.79058    0.00128     0.79186
      C   41   -0.21596      1.99919     4.19722    0.01955     6.21596
      H   42    0.20745      0.00000     0.79137    0.00118     0.79255
      C   43   -0.19738      1.99918     4.17962    0.01857     6.19738
      H   44    0.20842      0.00000     0.79032    0.00126     0.79158
      C   45   -0.20686      1.99910     4.18809    0.01967     6.20686
      H   46    0.21408      0.00000     0.78413    0.00179     0.78592
      C   47   -0.33241      1.99900     4.30103    0.03238     6.33241
      C   48   -0.19833      1.99908     4.17954    0.01971     6.19833
      H   49    0.21070      0.00000     0.78702    0.00228     0.78930
      C   50   -0.20359      1.99919     4.18541    0.01900     6.20359
      H   51    0.20707      0.00000     0.79156    0.00137     0.79293
      C   52   -0.19904      1.99919     4.18073    0.01911     6.19904
      H   53    0.20823      0.00000     0.79060    0.00118     0.79177
      C   54   -0.20205      1.99918     4.18353    0.01933     6.20205
      H   55    0.20992      0.00000     0.78882    0.00126     0.79008
      C   56   -0.19402      1.99910     4.17465    0.02026     6.19402
      H   57    0.21778      0.00000     0.78068    0.00154     0.78222
      O   58   -0.50608      1.99972     6.49107    0.01530     8.50608
      O   59   -0.61652      1.99973     6.58969    0.02710     8.61652
      C   60   -0.62573      1.99934     4.61422    0.01216     6.62573
      H   61    0.20925      0.00000     0.78962    0.00113     0.79075
      H   62    0.23324      0.00000     0.76561    0.00115     0.76676
      H   63    0.20995      0.00000     0.78914    0.00091     0.79005
      C   64   -0.62460      1.99934     4.61303    0.01222     6.62460
      H   65    0.20967      0.00000     0.78921    0.00112     0.79033
      H   66    0.20917      0.00000     0.78991    0.00092     0.79083
      H   67    0.23323      0.00000     0.76561    0.00116     0.76677
 =======================================================================
   * Total *    0.00000     85.96978   177.21500    0.81522   264.00000

 Normal termination of Gaussian 16 at Fri Jan 24 15:57:42 2025.
