 Gaussian 16, Revision B.01,
 Gaussian 16:  ES64L-G16RevB.01 20-Dec-2017

 --------------------------------------------
 # nmr=giao b3lyp/def2TZVP pop=nbo scfcyc=200
 --------------------------------------------

 --------------
 MS-38 SPE NoRh
 --------------
 Symbolic Z-matrix:
 Charge =  0 Multiplicity = 1

                         Standard orientation:
 ---------------------------------------------------------------------
 Center     Atomic      Atomic             Coordinates (Angstroms)
 Number     Number       Type             X           Y           Z
 ---------------------------------------------------------------------
      1         15           0       -1.106185   -1.369120    1.183278
      2         15           0       -1.696339    1.369123    1.007105
      3          6           0       -2.181821   -2.388458    0.094560
      4          6           0       -3.532448   -2.531049    0.428748
      5          1           0       -3.920686   -2.035221    1.308860
      6          6           0       -4.378273   -3.293526   -0.369541
      7          1           0       -5.421574   -3.400661   -0.100910
      8          6           0       -3.881558   -3.918040   -1.509380
      9          1           0       -4.539122   -4.514502   -2.129942
     10          6           0       -2.539154   -3.776083   -1.851115
     11          1           0       -2.149788   -4.258209   -2.738908
     12          6           0       -1.687364   -3.017605   -1.057001
     13          1           0       -0.647452   -2.917421   -1.343216
     14          6           0        0.356162   -2.408051    1.610382
     15          6           0        0.306633   -3.802067    1.525199
     16          1           0       -0.568511   -4.295350    1.127054
     17          6           0        1.391708   -4.567953    1.940274
     18          1           0        1.344102   -5.647038    1.862286
     19          6           0        2.530633   -3.955334    2.448390
     20          1           0        3.374082   -4.554662    2.767585
     21          6           0        2.581059   -2.567544    2.549680
     22          1           0        3.462412   -2.083848    2.952465
     23          6           0        1.499079   -1.798159    2.142862
     24          1           0        1.552454   -0.721522    2.249880
     25          6           0       -0.495185    0.135582    0.208893
     26          1           0        0.425450    0.414868    0.731141
     27          6           0       -0.204363    0.126011   -1.295566
     28          1           0       -0.992242   -0.366981   -1.857704
     29          1           0       -0.129279    1.159118   -1.641110
     30          6           0        1.104484   -0.578831   -1.620953
     31          6           0        4.511566    0.693289   -1.259342
     32          1           0        4.312712    1.581597   -1.865936
     33          1           0        4.401876    0.993056   -0.213120
     34          6           0       -3.071633    1.814707   -0.131362
     35          6           0       -3.564810    0.921594   -1.088252
     36          1           0       -3.101350   -0.042153   -1.235923
     37          6           0       -4.675721    1.257376   -1.855685
     38          1           0       -5.039237    0.558998   -2.599252
     39          6           0       -5.314840    2.477382   -1.669341
     40          1           0       -6.178478    2.735311   -2.269051
     41          6           0       -4.843076    3.364004   -0.707124
     42          1           0       -5.336828    4.314025   -0.552455
     43          6           0       -3.730569    3.036239    0.059221
     44          1           0       -3.373193    3.742208    0.798241
     45          6           0       -0.687078    2.899996    1.197716
     46          6           0       -0.522945    3.812014    0.149268
     47          1           0       -1.057162    3.679987   -0.781859
     48          6           0        0.319784    4.906753    0.302952
     49          1           0        0.439277    5.609818   -0.512356
     50          6           0        1.007182    5.101454    1.497800
     51          1           0        1.659597    5.957551    1.613926
     52          6           0        0.853733    4.194554    2.540802
     53          1           0        1.385858    4.343578    3.472779
     54          6           0        0.010012    3.099050    2.392899
     55          1           0       -0.104708    2.393066    3.206565
     56          8           0        2.159233    0.191302   -1.323855
     57          8           0        1.183316   -1.695332   -2.076002
     58          6           0        3.480416   -0.367889   -1.585501
     59          1           0        3.522407   -0.671006   -2.632538
     60          1           0        3.601884   -1.262500   -0.971571
     61          6           0        5.939947    0.200272   -1.512184
     62          1           0        6.040981   -0.106827   -2.558958
     63          1           0        6.130305   -0.697614   -0.911427
     64          6           0        7.004362    1.253301   -1.191773
     65          1           0        6.814072    2.149191   -1.792436
     66          1           0        6.904262    1.560416   -0.145355
     67          6           0        8.429161    0.762124   -1.445504
     68          1           0        8.570526    0.481452   -2.492070
     69          1           0        9.162308    1.535501   -1.208338
     70          1           0        8.662026   -0.112744   -0.833375
 ---------------------------------------------------------------------

 SCF Done:  E(RB3LYP) =  -2073.60122635     A.U. after   15 cycles

      1  P    Isotropic =   223.9386   Anisotropy =    88.8779

      2  P    Isotropic =   210.1957   Anisotropy =   100.5936

      3  C    Isotropic =    41.3850   Anisotropy =   195.1687

      4  C    Isotropic =    37.8937   Anisotropy =   184.9127

      5  H    Isotropic =    23.6830   Anisotropy =     8.2836

      6  C    Isotropic =    49.6096   Anisotropy =   184.9231

      7  H    Isotropic =    24.1404   Anisotropy =     5.0725

      8  C    Isotropic =    47.1718   Anisotropy =   191.3334

      9  H    Isotropic =    24.0232   Anisotropy =     3.9892

     10  C    Isotropic =    49.1929   Anisotropy =   185.4966

     11  H    Isotropic =    23.9716   Anisotropy =     6.4916

     12  C    Isotropic =    33.9453   Anisotropy =   201.8220

     13  H    Isotropic =    22.5028   Anisotropy =     8.9148

     14  C    Isotropic =    30.5363   Anisotropy =   197.9133

     15  C    Isotropic =    50.4800   Anisotropy =   182.4786

     16  H    Isotropic =    24.8882   Anisotropy =    12.9636

     17  C    Isotropic =    49.5088   Anisotropy =   183.8249

     18  H    Isotropic =    24.5774   Anisotropy =     6.0901

     19  C    Isotropic =    53.8334   Anisotropy =   179.2882

     20  H    Isotropic =    24.6680   Anisotropy =     4.1992

     21  C    Isotropic =    50.9185   Anisotropy =   182.1080

     22  H    Isotropic =    24.4594   Anisotropy =     5.9935

     23  C    Isotropic =    50.8544   Anisotropy =   183.7589

     24  H    Isotropic =    24.2975   Anisotropy =     9.6660

     25  C    Isotropic =   129.0430   Anisotropy =    14.1564

     26  H    Isotropic =    29.0899   Anisotropy =     3.3395

     27  C    Isotropic =   148.2852   Anisotropy =    34.8170

     28  H    Isotropic =    29.1066   Anisotropy =     3.8250

     29  H    Isotropic =    29.2705   Anisotropy =     4.4625

     30  C    Isotropic =     3.3717   Anisotropy =   100.1675

     31  C    Isotropic =   149.3935   Anisotropy =    32.8288

     32  H    Isotropic =    30.5983   Anisotropy =     4.2379

     33  H    Isotropic =    30.5630   Anisotropy =     6.1772

     34  C    Isotropic =    36.0133   Anisotropy =   188.2483

     35  C    Isotropic =    48.0540   Anisotropy =   182.2164

     36  H    Isotropic =    25.4503   Anisotropy =     7.2380

     37  C    Isotropic =    50.5977   Anisotropy =   183.2362

     38  H    Isotropic =    24.8803   Anisotropy =     8.3099

     39  C    Isotropic =    53.2047   Anisotropy =   180.6860

     40  H    Isotropic =    24.6964   Anisotropy =     4.4753

     41  C    Isotropic =    50.1475   Anisotropy =   183.8695

     42  H    Isotropic =    24.5256   Anisotropy =     5.5180

     43  C    Isotropic =    48.3333   Anisotropy =   183.9883

     44  H    Isotropic =    24.5858   Anisotropy =    11.8266

     45  C    Isotropic =    31.7193   Anisotropy =   209.9887

     46  C    Isotropic =    44.0718   Anisotropy =   187.7000

     47  H    Isotropic =    24.0709   Anisotropy =    11.0793

     48  C    Isotropic =    49.1559   Anisotropy =   184.9595

     49  H    Isotropic =    24.3124   Anisotropy =     6.0647

     50  C    Isotropic =    48.8154   Anisotropy =   188.6523

     51  H    Isotropic =    24.2143   Anisotropy =     3.9708

     52  C    Isotropic =    49.1557   Anisotropy =   185.3646

     53  H    Isotropic =    24.0614   Anisotropy =     5.0859

     54  C    Isotropic =    42.2047   Anisotropy =   180.6916

     55  H    Isotropic =    23.5717   Anisotropy =     8.7771

     56  O    Isotropic =   107.7746   Anisotropy =   166.2752

     57  O    Isotropic =  -101.5957   Anisotropy =   586.8326

     58  C    Isotropic =   111.3714   Anisotropy =    65.1877

     59  H    Isotropic =    28.2429   Anisotropy =     6.3768

     60  H    Isotropic =    28.6304   Anisotropy =     5.2670

     61  C    Isotropic =   150.1573   Anisotropy =    30.5076

     62  H    Isotropic =    30.9309   Anisotropy =     5.6652

     63  H    Isotropic =    30.8962   Anisotropy =     4.3881

     64  C    Isotropic =   153.8900   Anisotropy =    23.5728

     65  H    Isotropic =    30.6303   Anisotropy =     5.8200

     66  H    Isotropic =    30.6145   Anisotropy =     5.5281

     67  C    Isotropic =   166.7105   Anisotropy =    29.4953

     68  H    Isotropic =    31.1053   Anisotropy =     8.6102

     69  H    Isotropic =    30.7569   Anisotropy =    10.6382

     70  H    Isotropic =    31.0878   Anisotropy =     7.9815

 The electronic state is 1-A.
 Alpha  occ. eigenvalues --  -77.05270 -77.04852 -19.17473 -19.11468 -10.30236
 Alpha  occ. eigenvalues --  -10.23030 -10.20402 -10.19269 -10.18791 -10.18649
 Alpha  occ. eigenvalues --  -10.18447 -10.18352 -10.18332 -10.18308 -10.18222
 Alpha  occ. eigenvalues --  -10.18207 -10.18175 -10.18129 -10.18094 -10.17876
 Alpha  occ. eigenvalues --  -10.17734 -10.17701 -10.17691 -10.17683 -10.17646
 Alpha  occ. eigenvalues --  -10.17607 -10.17589 -10.17548 -10.17528 -10.17479
 Alpha  occ. eigenvalues --  -10.17426 -10.17277 -10.17272 -10.17135 -10.17116
 Alpha  occ. eigenvalues --  -10.16353  -6.53812  -6.53414  -4.69966  -4.69930
 Alpha  occ. eigenvalues --   -4.69567  -4.69530  -4.69450  -4.69052  -1.10853
 Alpha  occ. eigenvalues --   -1.02152  -0.86592  -0.86230  -0.85857  -0.85525
 Alpha  occ. eigenvalues --   -0.82062  -0.80504  -0.77221  -0.76543  -0.75781
 Alpha  occ. eigenvalues --   -0.75563  -0.75180  -0.75016  -0.74771  -0.74721
 Alpha  occ. eigenvalues --   -0.74374  -0.70703  -0.68054  -0.64173  -0.62413
 Alpha  occ. eigenvalues --   -0.61605  -0.61302  -0.60930  -0.60838  -0.60356
 Alpha  occ. eigenvalues --   -0.60255  -0.59896  -0.59150  -0.56928  -0.56336
 Alpha  occ. eigenvalues --   -0.55279  -0.52518  -0.52016  -0.51096  -0.50497
 Alpha  occ. eigenvalues --   -0.50201  -0.49643  -0.48175  -0.47388  -0.46247
 Alpha  occ. eigenvalues --   -0.46118  -0.45887  -0.45780  -0.45586  -0.45402
 Alpha  occ. eigenvalues --   -0.45098  -0.45060  -0.44489  -0.43504  -0.43159
 Alpha  occ. eigenvalues --   -0.43010  -0.42759  -0.42459  -0.42407  -0.42046
 Alpha  occ. eigenvalues --   -0.41198  -0.40911  -0.40615  -0.38996  -0.38696
 Alpha  occ. eigenvalues --   -0.38423  -0.37955  -0.37793  -0.37535  -0.37349
 Alpha  occ. eigenvalues --   -0.37073  -0.36023  -0.35503  -0.35405  -0.35290
 Alpha  occ. eigenvalues --   -0.34907  -0.34875  -0.34621  -0.34461  -0.33605
 Alpha  occ. eigenvalues --   -0.33503  -0.32895  -0.32222  -0.31734  -0.30995
 Alpha  occ. eigenvalues --   -0.28522  -0.27647  -0.27027  -0.26699  -0.26632
 Alpha  occ. eigenvalues --   -0.26283  -0.25882  -0.25607  -0.25525  -0.22007
 Alpha  occ. eigenvalues --   -0.18605
 Alpha virt. eigenvalues --   -0.03788  -0.03394  -0.02755  -0.02447  -0.01925
 Alpha virt. eigenvalues --   -0.01581  -0.01412  -0.00805   0.00080   0.02031
 Alpha virt. eigenvalues --    0.02364   0.03378   0.04224   0.04841   0.05234

 Mulliken charges:
               1
     1  P    0.157049
     2  P    0.157929
     3  C   -0.037312
     4  C   -0.137674
     5  H    0.118152
     6  C   -0.105783
     7  H    0.111257
     8  C   -0.094468
     9  H    0.111677
    10  C   -0.118319
    11  H    0.114197
    12  C   -0.196852
    13  H    0.201825
    14  C    0.101915
    15  C   -0.170913
    16  H    0.141365
    17  C   -0.119287
    18  H    0.105725
    19  C   -0.108090
    20  H    0.105124
    21  C   -0.124566
    22  H    0.103598
    23  C   -0.217386
    24  H    0.110911
    25  C   -0.245417
    26  H    0.120073
    27  C   -0.173390
    28  H    0.125725
    29  H    0.113620
    30  C    0.332465
    31  C   -0.126148
    32  H    0.092288
    33  H    0.094051
    34  C    0.053581
    35  C   -0.143693
    36  H    0.157371
    37  C   -0.162804
    38  H    0.108029
    39  C   -0.102592
    40  H    0.106945
    41  C   -0.113315
    42  H    0.108869
    43  C   -0.195139
    44  H    0.128998
    45  C    0.055307
    46  C   -0.194178
    47  H    0.140789
    48  C   -0.108564
    49  H    0.109356
    50  C   -0.103607
    51  H    0.111598
    52  C   -0.097610
    53  H    0.111154
    54  C   -0.199397
    55  H    0.120144
    56  O   -0.262668
    57  O   -0.346374
    58  C   -0.045174
    59  H    0.110268
    60  H    0.118982
    61  C   -0.208401
    62  H    0.087348
    63  H    0.088394
    64  C   -0.139986
    65  H    0.084903
    66  H    0.084818
    67  C   -0.324920
    68  H    0.102659
    69  H    0.112960
    70  H    0.102607
 Sum of Mulliken charges =  -0.00000

 Dipole moment (field-independent basis, Debye):
    X=              1.8803    Y=              1.7532    Z=             -1.4301  Tot=              2.9419
 Quadrupole moment (field-independent basis, Debye-Ang):
   XX=           -209.7481   YY=           -218.4895   ZZ=           -231.0268
   XY=              6.5241   XZ=             10.2336   YZ=              1.0064

 Summary of Natural Population Analysis:

                                       Natural Population
                Natural  -----------------------------------------------
    Atom  No    Charge         Core      Valence    Rydberg      Total
 -----------------------------------------------------------------------
      P    1    0.83419      9.99802     4.13547    0.03231    14.16581
      P    2    0.85302      9.99805     4.11706    0.03186    14.14698
      C    3   -0.35495      1.99900     4.32307    0.03289     6.35495
      C    4   -0.18544      1.99910     4.16591    0.02043     6.18544
      H    5    0.22160      0.00000     0.77688    0.00152     0.77840
      C    6   -0.21106      1.99918     4.19250    0.01938     6.21106
      H    7    0.21092      0.00000     0.78782    0.00126     0.78908
      C    8   -0.19303      1.99919     4.17492    0.01892     6.19303
      H    9    0.20852      0.00000     0.79030    0.00119     0.79148
      C   10   -0.20844      1.99918     4.19042    0.01884     6.20844
      H   11    0.21089      0.00000     0.78773    0.00138     0.78911
      C   12   -0.20235      1.99909     4.18309    0.02017     6.20235
      H   13    0.24289      0.00000     0.75510    0.00201     0.75711
      C   14   -0.31718      1.99899     4.28697    0.03122     6.31718
      C   15   -0.20785      1.99909     4.18931    0.01946     6.20785
      H   16    0.21500      0.00000     0.78323    0.00177     0.78500
      C   17   -0.19198      1.99919     4.17416    0.01864     6.19198
      H   18    0.20741      0.00000     0.79131    0.00128     0.79259
      C   19   -0.21757      1.99919     4.19880    0.01959     6.21757
      H   20    0.20688      0.00000     0.79194    0.00118     0.79312
      C   21   -0.19840      1.99918     4.18049    0.01872     6.19840
      H   22    0.20578      0.00000     0.79294    0.00128     0.79422
      C   23   -0.21498      1.99908     4.19658    0.01932     6.21498
      H   24    0.19961      0.00000     0.79841    0.00197     0.80039
      C   25   -0.75156      1.99937     4.71892    0.03326     6.75156
      H   26    0.25868      0.00000     0.73943    0.00189     0.74132
      C   27   -0.50731      1.99922     4.48819    0.01990     6.50731
      H   28    0.22994      0.00000     0.76784    0.00222     0.77006
      H   29    0.23022      0.00000     0.76711    0.00266     0.76978
      C   30    0.78221      1.99945     3.18009    0.03826     5.21779
      C   31   -0.40082      1.99941     4.38675    0.01466     6.40082
      H   32    0.20006      0.00000     0.79817    0.00176     0.79994
      H   33    0.20035      0.00000     0.79790    0.00175     0.79965
      C   34   -0.33347      1.99899     4.30346    0.03102     6.33347
      C   35   -0.21461      1.99909     4.19574    0.01978     6.21461
      H   36    0.21139      0.00000     0.78655    0.00205     0.78861
      C   37   -0.19501      1.99918     4.17729    0.01854     6.19501
      H   38    0.20933      0.00000     0.78940    0.00127     0.79067
      C   39   -0.21442      1.99918     4.19572    0.01951     6.21442
      H   40    0.20773      0.00000     0.79109    0.00118     0.79227
      C   41   -0.19734      1.99918     4.17957    0.01859     6.19734
      H   42    0.20846      0.00000     0.79028    0.00126     0.79154
      C   43   -0.20758      1.99910     4.18888    0.01961     6.20758
      H   44    0.21343      0.00000     0.78478    0.00178     0.78657
      C   45   -0.33319      1.99900     4.30157    0.03261     6.33319
      C   46   -0.19891      1.99908     4.17991    0.01992     6.19891
      H   47    0.21299      0.00000     0.78469    0.00232     0.78701
      C   48   -0.20272      1.99919     4.18453    0.01901     6.20272
      H   49    0.20819      0.00000     0.79045    0.00136     0.79181
      C   50   -0.19943      1.99919     4.18113    0.01910     6.19943
      H   51    0.20884      0.00000     0.78998    0.00117     0.79116
      C   52   -0.20388      1.99918     4.18530    0.01940     6.20388
      H   53    0.20988      0.00000     0.78886    0.00126     0.79012
      C   54   -0.19797      1.99910     4.17846    0.02041     6.19797
      H   55    0.21685      0.00000     0.78159    0.00156     0.78315
      O   56   -0.48659      1.99973     6.47270    0.01416     8.48659
      O   57   -0.59735      1.99974     6.57061    0.02700     8.59735
      C   58   -0.06387      1.99920     4.04686    0.01781     6.06387
      H   59    0.18249      0.00000     0.81563    0.00187     0.81751
      H   60    0.18604      0.00000     0.81168    0.00227     0.81396
      C   61   -0.37618      1.99941     4.36315    0.01362     6.37618
      H   62    0.18818      0.00000     0.80992    0.00190     0.81182
      H   63    0.18870      0.00000     0.80940    0.00190     0.81130
      C   64   -0.37569      1.99946     4.36305    0.01319     6.37569
      H   65    0.18987      0.00000     0.80841    0.00172     0.81013
      H   66    0.18990      0.00000     0.80839    0.00171     0.81010
      C   67   -0.58515      1.99947     4.57946    0.00622     6.58515
      H   68    0.19595      0.00000     0.80260    0.00145     0.80405
      H   69    0.20395      0.00000     0.79491    0.00114     0.79605
      H   70    0.19592      0.00000     0.80263    0.00145     0.80408
 =======================================================================
   * Total *    0.00000     87.96946   183.19749    0.83305   272.00000

 Normal termination of Gaussian 16 at Fri Jan 24 16:55:28 2025.
