 Gaussian 16, Revision B.01,
 Gaussian 16:  ES64L-G16RevB.01 20-Dec-2017

 --------------------------------------------
 # nmr=giao b3lyp/def2TZVP pop=nbo scfcyc=200
 --------------------------------------------

 --------------
 MS-35 SPE NoRh
 --------------
 Symbolic Z-matrix:
 Charge =  0 Multiplicity = 1

                         Standard orientation:
 ---------------------------------------------------------------------
 Center     Atomic      Atomic             Coordinates (Angstroms)
 Number     Number       Type             X           Y           Z
 ---------------------------------------------------------------------
      1         15           0        0.537960    0.988640   -1.303477
      2         15           0       -1.890682   -0.386088   -0.995247
      3          6           0        0.616040    2.666124   -0.553397
      4          6           0       -0.179141    3.689654   -1.075812
      5          1           0       -0.836465    3.483284   -1.911248
      6          6           0       -0.135227    4.967144   -0.523710
      7          1           0       -0.752704    5.754053   -0.938020
      8          6           0        0.706105    5.230034    0.551310
      9          1           0        0.745211    6.224983    0.977882
     10          6           0        1.500070    4.214140    1.078745
     11          1           0        2.155527    4.419175    1.916356
     12          6           0        1.457290    2.936947    0.534235
     13          1           0        2.068875    2.147367    0.950583
     14          6           0        2.283797    0.477996   -1.602661
     15          6           0        3.269166    1.438534   -1.854506
     16          1           0        3.037704    2.492331   -1.781866
     17          6           0        4.561334    1.047478   -2.189429
     18          1           0        5.315444    1.801881   -2.375533
     19          6           0        4.885469   -0.301628   -2.280461
     20          1           0        5.892679   -0.603525   -2.537332
     21          6           0        3.907461   -1.262624   -2.043265
     22          1           0        4.148857   -2.315336   -2.111766
     23          6           0        2.613028   -0.877366   -1.716604
     24          1           0        1.868749   -1.645638   -1.552634
     25          6           0       -0.252300   -0.194962   -0.057746
     26          1           0        0.217088   -1.154867   -0.282717
     27          6           0       -0.223838    0.035334    1.453266
     28          1           0       -0.578364    1.040131    1.676598
     29          1           0       -0.948331   -0.657307    1.917867
     30          6           0       -3.271705    0.471454   -0.125814
     31          6           0       -3.082063    1.726000    0.463785
     32          1           0       -2.102228    2.182848    0.488483
     33          6           0       -4.156045    2.414352    1.015374
     34          1           0       -3.991079    3.378981    1.478086
     35          6           0       -5.436057    1.871421    0.969286
     36          1           0       -6.271798    2.409380    1.397779
     37          6           0       -5.638184    0.635889    0.364080
     38          1           0       -6.631517    0.208549    0.316930
     39          6           0       -4.565063   -0.061583   -0.182809
     40          1           0       -4.743364   -1.021735   -0.647789
     41          6           0       -2.250285   -2.191000   -0.885962
     42          6           0       -2.761613   -2.771713    0.280931
     43          1           0       -3.035890   -2.155965    1.127103
     44          6           0       -2.932509   -4.149198    0.358426
     45          1           0       -3.331654   -4.589481    1.263220
     46          6           0       -2.591352   -4.960338   -0.721693
     47          1           0       -2.728369   -6.032013   -0.657356
     48          6           0       -2.075796   -4.391049   -1.879550
     49          1           0       -1.807746   -5.017697   -2.721207
     50          6           0       -1.905201   -3.012018   -1.963252
     51          1           0       -1.495601   -2.572257   -2.863527
     52          7           0        1.108341   -0.101597    2.038268
     53          6           0        1.566325   -1.494384    2.097440
     54          1           0        1.074182   -2.028744    2.929021
     55          1           0        1.274198   -2.011479    1.184037
     56          6           0        3.083159   -1.634190    2.214883
     57          1           0        3.447272   -1.174320    3.148093
     58          1           0        3.546122   -1.084533    1.390618
     59          7           0        3.463998   -3.037140    2.099966
     60          1           0        3.020523   -3.573675    2.837294
     61          6           0        4.908107   -3.251481    2.146468
     62          1           0        5.393074   -2.835255    3.042658
     63          1           0        5.118289   -4.320997    2.107520
     64          1           0        5.372396   -2.790466    1.271715
     65          6           0        1.154017    0.536988    3.355726
     66          1           0        0.477964    0.055555    4.081626
     67          1           0        2.165017    0.497224    3.757649
     68          1           0        0.870453    1.586708    3.269401
 ---------------------------------------------------------------------

 SCF Done:  E(RB3LYP) =  -1956.33934746     A.U. after   15 cycles

      1  P    Isotropic =   217.1716   Anisotropy =    94.7967

      2  P    Isotropic =   216.9749   Anisotropy =   105.9639

      3  C    Isotropic =    39.4479   Anisotropy =   198.7566

      4  C    Isotropic =    37.4536   Anisotropy =   185.0189

      5  H    Isotropic =    23.5138   Anisotropy =     8.4388

      6  C    Isotropic =    49.8459   Anisotropy =   184.0022

      7  H    Isotropic =    24.0621   Anisotropy =     5.0254

      8  C    Isotropic =    47.7610   Anisotropy =   190.4525

      9  H    Isotropic =    24.0692   Anisotropy =     4.0753

     10  C    Isotropic =    49.6891   Anisotropy =   183.5744

     11  H    Isotropic =    24.1619   Anisotropy =     6.9625

     12  C    Isotropic =    35.6704   Anisotropy =   195.8252

     13  H    Isotropic =    23.2639   Anisotropy =     8.8436

     14  C    Isotropic =    28.9958   Anisotropy =   200.2186

     15  C    Isotropic =    51.4570   Anisotropy =   180.2211

     16  H    Isotropic =    24.9409   Anisotropy =    12.8968

     17  C    Isotropic =    49.9020   Anisotropy =   182.8370

     18  H    Isotropic =    24.5845   Anisotropy =     5.9460

     19  C    Isotropic =    54.4597   Anisotropy =   178.1500

     20  H    Isotropic =    24.6768   Anisotropy =     3.9698

     21  C    Isotropic =    50.1036   Anisotropy =   184.3413

     22  H    Isotropic =    24.4082   Anisotropy =     6.0690

     23  C    Isotropic =    51.2720   Anisotropy =   184.9622

     24  H    Isotropic =    24.3332   Anisotropy =     9.6503

     25  C    Isotropic =   131.7175   Anisotropy =    25.1474

     26  H    Isotropic =    29.1883   Anisotropy =     4.1647

     27  C    Isotropic =   125.2647   Anisotropy =    61.5887

     28  H    Isotropic =    29.3292   Anisotropy =     5.6158

     29  H    Isotropic =    29.4628   Anisotropy =     7.0044

     30  C    Isotropic =    35.0764   Anisotropy =   190.4278

     31  C    Isotropic =    48.6366   Anisotropy =   180.4030

     32  H    Isotropic =    24.9573   Anisotropy =     7.8878

     33  C    Isotropic =    50.9844   Anisotropy =   182.5084

     34  H    Isotropic =    24.7616   Anisotropy =     8.1893

     35  C    Isotropic =    53.6762   Anisotropy =   179.9970

     36  H    Isotropic =    24.6828   Anisotropy =     4.4485

     37  C    Isotropic =    49.6201   Anisotropy =   183.6322

     38  H    Isotropic =    24.5157   Anisotropy =     5.7448

     39  C    Isotropic =    49.0281   Anisotropy =   182.6053

     40  H    Isotropic =    24.6078   Anisotropy =    12.2310

     41  C    Isotropic =    32.3876   Anisotropy =   209.9966

     42  C    Isotropic =    42.7705   Anisotropy =   187.1613

     43  H    Isotropic =    23.8792   Anisotropy =    10.6867

     44  C    Isotropic =    49.0568   Anisotropy =   184.8717

     45  H    Isotropic =    24.2792   Anisotropy =     6.1993

     46  C    Isotropic =    48.7194   Anisotropy =   189.2357

     47  H    Isotropic =    24.1969   Anisotropy =     4.0655

     48  C    Isotropic =    49.1550   Anisotropy =   185.1195

     49  H    Isotropic =    24.0644   Anisotropy =     5.2115

     50  C    Isotropic =    41.3866   Anisotropy =   180.7348

     51  H    Isotropic =    23.5956   Anisotropy =     8.8842

     52  N    Isotropic =   201.5492   Anisotropy =    38.1038

     53  C    Isotropic =   124.5302   Anisotropy =    55.3585

     54  H    Isotropic =    30.6197   Anisotropy =     5.4393

     55  H    Isotropic =    29.3380   Anisotropy =     5.4712

     56  C    Isotropic =   128.4381   Anisotropy =    51.8658

     57  H    Isotropic =    29.3776   Anisotropy =     4.6830

     58  H    Isotropic =    30.3438   Anisotropy =     6.8101

     59  N    Isotropic =   216.2674   Anisotropy =    52.6779

     60  H    Isotropic =    32.6161   Anisotropy =    11.4601

     61  C    Isotropic =   143.8948   Anisotropy =    61.1069

     62  H    Isotropic =    29.7044   Anisotropy =    10.3531

     63  H    Isotropic =    29.3551   Anisotropy =    10.2412

     64  H    Isotropic =    29.8406   Anisotropy =     7.0437

     65  C    Isotropic =   137.1573   Anisotropy =    69.5838

     66  H    Isotropic =    30.3237   Anisotropy =     9.5779

     67  H    Isotropic =    29.4116   Anisotropy =    10.0221

     68  H    Isotropic =    29.7231   Anisotropy =     8.0639

 The electronic state is 1-A.
 Alpha  occ. eigenvalues --  -77.04895 -77.04478 -14.31475 -14.30055 -10.20284
 Alpha  occ. eigenvalues --  -10.19339 -10.19327 -10.19040 -10.18873 -10.18610
 Alpha  occ. eigenvalues --  -10.18604 -10.18456 -10.18449 -10.18344 -10.18221
 Alpha  occ. eigenvalues --  -10.18199 -10.18160 -10.18090 -10.18085 -10.18055
 Alpha  occ. eigenvalues --  -10.18034 -10.18000 -10.17994 -10.17847 -10.17524
 Alpha  occ. eigenvalues --  -10.17495 -10.17465 -10.17436 -10.17236 -10.17212
 Alpha  occ. eigenvalues --  -10.17123 -10.17096 -10.16959 -10.16838  -6.53442
 Alpha  occ. eigenvalues --   -6.53052  -4.69593  -4.69562  -4.69206  -4.69171
 Alpha  occ. eigenvalues --   -4.69078  -4.68688  -0.92997  -0.90082  -0.86413
 Alpha  occ. eigenvalues --   -0.86335  -0.85660  -0.85298  -0.78685  -0.76435
 Alpha  occ. eigenvalues --   -0.75465  -0.75387  -0.75356  -0.74826  -0.74615
 Alpha  occ. eigenvalues --   -0.74526  -0.74256  -0.73875  -0.68680  -0.66776
 Alpha  occ. eigenvalues --   -0.63981  -0.62863  -0.61477  -0.61210  -0.61090
 Alpha  occ. eigenvalues --   -0.60663  -0.60155  -0.60048  -0.59831  -0.58278
 Alpha  occ. eigenvalues --   -0.56139  -0.54905  -0.52322  -0.51964  -0.50567
 Alpha  occ. eigenvalues --   -0.50150  -0.49835  -0.48361  -0.47139  -0.46585
 Alpha  occ. eigenvalues --   -0.45968  -0.45924  -0.45819  -0.45633  -0.45248
 Alpha  occ. eigenvalues --   -0.44953  -0.44698  -0.44499  -0.43962  -0.43018
 Alpha  occ. eigenvalues --   -0.42864  -0.42772  -0.42417  -0.42126  -0.41870
 Alpha  occ. eigenvalues --   -0.41251  -0.40692  -0.40356  -0.39489  -0.38296
 Alpha  occ. eigenvalues --   -0.38131  -0.37891  -0.37559  -0.37387  -0.37133
 Alpha  occ. eigenvalues --   -0.36965  -0.36150  -0.35542  -0.35259  -0.35130
 Alpha  occ. eigenvalues --   -0.34920  -0.34637  -0.34375  -0.34003  -0.32674
 Alpha  occ. eigenvalues --   -0.31935  -0.31037  -0.27771  -0.26821  -0.26735
 Alpha  occ. eigenvalues --   -0.26497  -0.26330  -0.25766  -0.25560  -0.25322
 Alpha  occ. eigenvalues --   -0.23330  -0.22531  -0.21342  -0.18214
 Alpha virt. eigenvalues --   -0.03656  -0.03261  -0.02381  -0.02265  -0.01891
 Alpha virt. eigenvalues --   -0.01479  -0.01214  -0.00724   0.01978   0.02909
 Alpha virt. eigenvalues --    0.03720   0.04192   0.04684   0.05031   0.05089

 Mulliken charges:
               1
     1  P    0.156516
     2  P    0.160210
     3  C   -0.004527
     4  C   -0.176341
     5  H    0.120423
     6  C   -0.091528
     7  H    0.112624
     8  C   -0.099406
     9  H    0.111804
    10  C   -0.103046
    11  H    0.108523
    12  C   -0.190362
    13  H    0.168012
    14  C    0.137673
    15  C   -0.188334
    16  H    0.136332
    17  C   -0.117912
    18  H    0.104645
    19  C   -0.114778
    20  H    0.104175
    21  C   -0.119254
    22  H    0.106988
    23  C   -0.242970
    24  H    0.117651
    25  C   -0.175213
    26  H    0.085030
    27  C   -0.149416
    28  H    0.121465
    29  H    0.093393
    30  C    0.052068
    31  C   -0.163264
    32  H    0.164544
    33  C   -0.161988
    34  H    0.106057
    35  C   -0.101352
    36  H    0.105796
    37  C   -0.121520
    38  H    0.107482
    39  C   -0.191540
    40  H    0.137432
    41  C    0.057427
    42  C   -0.207166
    43  H    0.138426
    44  C   -0.096391
    45  H    0.108855
    46  C   -0.105579
    47  H    0.111599
    48  C   -0.093339
    49  H    0.111546
    50  C   -0.199500
    51  H    0.122018
    52  N   -0.181345
    53  C   -0.104323
    54  H    0.061957
    55  H    0.107484
    56  C   -0.108210
    57  H    0.069198
    58  H    0.127244
    59  N   -0.321863
    60  H    0.171785
    61  C   -0.247500
    62  H    0.086116
    63  H    0.113148
    64  H    0.117152
    65  C   -0.284976
    66  H    0.093934
    67  H    0.118626
    68  H    0.127585
 Sum of Mulliken charges =  -0.00000

 Dipole moment (field-independent basis, Debye):
    X=              0.4807    Y=             -0.5817    Z=              3.4386  Tot=              3.5204
 Quadrupole moment (field-independent basis, Debye-Ang):
   XX=           -211.6109   YY=           -197.6060   ZZ=           -218.8309
   XY=              0.7380   XZ=              0.2647   YZ=              2.7787

 Summary of Natural Population Analysis:

                                       Natural Population
                Natural  -----------------------------------------------
    Atom  No    Charge         Core      Valence    Rydberg      Total
 -----------------------------------------------------------------------
      P    1    0.83564      9.99800     4.13438    0.03198    14.16436
      P    2    0.84637      9.99806     4.12389    0.03168    14.15363
      C    3   -0.34724      1.99900     4.31572    0.03252     6.34724
      C    4   -0.18965      1.99910     4.17011    0.02043     6.18965
      H    5    0.22233      0.00000     0.77611    0.00156     0.77767
      C    6   -0.21087      1.99918     4.19240    0.01929     6.21087
      H    7    0.21111      0.00000     0.78764    0.00125     0.78889
      C    8   -0.19488      1.99919     4.17667    0.01902     6.19488
      H    9    0.20869      0.00000     0.79013    0.00118     0.79131
      C   10   -0.21244      1.99918     4.19401    0.01925     6.21244
      H   11    0.20798      0.00000     0.79064    0.00138     0.79202
      C   12   -0.19638      1.99908     4.17569    0.02160     6.19638
      H   13    0.23028      0.00000     0.76707    0.00266     0.76972
      C   14   -0.31338      1.99899     4.28310    0.03128     6.31338
      C   15   -0.21372      1.99909     4.19519    0.01944     6.21372
      H   16    0.21299      0.00000     0.78528    0.00173     0.78701
      C   17   -0.19507      1.99919     4.17716    0.01872     6.19507
      H   18    0.20646      0.00000     0.79226    0.00128     0.79354
      C   19   -0.22214      1.99919     4.20321    0.01975     6.22214
      H   20    0.20641      0.00000     0.79240    0.00118     0.79359
      C   21   -0.19524      1.99918     4.17714    0.01891     6.19524
      H   22    0.20873      0.00000     0.79000    0.00128     0.79127
      C   23   -0.21437      1.99908     4.19583    0.01947     6.21437
      H   24    0.20017      0.00000     0.79781    0.00202     0.79983
      C   25   -0.76041      1.99937     4.72523    0.03580     6.76041
      H   26    0.25120      0.00000     0.74689    0.00191     0.74880
      C   27   -0.23306      1.99928     4.21335    0.02044     6.23306
      H   28    0.20454      0.00000     0.79259    0.00287     0.79546
      H   29    0.17011      0.00000     0.82484    0.00505     0.82989
      C   30   -0.32741      1.99899     4.29723    0.03120     6.32741
      C   31   -0.21743      1.99908     4.19867    0.01968     6.21743
      H   32    0.21014      0.00000     0.78789    0.00197     0.78986
      C   33   -0.19561      1.99918     4.17792    0.01850     6.19561
      H   34    0.20794      0.00000     0.79078    0.00128     0.79206
      C   35   -0.21700      1.99919     4.19827    0.01954     6.21700
      H   36    0.20721      0.00000     0.79161    0.00118     0.79279
      C   37   -0.19602      1.99919     4.17825    0.01858     6.19602
      H   38    0.20768      0.00000     0.79105    0.00127     0.79232
      C   39   -0.21164      1.99910     4.19302    0.01952     6.21164
      H   40    0.21426      0.00000     0.78397    0.00177     0.78574
      C   41   -0.33486      1.99901     4.30317    0.03268     6.33486
      C   42   -0.19989      1.99908     4.18073    0.02008     6.19989
      H   43    0.21222      0.00000     0.78543    0.00235     0.78778
      C   44   -0.20469      1.99919     4.18653    0.01897     6.20469
      H   45    0.20779      0.00000     0.79085    0.00137     0.79221
      C   46   -0.19849      1.99919     4.18026    0.01904     6.19849
      H   47    0.20888      0.00000     0.78994    0.00117     0.79112
      C   48   -0.20409      1.99918     4.18555    0.01936     6.20409
      H   49    0.21034      0.00000     0.78841    0.00125     0.78966
      C   50   -0.19528      1.99910     4.17588    0.02029     6.19528
      H   51    0.21883      0.00000     0.77965    0.00153     0.78117
      N   52   -0.42276      1.99951     5.39304    0.03021     7.42276
      C   53   -0.21315      1.99933     4.19704    0.01677     6.21315
      H   54    0.14962      0.00000     0.84524    0.00513     0.85038
      H   55    0.19912      0.00000     0.79820    0.00268     0.80088
      C   56   -0.21361      1.99937     4.19794    0.01630     6.21361
      H   57    0.14598      0.00000     0.85053    0.00349     0.85402
      H   58    0.19607      0.00000     0.80147    0.00246     0.80393
      N   59   -0.60289      1.99957     5.57626    0.02706     7.60289
      H   60    0.34097      0.00000     0.65667    0.00236     0.65903
      C   61   -0.39629      1.99943     4.38633    0.01054     6.39629
      H   62    0.15493      0.00000     0.84187    0.00320     0.84507
      H   63    0.19326      0.00000     0.80544    0.00130     0.80674
      H   64    0.18851      0.00000     0.80968    0.00181     0.81149
      C   65   -0.40162      1.99937     4.39187    0.01038     6.40162
      H   66    0.16001      0.00000     0.83595    0.00404     0.83999
      H   67    0.19614      0.00000     0.80214    0.00172     0.80386
      H   68    0.19867      0.00000     0.79980    0.00153     0.80133
 =======================================================================
   * Total *   -0.00000     83.97021   173.21129    0.81850   258.00000

 Normal termination of Gaussian 16 at Fri Jan 24 16:04:05 2025.
