 Gaussian 16, Revision B.01,
 Gaussian 16:  ES64L-G16RevB.01 20-Dec-2017

 --------------------------------------------
 # nmr=giao b3lyp/def2TZVP pop=nbo scfcyc=200
 --------------------------------------------

 --------------
 MS-32 SPE NoRh
 --------------
 Symbolic Z-matrix:
 Charge =  0 Multiplicity = 1

                         Standard orientation:
 ---------------------------------------------------------------------
 Center     Atomic      Atomic             Coordinates (Angstroms)
 Number     Number       Type             X           Y           Z
 ---------------------------------------------------------------------
      1         15           0        0.960255    0.579336   -1.298846
      2         15           0       -1.785352    0.083124   -1.024019
      3          6           0       -0.187443   -0.281340   -0.060147
      4          6           0       -0.094733   -0.098977    1.466338
      5          6           0        2.485989   -0.426591   -1.542050
      6          6           0        3.531299    0.148814   -2.276375
      7          6           0        4.675706   -0.582491   -2.564365
      8          6           0        4.789679   -1.900370   -2.130195
      9          6           0        3.754946   -2.479096   -1.404301
     10          6           0        2.606300   -1.749523   -1.114066
     11          6           0        1.551810    2.158792   -0.560097
     12          6           0        0.917273    3.355959   -0.906664
     13          6           0        1.338311    4.560742   -0.351791
     14          6           0        2.399572    4.580337    0.546015
     15          6           0        3.042698    3.394492    0.888580
     16          6           0        2.624368    2.187928    0.339229
     17          6           0       -2.722993   -1.501528   -0.919642
     18          6           0       -2.566358   -2.440261   -1.943637
     19          6           0       -3.181601   -3.684733   -1.857244
     20          6           0       -3.958267   -4.001628   -0.748468
     21          6           0       -4.115648   -3.073445    0.277561
     22          6           0       -3.501389   -1.828933    0.196915
     23          6           0       -2.829883    1.336554   -0.171174
     24          6           0       -2.281915    2.355834    0.612579
     25          6           0       -3.097815    3.345105    1.150601
     26          6           0       -4.465472    3.338924    0.903184
     27          6           0       -5.017140    2.337452    0.110146
     28          6           0       -4.207421    1.344217   -0.426123
     29          1           0       -0.069670   -1.341358   -0.299816
     30          1           0        0.209974    0.919816    1.706094
     31          1           0       -1.098527   -0.220339    1.882693
     32          1           0        3.464845    1.178287   -2.609906
     33          1           0        5.479952   -0.123025   -3.125145
     34          1           0        5.682817   -2.470007   -2.352210
     35          1           0        3.841368   -3.500817   -1.054702
     36          1           0        1.824855   -2.221466   -0.535896
     37          1           0        0.097190    3.341737   -1.614432
     38          1           0        0.842640    5.482835   -0.628800
     39          1           0        2.732547    5.519254    0.971785
     40          1           0        3.874970    3.407333    1.580872
     41          1           0        3.144331    1.274966    0.598759
     42          1           0       -1.958438   -2.197060   -2.807270
     43          1           0       -3.058032   -4.402959   -2.657201
     44          1           0       -4.442376   -4.967774   -0.682630
     45          1           0       -4.720756   -3.317153    1.142549
     46          1           0       -3.642406   -1.114782    0.996871
     47          1           0       -1.219257    2.393768    0.806667
     48          1           0       -2.659733    4.121781    1.765506
     49          1           0       -5.098748    4.108787    1.324903
     50          1           0       -6.081452    2.325992   -0.089804
     51          1           0       -4.657231    0.568176   -1.034167
     52          6           0        0.836506   -1.071372    2.156380
     53          6           0        1.993411   -0.630734    2.798267
     54          6           0        0.563955   -2.439748    2.211505
     55          1           0        2.233462    0.428160    2.812301
     56          6           0        1.445442   -3.284020    2.870379
     57          1           0       -0.335620   -2.840613    1.755223
     58          1           0        1.256566   -4.348063    2.937878
     59          7           0        2.853644   -1.429151    3.430559
     60          6           0        2.581212   -2.732989    3.458631
     61          1           0        3.295292   -3.362542    3.979101
 ---------------------------------------------------------------------

 SCF Done:  E(RB3LYP) =  -1935.48782001     A.U. after   15 cycles

      1  P    Isotropic =   211.3194   Anisotropy =   107.6383

      2  P    Isotropic =   209.0839   Anisotropy =   109.9753

      3  C    Isotropic =   129.8490   Anisotropy =    29.0181

      4  C    Isotropic =   149.7374   Anisotropy =    24.2090

      5  C    Isotropic =    33.7027   Anisotropy =   195.1244

      6  C    Isotropic =    48.9974   Anisotropy =   183.1507

      7  C    Isotropic =    49.9379   Anisotropy =   183.8583

      8  C    Isotropic =    53.3086   Anisotropy =   180.2781

      9  C    Isotropic =    50.8096   Anisotropy =   182.8907

     10  C    Isotropic =    50.8673   Anisotropy =   184.1925

     11  C    Isotropic =    37.2333   Anisotropy =   200.1650

     12  C    Isotropic =    38.2126   Anisotropy =   186.6162

     13  C    Isotropic =    50.0248   Anisotropy =   183.8256

     14  C    Isotropic =    48.2410   Anisotropy =   189.4586

     15  C    Isotropic =    49.2889   Anisotropy =   184.3604

     16  C    Isotropic =    37.5818   Anisotropy =   190.7835

     17  C    Isotropic =    30.1576   Anisotropy =   211.7908

     18  C    Isotropic =    42.0940   Anisotropy =   181.2487

     19  C    Isotropic =    48.9176   Anisotropy =   185.5936

     20  C    Isotropic =    48.6012   Anisotropy =   188.6538

     21  C    Isotropic =    48.9598   Anisotropy =   184.4863

     22  C    Isotropic =    44.3654   Anisotropy =   187.0084

     23  C    Isotropic =    35.6120   Anisotropy =   187.4351

     24  C    Isotropic =    47.7646   Anisotropy =   180.5066

     25  C    Isotropic =    50.6720   Anisotropy =   183.2139

     26  C    Isotropic =    53.0155   Anisotropy =   181.1890

     27  C    Isotropic =    49.5968   Anisotropy =   184.2564

     28  C    Isotropic =    48.2575   Anisotropy =   183.9678

     29  H    Isotropic =    29.1420   Anisotropy =     3.9159

     30  H    Isotropic =    29.0720   Anisotropy =     4.9398

     31  H    Isotropic =    28.6648   Anisotropy =     5.5235

     32  H    Isotropic =    24.7546   Anisotropy =    12.0010

     33  H    Isotropic =    24.5919   Anisotropy =     5.4082

     34  H    Isotropic =    24.8150   Anisotropy =     4.1153

     35  H    Isotropic =    24.9526   Anisotropy =     7.4915

     36  H    Isotropic =    25.2725   Anisotropy =     8.6215

     37  H    Isotropic =    23.5825   Anisotropy =     8.2257

     38  H    Isotropic =    24.1297   Anisotropy =     5.4470

     39  H    Isotropic =    24.1090   Anisotropy =     4.1766

     40  H    Isotropic =    24.1405   Anisotropy =     6.4300

     41  H    Isotropic =    23.9740   Anisotropy =    10.0405

     42  H    Isotropic =    23.6596   Anisotropy =     9.0405

     43  H    Isotropic =    24.0868   Anisotropy =     5.3641

     44  H    Isotropic =    24.1575   Anisotropy =     3.9483

     45  H    Isotropic =    24.2259   Anisotropy =     6.3606

     46  H    Isotropic =    23.9033   Anisotropy =    11.3415

     47  H    Isotropic =    24.7118   Anisotropy =     7.6770

     48  H    Isotropic =    24.5567   Anisotropy =     7.6482

     49  H    Isotropic =    24.5471   Anisotropy =     4.3803

     50  H    Isotropic =    24.3921   Anisotropy =     5.5757

     51  H    Isotropic =    24.4867   Anisotropy =    11.7685

     52  C    Isotropic =    38.5598   Anisotropy =   195.2731

     53  C    Isotropic =    25.9408   Anisotropy =   154.4751

     54  C    Isotropic =    42.8493   Anisotropy =   193.7773

     55  H    Isotropic =    23.1607   Anisotropy =     8.7715

     56  C    Isotropic =    55.6460   Anisotropy =   174.4102

     57  H    Isotropic =    24.6774   Anisotropy =     9.9252

     58  H    Isotropic =    24.6885   Anisotropy =     7.3578

     59  N    Isotropic =  -101.4385   Anisotropy =   581.1322

     60  C    Isotropic =    28.8749   Anisotropy =   171.4806

     61  H    Isotropic =    23.2049   Anisotropy =     5.6430

 The electronic state is 1-A.
 Alpha  occ. eigenvalues --  -77.05434 -77.05119 -14.31428 -10.20853 -10.20715
 Alpha  occ. eigenvalues --  -10.20394 -10.19565 -10.19488 -10.19240 -10.19041
 Alpha  occ. eigenvalues --  -10.18951 -10.18911 -10.18761 -10.18622 -10.18596
 Alpha  occ. eigenvalues --  -10.18532 -10.18489 -10.18480 -10.18475 -10.18464
 Alpha  occ. eigenvalues --  -10.18448 -10.18325 -10.18302 -10.18215 -10.17979
 Alpha  occ. eigenvalues --  -10.17975 -10.17892 -10.17883 -10.17673 -10.17564
 Alpha  occ. eigenvalues --  -10.17538 -10.17476 -10.17469 -10.17248  -6.53985
 Alpha  occ. eigenvalues --   -6.53682  -4.70135  -4.70106  -4.69834  -4.69799
 Alpha  occ. eigenvalues --   -4.69621  -4.69318  -0.94734  -0.86883  -0.86663
 Alpha  occ. eigenvalues --   -0.86142  -0.85723  -0.83125  -0.79382  -0.77478
 Alpha  occ. eigenvalues --   -0.76824  -0.75853  -0.75668  -0.75347  -0.75004
 Alpha  occ. eigenvalues --   -0.74988  -0.74677  -0.74310  -0.68304  -0.64435
 Alpha  occ. eigenvalues --   -0.63796  -0.62651  -0.61713  -0.61473  -0.61158
 Alpha  occ. eigenvalues --   -0.60886  -0.60519  -0.60277  -0.60009  -0.56583
 Alpha  occ. eigenvalues --   -0.55372  -0.53040  -0.52566  -0.52319  -0.50858
 Alpha  occ. eigenvalues --   -0.50450  -0.49588  -0.47218  -0.46505  -0.46371
 Alpha  occ. eigenvalues --   -0.46239  -0.46013  -0.45791  -0.45506  -0.45404
 Alpha  occ. eigenvalues --   -0.45050  -0.44128  -0.43523  -0.43387  -0.43057
 Alpha  occ. eigenvalues --   -0.42757  -0.42401  -0.42143  -0.41258  -0.41085
 Alpha  occ. eigenvalues --   -0.40852  -0.39895  -0.38810  -0.38403  -0.38264
 Alpha  occ. eigenvalues --   -0.37835  -0.37570  -0.37298  -0.36771  -0.35688
 Alpha  occ. eigenvalues --   -0.35554  -0.35442  -0.35025  -0.34575  -0.33102
 Alpha  occ. eigenvalues --   -0.32425  -0.31385  -0.29453  -0.28242  -0.27322
 Alpha  occ. eigenvalues --   -0.27244  -0.26967  -0.26774  -0.26580  -0.26369
 Alpha  occ. eigenvalues --   -0.26130  -0.25911  -0.25688  -0.21955  -0.18736
 Alpha virt. eigenvalues --   -0.04321  -0.04035  -0.03389  -0.02953  -0.02814
 Alpha virt. eigenvalues --   -0.02327  -0.02162  -0.02027  -0.01429  -0.01009
 Alpha virt. eigenvalues --    0.01943   0.03259   0.04123   0.04668   0.04802

 Mulliken charges:
               1
     1  P    0.142596
     2  P    0.151620
     3  C   -0.211897
     4  C   -0.229663
     5  C    0.089567
     6  C   -0.178902
     7  C   -0.112010
     8  C   -0.108093
     9  C   -0.132269
    10  C   -0.173868
    11  C   -0.008421
    12  C   -0.179318
    13  C   -0.098897
    14  C   -0.097421
    15  C   -0.111423
    16  C   -0.196057
    17  C    0.048254
    18  C   -0.190957
    19  C   -0.097772
    20  C   -0.104293
    21  C   -0.104809
    22  C   -0.207583
    23  C    0.056071
    24  C   -0.156687
    25  C   -0.153625
    26  C   -0.104125
    27  C   -0.111906
    28  C   -0.199459
    29  H    0.110740
    30  H    0.133280
    31  H    0.129717
    32  H    0.118523
    33  H    0.107786
    34  H    0.106379
    35  H    0.103505
    36  H    0.125838
    37  H    0.127233
    38  H    0.113827
    39  H    0.113346
    40  H    0.115158
    41  H    0.178172
    42  H    0.122576
    43  H    0.113419
    44  H    0.113432
    45  H    0.111550
    46  H    0.139416
    47  H    0.158942
    48  H    0.107446
    49  H    0.108212
    50  H    0.109549
    51  H    0.129750
    52  C    0.133921
    53  C   -0.116287
    54  C   -0.215659
    55  H    0.141491
    56  C   -0.098047
    57  H    0.154918
    58  H    0.111881
    59  N   -0.209633
    60  C   -0.037484
    61  H    0.118445
 Sum of Mulliken charges =  -0.00000

 Dipole moment (field-independent basis, Debye):
    X=             -1.6059    Y=             -0.9153    Z=              0.8808  Tot=              2.0475
 Quadrupole moment (field-independent basis, Debye-Ang):
   XX=           -208.2479   YY=           -188.5084   ZZ=           -225.3079
   XY=              4.8044   XZ=             -8.2138   YZ=              3.2981

 Summary of Natural Population Analysis:

                                       Natural Population
                Natural  -----------------------------------------------
    Atom  No    Charge         Core      Valence    Rydberg      Total
 -----------------------------------------------------------------------
      P    1    0.83528      9.99802     4.13468    0.03203    14.16472
      P    2    0.84962      9.99805     4.12080    0.03152    14.15038
      C    3   -0.75271      1.99938     4.72011    0.03322     6.75271
      C    4   -0.43310      1.99930     4.41559    0.01821     6.43310
      C    5   -0.32194      1.99899     4.29185    0.03110     6.32194
      C    6   -0.20584      1.99909     4.18711    0.01965     6.20584
      C    7   -0.19543      1.99918     4.17768    0.01856     6.19543
      C    8   -0.21468      1.99919     4.19606    0.01944     6.21468
      C    9   -0.19345      1.99919     4.17557    0.01870     6.19345
      C   10   -0.21525      1.99908     4.19664    0.01953     6.21525
      C   11   -0.34196      1.99899     4.31026    0.03271     6.34196
      C   12   -0.19467      1.99909     4.17526    0.02032     6.19467
      C   13   -0.20641      1.99918     4.18856    0.01867     6.20641
      C   14   -0.19639      1.99919     4.17813    0.01907     6.19639
      C   15   -0.20584      1.99918     4.18792    0.01874     6.20584
      C   16   -0.19787      1.99908     4.17851    0.02028     6.19787
      C   17   -0.33330      1.99901     4.30180    0.03249     6.33330
      C   18   -0.19756      1.99910     4.17802    0.02044     6.19756
      C   19   -0.20326      1.99918     4.18470    0.01938     6.20326
      C   20   -0.20015      1.99919     4.18185    0.01911     6.20015
      C   21   -0.20498      1.99919     4.18679    0.01900     6.20498
      C   22   -0.20294      1.99908     4.18398    0.01988     6.20294
      C   23   -0.33266      1.99899     4.30270    0.03097     6.33266
      C   24   -0.21755      1.99908     4.19881    0.01966     6.21755
      C   25   -0.19601      1.99918     4.17825    0.01858     6.19601
      C   26   -0.21435      1.99919     4.19566    0.01950     6.21435
      C   27   -0.19660      1.99918     4.17884    0.01858     6.19660
      C   28   -0.20775      1.99909     4.18900    0.01966     6.20775
      H   29    0.25272      0.00000     0.74535    0.00193     0.74728
      H   30    0.21826      0.00000     0.77935    0.00240     0.78174
      H   31    0.21992      0.00000     0.77718    0.00290     0.78008
      H   32    0.21139      0.00000     0.78685    0.00176     0.78861
      H   33    0.20842      0.00000     0.79031    0.00127     0.79158
      H   34    0.20764      0.00000     0.79119    0.00117     0.79236
      H   35    0.20731      0.00000     0.79141    0.00128     0.79269
      H   36    0.20287      0.00000     0.79521    0.00192     0.79713
      H   37    0.22035      0.00000     0.77778    0.00186     0.77965
      H   38    0.21162      0.00000     0.78712    0.00125     0.78838
      H   39    0.20982      0.00000     0.78901    0.00117     0.79018
      H   40    0.21128      0.00000     0.78740    0.00131     0.78872
      H   41    0.21942      0.00000     0.77838    0.00220     0.78058
      H   42    0.21926      0.00000     0.77920    0.00154     0.78074
      H   43    0.21110      0.00000     0.78765    0.00125     0.78890
      H   44    0.20960      0.00000     0.78924    0.00117     0.79040
      H   45    0.20899      0.00000     0.78965    0.00136     0.79101
      H   46    0.21335      0.00000     0.78435    0.00230     0.78665
      H   47    0.20995      0.00000     0.78801    0.00204     0.79005
      H   48    0.20891      0.00000     0.78981    0.00128     0.79109
      H   49    0.20832      0.00000     0.79051    0.00117     0.79168
      H   50    0.20895      0.00000     0.78979    0.00126     0.79105
      H   51    0.21391      0.00000     0.78432    0.00177     0.78609
      C   52   -0.05267      1.99904     4.03133    0.02231     6.05267
      C   53    0.03437      1.99910     3.94319    0.02334     5.96563
      C   54   -0.18026      1.99906     4.16281    0.01839     6.18026
      H   55    0.18579      0.00000     0.81236    0.00185     0.81421
      C   56   -0.24019      1.99915     4.22221    0.01883     6.24019
      H   57    0.21178      0.00000     0.78634    0.00188     0.78822
      H   58    0.21368      0.00000     0.78503    0.00129     0.78632
      N   59   -0.40244      1.99947     5.37004    0.03293     7.40244
      C   60    0.02586      1.99924     3.94973    0.02517     5.97414
      H   61    0.18849      0.00000     0.81016    0.00135     0.81151
 =======================================================================
   * Total *    0.00000     83.96870   165.21739    0.81390   250.00000

 Normal termination of Gaussian 16 at Fri Jan 24 16:01:05 2025.
