 Gaussian 16, Revision B.01,
 Gaussian 16:  ES64L-G16RevB.01 20-Dec-2017

 --------------------------------------------
 # nmr=giao b3lyp/def2TZVP pop=nbo scfcyc=200
 --------------------------------------------

 --------------
 MS-31 SPE NoRh
 --------------
 Symbolic Z-matrix:
 Charge =  0 Multiplicity = 1

                         Standard orientation:
 ---------------------------------------------------------------------
 Center     Atomic      Atomic             Coordinates (Angstroms)
 Number     Number       Type             X           Y           Z
 ---------------------------------------------------------------------
      1         15           0        0.979522    0.632588   -1.282517
      2         15           0       -1.763021    0.107097   -1.036019
      3          6           0       -0.168463   -0.271498   -0.075912
      4          6           0       -0.080043   -0.141455    1.455787
      5          6           0        2.526197   -0.341019   -1.520879
      6          6           0        3.567089    0.263371   -2.238941
      7          6           0        4.728638   -0.443584   -2.520664
      8          6           0        4.865702   -1.763115   -2.096564
      9          6           0        3.835561   -2.368912   -1.387413
     10          6           0        2.668333   -1.665446   -1.103127
     11          6           0        1.533689    2.204973   -0.499036
     12          6           0        0.896984    3.402097   -0.839204
     13          6           0        1.292110    4.599962   -0.251544
     14          6           0        2.330514    4.612444    0.674055
     15          6           0        2.973932    3.424617    1.012101
     16          6           0        2.581237    2.225516    0.430488
     17          6           0       -2.700934   -1.477941   -0.962611
     18          6           0       -2.526699   -2.407768   -1.992343
     19          6           0       -3.142041   -3.653767   -1.926765
     20          6           0       -3.937176   -3.981384   -0.833213
     21          6           0       -4.112985   -3.061843    0.197366
     22          6           0       -3.498121   -1.816414    0.138148
     23          6           0       -2.809659    1.344795   -0.163494
     24          6           0       -2.268959    2.330618    0.665303
     25          6           0       -3.086729    3.309814    1.220658
     26          6           0       -4.449179    3.324169    0.945496
     27          6           0       -4.994508    2.354926    0.108718
     28          6           0       -4.182369    1.373011   -0.445259
     29          1           0       -0.040423   -1.321915   -0.352287
     30          1           0        0.254802    0.858144    1.732464
     31          1           0       -1.088509   -0.249485    1.864002
     32          1           0        3.483729    1.293126   -2.563912
     33          1           0        5.528845    0.037317   -3.068949
     34          1           0        5.772221   -2.312416   -2.313322
     35          1           0        3.938368   -3.391062   -1.044892
     36          1           0        1.890336   -2.159104   -0.538595
     37          1           0        0.095492    3.392932   -1.567322
     38          1           0        0.796070    5.522358   -0.524805
     39          1           0        2.643336    5.545069    1.124844
     40          1           0        3.789468    3.433116    1.725175
     41          1           0        3.102541    1.311875    0.683473
     42          1           0       -1.904902   -2.156921   -2.843355
     43          1           0       -3.004907   -4.364760   -2.731484
     44          1           0       -4.421023   -4.948386   -0.784334
     45          1           0       -4.731243   -3.314467    1.049899
     46          1           0       -3.652048   -1.109661    0.942799
     47          1           0       -1.210313    2.351599    0.882629
     48          1           0       -2.654471    4.061015    1.869813
     49          1           0       -5.084172    4.085580    1.381204
     50          1           0       -6.054458    2.359916   -0.112038
     51          1           0       -4.626599    0.621458   -1.086695
     52          6           0        0.812317   -1.171791    2.113901
     53          6           0        1.958268   -0.807608    2.815093
     54          6           0        0.500929   -2.532591    2.065891
     55          6           0        2.739011   -1.797648    3.407907
     56          1           0        2.243227    0.232528    2.912725
     57          6           0        1.342535   -3.444866    2.691470
     58          1           0       -0.391501   -2.885169    1.561496
     59          1           0        3.636738   -1.530893    3.955480
     60          1           0        1.113225   -4.505191    2.668218
     61          7           0        2.451081   -3.097407    3.349047
 ---------------------------------------------------------------------

 SCF Done:  E(RB3LYP) =  -1935.48899034     A.U. after   15 cycles

      1  P    Isotropic =   210.8181   Anisotropy =   109.9488

      2  P    Isotropic =   209.1672   Anisotropy =   107.0898

      3  C    Isotropic =   130.0726   Anisotropy =    27.4085

      4  C    Isotropic =   147.3862   Anisotropy =    27.6431

      5  C    Isotropic =    33.5738   Anisotropy =   194.6955

      6  C    Isotropic =    49.0861   Anisotropy =   183.3194

      7  C    Isotropic =    49.8946   Anisotropy =   183.9070

      8  C    Isotropic =    53.2582   Anisotropy =   180.7060

      9  C    Isotropic =    50.4469   Anisotropy =   184.1752

     10  C    Isotropic =    50.5696   Anisotropy =   184.0983

     11  C    Isotropic =    36.4920   Anisotropy =   201.4320

     12  C    Isotropic =    38.1571   Anisotropy =   187.0369

     13  C    Isotropic =    49.7448   Anisotropy =   184.6217

     14  C    Isotropic =    48.2502   Anisotropy =   189.7094

     15  C    Isotropic =    49.6951   Anisotropy =   183.3197

     16  C    Isotropic =    37.9459   Anisotropy =   189.6617

     17  C    Isotropic =    30.3823   Anisotropy =   211.2101

     18  C    Isotropic =    42.1766   Anisotropy =   181.4775

     19  C    Isotropic =    48.6710   Anisotropy =   185.8156

     20  C    Isotropic =    48.3955   Anisotropy =   188.9123

     21  C    Isotropic =    48.9273   Anisotropy =   184.6286

     22  C    Isotropic =    44.3581   Anisotropy =   187.1766

     23  C    Isotropic =    35.7892   Anisotropy =   187.3013

     24  C    Isotropic =    47.8331   Anisotropy =   180.7109

     25  C    Isotropic =    50.6530   Anisotropy =   183.2429

     26  C    Isotropic =    52.8761   Anisotropy =   181.4407

     27  C    Isotropic =    49.4849   Anisotropy =   184.3564

     28  C    Isotropic =    47.9571   Anisotropy =   184.5557

     29  H    Isotropic =    29.0473   Anisotropy =     3.8478

     30  H    Isotropic =    29.1595   Anisotropy =     4.7421

     31  H    Isotropic =    28.6159   Anisotropy =     5.5071

     32  H    Isotropic =    24.7864   Anisotropy =    11.9777

     33  H    Isotropic =    24.5970   Anisotropy =     5.4004

     34  H    Isotropic =    24.8008   Anisotropy =     4.1481

     35  H    Isotropic =    24.9420   Anisotropy =     7.6420

     36  H    Isotropic =    25.2504   Anisotropy =     8.3285

     37  H    Isotropic =    23.6101   Anisotropy =     8.2037

     38  H    Isotropic =    24.1433   Anisotropy =     5.4236

     39  H    Isotropic =    24.1325   Anisotropy =     4.1887

     40  H    Isotropic =    24.1966   Anisotropy =     6.4613

     41  H    Isotropic =    24.0612   Anisotropy =    10.0201

     42  H    Isotropic =    23.6581   Anisotropy =     9.0685

     43  H    Isotropic =    24.0583   Anisotropy =     5.3677

     44  H    Isotropic =    24.1399   Anisotropy =     3.9582

     45  H    Isotropic =    24.2287   Anisotropy =     6.3831

     46  H    Isotropic =    23.9395   Anisotropy =    11.3639

     47  H    Isotropic =    24.8626   Anisotropy =     7.6356

     48  H    Isotropic =    24.5994   Anisotropy =     7.7060

     49  H    Isotropic =    24.5448   Anisotropy =     4.3886

     50  H    Isotropic =    24.3842   Anisotropy =     5.5435

     51  H    Isotropic =    24.4678   Anisotropy =    11.7203

     52  C    Isotropic =    24.0516   Anisotropy =   222.1059

     53  C    Isotropic =    54.2138   Anisotropy =   155.8968

     54  C    Isotropic =    55.3254   Anisotropy =   166.9700

     55  C    Isotropic =    26.4975   Anisotropy =   170.6528

     56  H    Isotropic =    24.7466   Anisotropy =     8.4648

     57  C    Isotropic =    26.4328   Anisotropy =   170.9059

     58  H    Isotropic =    25.1350   Anisotropy =     9.1486

     59  H    Isotropic =    23.2448   Anisotropy =     7.4973

     60  H    Isotropic =    23.1555   Anisotropy =     8.7310

     61  N    Isotropic =   -93.3110   Anisotropy =   579.8455

 The electronic state is 1-A.
 Alpha  occ. eigenvalues --  -77.05546 -77.05269 -14.31236 -10.20961 -10.20956
 Alpha  occ. eigenvalues --  -10.20556 -10.20524 -10.19433 -10.19145 -10.19120
 Alpha  occ. eigenvalues --  -10.18994 -10.18740 -10.18683 -10.18627 -10.18616
 Alpha  occ. eigenvalues --  -10.18611 -10.18557 -10.18550 -10.18530 -10.18513
 Alpha  occ. eigenvalues --  -10.18492 -10.18452 -10.18446 -10.18443 -10.18101
 Alpha  occ. eigenvalues --  -10.18096 -10.18009 -10.18001 -10.17795 -10.17649
 Alpha  occ. eigenvalues --  -10.17622 -10.17575 -10.17514 -10.17328  -6.54097
 Alpha  occ. eigenvalues --   -6.53829  -4.70249  -4.70218  -4.69983  -4.69946
 Alpha  occ. eigenvalues --   -4.69733  -4.69465  -0.94643  -0.86951  -0.86838
 Alpha  occ. eigenvalues --   -0.86226  -0.85807  -0.83750  -0.78729  -0.76969
 Alpha  occ. eigenvalues --   -0.76623  -0.75920  -0.75864  -0.75650  -0.75299
 Alpha  occ. eigenvalues --   -0.75058  -0.74877  -0.74764  -0.68871  -0.64560
 Alpha  occ. eigenvalues --   -0.63847  -0.62591  -0.61741  -0.61671  -0.61252
 Alpha  occ. eigenvalues --   -0.60867  -0.60572  -0.60422  -0.60029  -0.56687
 Alpha  occ. eigenvalues --   -0.55548  -0.52909  -0.52489  -0.51736  -0.50958
 Alpha  occ. eigenvalues --   -0.50519  -0.49589  -0.47520  -0.46644  -0.46509
 Alpha  occ. eigenvalues --   -0.46398  -0.46210  -0.45938  -0.45627  -0.45534
 Alpha  occ. eigenvalues --   -0.45238  -0.44316  -0.43497  -0.43386  -0.43288
 Alpha  occ. eigenvalues --   -0.43167  -0.42716  -0.42423  -0.41688  -0.41242
 Alpha  occ. eigenvalues --   -0.40470  -0.39903  -0.38936  -0.38515  -0.38303
 Alpha  occ. eigenvalues --   -0.37831  -0.37540  -0.37394  -0.36450  -0.35766
 Alpha  occ. eigenvalues --   -0.35697  -0.35646  -0.35142  -0.34718  -0.33226
 Alpha  occ. eigenvalues --   -0.32543  -0.31436  -0.29013  -0.28186  -0.27437
 Alpha  occ. eigenvalues --   -0.27338  -0.27173  -0.26982  -0.26755  -0.26508
 Alpha  occ. eigenvalues --   -0.26155  -0.26033  -0.25777  -0.22162  -0.18886
 Alpha virt. eigenvalues --   -0.04240  -0.04155  -0.03474  -0.03083  -0.02630
 Alpha virt. eigenvalues --   -0.02545  -0.02306  -0.02241  -0.01514  -0.01141
 Alpha virt. eigenvalues --    0.01906   0.03292   0.04191   0.04368   0.04705

 Mulliken charges:
               1
     1  P    0.143115
     2  P    0.151573
     3  C   -0.220103
     4  C   -0.231164
     5  C    0.082899
     6  C   -0.176633
     7  C   -0.112872
     8  C   -0.106816
     9  C   -0.141523
    10  C   -0.171138
    11  C   -0.014870
    12  C   -0.175364
    13  C   -0.098813
    14  C   -0.098770
    15  C   -0.108833
    16  C   -0.178969
    17  C    0.047113
    18  C   -0.191609
    19  C   -0.097316
    20  C   -0.103920
    21  C   -0.105552
    22  C   -0.204195
    23  C    0.055038
    24  C   -0.153043
    25  C   -0.152958
    26  C   -0.104097
    27  C   -0.110978
    28  C   -0.200088
    29  H    0.115909
    30  H    0.137473
    31  H    0.130801
    32  H    0.117869
    33  H    0.107840
    34  H    0.107586
    35  H    0.108304
    36  H    0.135652
    37  H    0.126720
    38  H    0.114569
    39  H    0.113844
    40  H    0.110928
    41  H    0.162267
    42  H    0.122250
    43  H    0.113743
    44  H    0.114012
    45  H    0.111915
    46  H    0.138928
    47  H    0.156309
    48  H    0.107276
    49  H    0.108414
    50  H    0.110189
    51  H    0.129228
    52  C    0.120252
    53  C   -0.158124
    54  C   -0.197432
    55  C   -0.042951
    56  H    0.126514
    57  C   -0.040149
    58  H    0.147518
    59  H    0.116350
    60  H    0.117616
    61  N   -0.211729
 Sum of Mulliken charges =  -0.00000

 Dipole moment (field-independent basis, Debye):
    X=             -1.2784    Y=              1.3156    Z=              0.7593  Tot=              1.9853
 Quadrupole moment (field-independent basis, Debye-Ang):
   XX=           -204.1863   YY=           -200.2997   ZZ=           -224.7445
   XY=             12.1282   XZ=             -5.6695   YZ=             13.8855

 Summary of Natural Population Analysis:

                                       Natural Population
                Natural  -----------------------------------------------
    Atom  No    Charge         Core      Valence    Rydberg      Total
 -----------------------------------------------------------------------
      P    1    0.83651      9.99802     4.13354    0.03193    14.16349
      P    2    0.85192      9.99805     4.11850    0.03153    14.14808
      C    3   -0.75541      1.99938     4.72272    0.03332     6.75541
      C    4   -0.44083      1.99929     4.42329    0.01824     6.44083
      C    5   -0.32359      1.99900     4.29351    0.03108     6.32359
      C    6   -0.20636      1.99909     4.18764    0.01963     6.20636
      C    7   -0.19576      1.99919     4.17802    0.01855     6.19576
      C    8   -0.21474      1.99919     4.19614    0.01941     6.21474
      C    9   -0.19292      1.99919     4.17506    0.01867     6.19292
      C   10   -0.21575      1.99908     4.19713    0.01954     6.21575
      C   11   -0.34017      1.99899     4.30841    0.03277     6.34017
      C   12   -0.19349      1.99909     4.17409    0.02031     6.19349
      C   13   -0.20527      1.99918     4.18744    0.01864     6.20527
      C   14   -0.19647      1.99919     4.17824    0.01904     6.19647
      C   15   -0.20692      1.99918     4.18896    0.01877     6.20692
      C   16   -0.19901      1.99908     4.17984    0.02009     6.19901
      C   17   -0.33453      1.99901     4.30306    0.03246     6.33453
      C   18   -0.19783      1.99910     4.17833    0.02039     6.19783
      C   19   -0.20278      1.99919     4.18424    0.01936     6.20278
      C   20   -0.19948      1.99919     4.18121    0.01908     6.19948
      C   21   -0.20448      1.99919     4.18631    0.01898     6.20448
      C   22   -0.20257      1.99908     4.18362    0.01986     6.20257
      C   23   -0.33323      1.99899     4.30324    0.03100     6.33323
      C   24   -0.21787      1.99908     4.19913    0.01966     6.21787
      C   25   -0.19619      1.99918     4.17845    0.01856     6.19619
      C   26   -0.21391      1.99919     4.19524    0.01949     6.21391
      C   27   -0.19665      1.99918     4.17892    0.01855     6.19665
      C   28   -0.20657      1.99909     4.18784    0.01963     6.20657
      H   29    0.25578      0.00000     0.74231    0.00191     0.74422
      H   30    0.21756      0.00000     0.78004    0.00240     0.78244
      H   31    0.22400      0.00000     0.77318    0.00282     0.77600
      H   32    0.21113      0.00000     0.78712    0.00176     0.78887
      H   33    0.20823      0.00000     0.79050    0.00127     0.79177
      H   34    0.20812      0.00000     0.79071    0.00117     0.79188
      H   35    0.20948      0.00000     0.78925    0.00127     0.79052
      H   36    0.20500      0.00000     0.79303    0.00197     0.79500
      H   37    0.22087      0.00000     0.77728    0.00185     0.77913
      H   38    0.21198      0.00000     0.78676    0.00125     0.78802
      H   39    0.20992      0.00000     0.78891    0.00116     0.79008
      H   40    0.20937      0.00000     0.78930    0.00133     0.79063
      H   41    0.21702      0.00000     0.78072    0.00226     0.78298
      H   42    0.21892      0.00000     0.77954    0.00154     0.78108
      H   43    0.21132      0.00000     0.78743    0.00125     0.78868
      H   44    0.20994      0.00000     0.78890    0.00117     0.79006
      H   45    0.20934      0.00000     0.78930    0.00136     0.79066
      H   46    0.21341      0.00000     0.78430    0.00229     0.78659
      H   47    0.20977      0.00000     0.78821    0.00202     0.79023
      H   48    0.20884      0.00000     0.78989    0.00128     0.79116
      H   49    0.20841      0.00000     0.79041    0.00117     0.79159
      H   50    0.20929      0.00000     0.78945    0.00126     0.79071
      H   51    0.21409      0.00000     0.78414    0.00176     0.78591
      C   52    0.02711      1.99907     3.95204    0.02177     5.97289
      C   53   -0.25061      1.99903     4.23322    0.01835     6.25061
      C   54   -0.26324      1.99903     4.24585    0.01836     6.26324
      C   55    0.04362      1.99925     3.93256    0.02458     5.95638
      H   56    0.21086      0.00000     0.78727    0.00187     0.78914
      C   57    0.03876      1.99924     3.93743    0.02458     5.96124
      H   58    0.21492      0.00000     0.78318    0.00190     0.78508
      H   59    0.18795      0.00000     0.81072    0.00133     0.81205
      H   60    0.18860      0.00000     0.81009    0.00132     0.81140
      N   61   -0.41540      1.99947     5.38231    0.03361     7.41540
 =======================================================================
   * Total *   -0.00000     83.96874   165.21749    0.81377   250.00000

 Normal termination of Gaussian 16 at Fri Jan 24 15:54:04 2025.
