 Gaussian 16, Revision B.01,
 Gaussian 16:  ES64L-G16RevB.01 20-Dec-2017

 --------------------------------------------
 # nmr=giao b3lyp/def2TZVP pop=nbo scfcyc=200
 --------------------------------------------

 --------------
 MS-42 SPE NoRh
 --------------
 Symbolic Z-matrix:
 Charge =  0 Multiplicity = 1

                         Standard orientation:
 ---------------------------------------------------------------------
 Center     Atomic      Atomic             Coordinates (Angstroms)
 Number     Number       Type             X           Y           Z
 ---------------------------------------------------------------------
      1          6           0       -1.006685   -0.146542    2.079300
      2          6           0       -1.447592    0.636611    3.174404
      3          1           0       -1.029610    0.446470    4.156030
      4          6           0       -2.411310    1.592156    3.018562
      5          1           0       -2.756327    2.167736    3.868463
      6          6           0       -2.975075    1.841018    1.746310
      7          6           0       -3.961656    2.843695    1.569237
      8          1           0       -4.290247    3.404567    2.436336
      9          6           0       -4.488359    3.102890    0.331821
     10          1           0       -5.242762    3.869909    0.207474
     11          6           0       -4.042318    2.367227   -0.784667
     12          1           0       -4.452701    2.578625   -1.763975
     13          6           0       -3.095049    1.384185   -0.644132
     14          1           0       -2.775919    0.834370   -1.517334
     15          6           0       -2.533101    1.073719    0.622231
     16          6           0       -1.538720    0.048759    0.815010
     17          6           0       -1.130359   -0.817329   -0.337788
     18          6           0       -2.149816   -1.626177   -0.959179
     19          6           0       -3.435656   -1.802963   -0.379894
     20          1           0       -3.666298   -1.318807    0.558177
     21          6           0       -4.385562   -2.589250   -0.979750
     22          1           0       -5.352462   -2.715458   -0.507857
     23          6           0       -4.118804   -3.237908   -2.202885
     24          1           0       -4.883109   -3.845461   -2.670628
     25          6           0       -2.885534   -3.107451   -2.784610
     26          1           0       -2.657676   -3.616209   -3.714431
     27          6           0       -1.874543   -2.323284   -2.175310
     28          6           0       -0.578766   -2.231450   -2.729409
     29          1           0       -0.362838   -2.736258   -3.663239
     30          6           0        0.405102   -1.559441   -2.064306
     31          1           0        1.407235   -1.559420   -2.475490
     32          6           0        0.171196   -0.865920   -0.842608
     33          6           0        1.433372   -0.389913   -0.139690
     34          1           0        2.237087   -0.924648   -0.644340
     35          6           0       -0.006453   -1.233791    2.334503
     36          1           0        0.103412   -1.401144    3.405461
     37          1           0       -0.342397   -2.170438    1.888151
     38          6           0        2.462919   -2.679441    1.700926
     39          6           0        3.970693   -2.614201    1.419716
     40          1           0        4.401313   -3.609489    1.552665
     41          1           0        4.182918   -2.307828    0.396731
     42          1           0        4.488568   -1.931820    2.092442
     43          6           0        1.797605   -3.604998    0.670333
     44          1           0        0.721066   -3.699718    0.813732
     45          1           0        1.973868   -3.280380   -0.354623
     46          1           0        2.225848   -4.606879    0.771425
     47          6           0        2.239421   -3.256681    3.112586
     48          1           0        2.771889   -4.207787    3.188492
     49          1           0        2.623253   -2.610570    3.903827
     50          1           0        1.189034   -3.459117    3.319012
     51         15           0        1.703977   -0.906414    1.658678
     52         15           0        2.305791    1.354912   -0.027638
     53          6           0        1.111049    2.809748   -0.480874
     54          6           0        3.734114    1.254776   -1.350081
     55          6           0        4.737563    2.401248   -1.116839
     56          1           0        5.229412    2.305430   -0.149630
     57          1           0        5.516021    2.334492   -1.881356
     58          1           0        4.300198    3.392060   -1.187462
     59          6           0        4.522244   -0.049223   -1.145643
     60          1           0        4.829067   -0.181171   -0.107625
     61          1           0        3.977454   -0.936484   -1.471060
     62          1           0        5.427708   -0.004199   -1.754926
     63          6           0        3.221013    1.298352   -2.798028
     64          1           0        2.821738    2.273956   -3.071123
     65          1           0        4.056879    1.093254   -3.472535
     66          1           0        2.453010    0.549332   -2.992451
     67          6           0        1.891169    4.090455   -0.826088
     68          1           0        1.168571    4.908593   -0.893197
     69          1           0        2.618459    4.366990   -0.062343
     70          1           0        2.398255    4.033577   -1.787303
     71          6           0        0.268877    3.106443    0.769233
     72          1           0       -0.511952    3.824222    0.504868
     73          1           0       -0.216996    2.223973    1.169875
     74          1           0        0.869787    3.547335    1.562137
     75          6           0        0.192669    2.460868   -1.661508
     76          1           0       -0.421192    1.589824   -1.464687
     77          1           0       -0.480974    3.304627   -1.834627
     78          1           0        0.743006    2.289373   -2.583965
 ---------------------------------------------------------------------

 SCF Done:  E(RB3LYP) =  -2004.13206325     A.U. after   15 cycles

      1  C    Isotropic =    38.8379   Anisotropy =   193.5767

      2  C    Isotropic =    49.3608   Anisotropy =   154.9063

      3  H    Isotropic =    23.9784   Anisotropy =     8.0073

      4  C    Isotropic =    48.5567   Anisotropy =   159.9429

      5  H    Isotropic =    23.7671   Anisotropy =     5.9230

      6  C    Isotropic =    42.5260   Anisotropy =   218.8017

      7  C    Isotropic =    49.5313   Anisotropy =   160.1672

      8  H    Isotropic =    23.7943   Anisotropy =     6.7755

      9  C    Isotropic =    54.2885   Anisotropy =   178.1976

     10  H    Isotropic =    24.3395   Anisotropy =     3.9768

     11  C    Isotropic =    53.1555   Anisotropy =   178.6099

     12  H    Isotropic =    24.6670   Anisotropy =     8.1305

     13  C    Isotropic =    48.4120   Anisotropy =   184.8289

     14  H    Isotropic =    24.9599   Anisotropy =    14.2837

     15  C    Isotropic =    41.2208   Anisotropy =   212.6372

     16  C    Isotropic =    38.9615   Anisotropy =   158.1123

     17  C    Isotropic =    39.8379   Anisotropy =   164.1314

     18  C    Isotropic =    40.4055   Anisotropy =   209.8437

     19  C    Isotropic =    49.4976   Anisotropy =   178.7052

     20  H    Isotropic =    24.7596   Anisotropy =    15.8003

     21  C    Isotropic =    53.0573   Anisotropy =   177.6593

     22  H    Isotropic =    24.6110   Anisotropy =     8.0470

     23  C    Isotropic =    53.8022   Anisotropy =   177.8674

     24  H    Isotropic =    24.3159   Anisotropy =     4.2795

     25  C    Isotropic =    50.2454   Anisotropy =   159.0483

     26  H    Isotropic =    23.7712   Anisotropy =     7.5083

     27  C    Isotropic =    44.1085   Anisotropy =   213.9790

     28  C    Isotropic =    50.1595   Anisotropy =   155.0835

     29  H    Isotropic =    23.8040   Anisotropy =     7.5724

     30  C    Isotropic =    45.5923   Anisotropy =   146.1424

     31  H    Isotropic =    23.9557   Anisotropy =     9.5628

     32  C    Isotropic =    32.2325   Anisotropy =   191.3629

     33  C    Isotropic =   135.8594   Anisotropy =    30.2698

     34  H    Isotropic =    28.2453   Anisotropy =     5.5089

     35  C    Isotropic =   147.1955   Anisotropy =    36.3957

     36  H    Isotropic =    29.3627   Anisotropy =     7.8194

     37  H    Isotropic =    28.6764   Anisotropy =     4.3361

     38  C    Isotropic =   140.7796   Anisotropy =    17.9960

     39  C    Isotropic =   151.9499   Anisotropy =    42.6718

     40  H    Isotropic =    31.2498   Anisotropy =     9.6207

     41  H    Isotropic =    30.4941   Anisotropy =     8.4853

     42  H    Isotropic =    30.6988   Anisotropy =     7.8978

     43  C    Isotropic =   157.2687   Anisotropy =    37.9894

     44  H    Isotropic =    31.2924   Anisotropy =     6.1413

     45  H    Isotropic =    31.1212   Anisotropy =     8.1183

     46  H    Isotropic =    31.4126   Anisotropy =     9.3238

     47  C    Isotropic =   155.7621   Anisotropy =    41.1345

     48  H    Isotropic =    31.5684   Anisotropy =    10.5137

     49  H    Isotropic =    30.9351   Anisotropy =     9.9607

     50  H    Isotropic =    31.1957   Anisotropy =     6.8452

     51  P    Isotropic =   166.1806   Anisotropy =   220.7933

     52  P    Isotropic =   142.5788   Anisotropy =   158.9876

     53  C    Isotropic =   136.5923   Anisotropy =    23.5945

     54  C    Isotropic =   135.7351   Anisotropy =    27.3908

     55  C    Isotropic =   152.5748   Anisotropy =    44.2904

     56  H    Isotropic =    30.8346   Anisotropy =     8.3707

     57  H    Isotropic =    31.4044   Anisotropy =    10.0985

     58  H    Isotropic =    30.4516   Anisotropy =     6.7961

     59  C    Isotropic =   146.4854   Anisotropy =    40.4776

     60  H    Isotropic =    30.4032   Anisotropy =     7.6399

     61  H    Isotropic =    30.2934   Anisotropy =     5.2691

     62  H    Isotropic =    31.0028   Anisotropy =     8.1282

     63  C    Isotropic =   152.4457   Anisotropy =    32.9187

     64  H    Isotropic =    30.3255   Anisotropy =     5.1767

     65  H    Isotropic =    30.9768   Anisotropy =     9.9428

     66  H    Isotropic =    30.1350   Anisotropy =     5.7932

     67  C    Isotropic =   150.1550   Anisotropy =    39.3955

     68  H    Isotropic =    31.7193   Anisotropy =     8.5731

     69  H    Isotropic =    31.0663   Anisotropy =     8.4965

     70  H    Isotropic =    31.0211   Anisotropy =     8.0864

     71  C    Isotropic =   153.4705   Anisotropy =    44.0587

     72  H    Isotropic =    33.3149   Anisotropy =     6.6988

     73  H    Isotropic =    33.3016   Anisotropy =    20.7151

     74  H    Isotropic =    31.7511   Anisotropy =     6.2961

     75  C    Isotropic =   153.3924   Anisotropy =    29.8433

     76  H    Isotropic =    30.8144   Anisotropy =    10.6676

     77  H    Isotropic =    32.2540   Anisotropy =     6.7402

     78  H    Isotropic =    30.8397   Anisotropy =     5.5164

 The electronic state is 1-A.
 Alpha  occ. eigenvalues --  -77.03922 -77.03835 -10.19952 -10.19329 -10.19317
 Alpha  occ. eigenvalues --  -10.19114 -10.19056 -10.19029 -10.18911 -10.18873
 Alpha  occ. eigenvalues --  -10.18868 -10.18660 -10.18619 -10.18555 -10.17942
 Alpha  occ. eigenvalues --  -10.17847 -10.17815 -10.17794 -10.17691 -10.17648
 Alpha  occ. eigenvalues --  -10.17619 -10.17591 -10.17553 -10.17503 -10.17428
 Alpha  occ. eigenvalues --  -10.17373 -10.17332 -10.16438 -10.16254 -10.15958
 Alpha  occ. eigenvalues --  -10.15913 -10.15848 -10.15798 -10.15738 -10.14724
 Alpha  occ. eigenvalues --  -10.14581  -6.52363  -6.52323  -4.68526  -4.68509
 Alpha  occ. eigenvalues --   -4.68453  -4.68398  -4.67992  -4.67956  -0.89137
 Alpha  occ. eigenvalues --   -0.87519  -0.84159  -0.82974  -0.81696  -0.81266
 Alpha  occ. eigenvalues --   -0.80040  -0.79826  -0.77292  -0.77065  -0.75617
 Alpha  occ. eigenvalues --   -0.73626  -0.72176  -0.71581  -0.69511  -0.69070
 Alpha  occ. eigenvalues --   -0.68866  -0.68588  -0.68054  -0.67935  -0.67677
 Alpha  occ. eigenvalues --   -0.64066  -0.62406  -0.61986  -0.61236  -0.61059
 Alpha  occ. eigenvalues --   -0.59437  -0.57499  -0.56955  -0.54495  -0.52785
 Alpha  occ. eigenvalues --   -0.52288  -0.51840  -0.51196  -0.51068  -0.49892
 Alpha  occ. eigenvalues --   -0.49032  -0.47800  -0.46828  -0.45680  -0.45237
 Alpha  occ. eigenvalues --   -0.45144  -0.44805  -0.44688  -0.44520  -0.44125
 Alpha  occ. eigenvalues --   -0.43907  -0.43635  -0.43461  -0.42713  -0.42663
 Alpha  occ. eigenvalues --   -0.42409  -0.42240  -0.41576  -0.40686  -0.40480
 Alpha  occ. eigenvalues --   -0.40350  -0.39763  -0.39490  -0.39439  -0.39074
 Alpha  occ. eigenvalues --   -0.38701  -0.38298  -0.38120  -0.37891  -0.37670
 Alpha  occ. eigenvalues --   -0.37210  -0.36850  -0.36709  -0.36260  -0.35482
 Alpha  occ. eigenvalues --   -0.35173  -0.35095  -0.34629  -0.34101  -0.33997
 Alpha  occ. eigenvalues --   -0.33802  -0.33704  -0.33656  -0.33324  -0.32817
 Alpha  occ. eigenvalues --   -0.32270  -0.31986  -0.30678  -0.29893  -0.28747
 Alpha  occ. eigenvalues --   -0.28308  -0.27956  -0.24655  -0.24360  -0.22593
 Alpha  occ. eigenvalues --   -0.21876  -0.21392  -0.17929
 Alpha virt. eigenvalues --   -0.05848  -0.04808  -0.02713  -0.02123   0.00538
 Alpha virt. eigenvalues --    0.01071   0.02130   0.02599   0.03616   0.04250
 Alpha virt. eigenvalues --    0.04344   0.04829   0.05159   0.05347   0.05517

 Mulliken charges:
               1
     1  C    0.186209
     2  C   -0.161596
     3  H    0.092799
     4  C   -0.199382
     5  H    0.096153
     6  C    0.126593
     7  C   -0.140440
     8  H    0.098406
     9  C   -0.129654
    10  H    0.104705
    11  C   -0.084191
    12  H    0.107228
    13  C   -0.240405
    14  H    0.147067
    15  C   -0.026524
    16  C    0.114383
    17  C    0.056000
    18  C   -0.104448
    19  C   -0.193825
    20  H    0.135539
    21  C   -0.104631
    22  H    0.107558
    23  C   -0.108838
    24  H    0.106114
    25  C   -0.157796
    26  H    0.099082
    27  C    0.167820
    28  C   -0.251409
    29  H    0.095608
    30  C   -0.147013
    31  H    0.113539
    32  C   -0.029262
    33  C   -0.051934
    34  H    0.034059
    35  C   -0.326804
    36  H    0.115313
    37  H    0.118991
    38  C    0.095766
    39  C   -0.378833
    40  H    0.105646
    41  H    0.118216
    42  H    0.123108
    43  C   -0.356503
    44  H    0.115373
    45  H    0.109491
    46  H    0.101325
    47  C   -0.383644
    48  H    0.109737
    49  H    0.122579
    50  H    0.120838
    51  P    0.116190
    52  P    0.079507
    53  C    0.118529
    54  C    0.126685
    55  C   -0.366407
    56  H    0.119308
    57  H    0.103723
    58  H    0.125671
    59  C   -0.442390
    60  H    0.149706
    61  H    0.114871
    62  H    0.112188
    63  C   -0.378272
    64  H    0.110583
    65  H    0.100180
    66  H    0.120634
    67  C   -0.408668
    68  H    0.110973
    69  H    0.129376
    70  H    0.109243
    71  C   -0.340103
    72  H    0.098750
    73  H    0.128926
    74  H    0.108441
    75  C   -0.340578
    76  H    0.120193
    77  H    0.094077
    78  H    0.110550
 Sum of Mulliken charges =  -0.00000

 Dipole moment (field-independent basis, Debye):
    X=             -0.5129    Y=             -0.8232    Z=             -1.0420  Tot=              1.4235
 Quadrupole moment (field-independent basis, Debye-Ang):
   XX=           -229.9051   YY=           -231.0903   ZZ=           -228.1514
   XY=             -5.1948   XZ=             -5.4889   YZ=              1.7263

 Summary of Natural Population Analysis:

                                       Natural Population
                Natural  -----------------------------------------------
    Atom  No    Charge         Core      Valence    Rydberg      Total
 -----------------------------------------------------------------------
      C    1   -0.00556      1.99899     3.98660    0.01998     6.00556
      C    2   -0.19945      1.99908     4.18208    0.01829     6.19945
      H    3    0.20760      0.00000     0.79094    0.00146     0.79240
      C    4   -0.16528      1.99911     4.14895    0.01722     6.16528
      H    5    0.20801      0.00000     0.79061    0.00137     0.79199
      C    6   -0.06833      1.99905     4.04937    0.01990     6.06833
      C    7   -0.17644      1.99913     4.15893    0.01839     6.17644
      H    8    0.20567      0.00000     0.79293    0.00141     0.79433
      C    9   -0.20893      1.99918     4.19058    0.01917     6.20893
      H   10    0.20869      0.00000     0.79018    0.00113     0.79131
      C   11   -0.20069      1.99919     4.18282    0.01869     6.20069
      H   12    0.20877      0.00000     0.79002    0.00121     0.79123
      C   13   -0.18738      1.99909     4.16966    0.01863     6.18738
      H   14    0.21767      0.00000     0.78058    0.00175     0.78233
      C   15   -0.03856      1.99897     4.01898    0.02062     6.03856
      C   16   -0.03393      1.99887     4.01192    0.02314     6.03393
      C   17   -0.03064      1.99889     4.00882    0.02293     6.03064
      C   18   -0.04168      1.99899     4.02272    0.01997     6.04168
      C   19   -0.18457      1.99910     4.16791    0.01757     6.18457
      H   20    0.21794      0.00000     0.78029    0.00178     0.78206
      C   21   -0.20034      1.99919     4.18257    0.01858     6.20034
      H   22    0.20893      0.00000     0.78986    0.00121     0.79107
      C   23   -0.20809      1.99918     4.18976    0.01915     6.20809
      H   24    0.20872      0.00000     0.79016    0.00113     0.79128
      C   25   -0.17674      1.99913     4.15938    0.01823     6.17674
      H   26    0.20553      0.00000     0.79310    0.00138     0.79447
      C   27   -0.06779      1.99906     4.05000    0.01872     6.06779
      C   28   -0.16786      1.99909     4.15171    0.01706     6.16786
      H   29    0.20567      0.00000     0.79274    0.00158     0.79433
      C   30   -0.20590      1.99908     4.18850    0.01831     6.20590
      H   31    0.20016      0.00000     0.79768    0.00215     0.79984
      C   32   -0.01400      1.99893     3.99094    0.02413     6.01400
      C   33   -0.81477      1.99923     4.78238    0.03315     6.81477
      H   34    0.25267      0.00000     0.74392    0.00341     0.74733
      C   35   -0.72210      1.99933     4.69899    0.02378     6.72210
      H   36    0.23479      0.00000     0.76380    0.00141     0.76521
      H   37    0.21928      0.00000     0.77637    0.00435     0.78072
      C   38   -0.27025      1.99946     4.24575    0.02503     6.27025
      C   39   -0.60215      1.99937     4.59053    0.01226     6.60215
      H   40    0.20001      0.00000     0.79784    0.00215     0.79999
      H   41    0.20270      0.00000     0.79611    0.00119     0.79730
      H   42    0.21282      0.00000     0.78578    0.00140     0.78718
      C   43   -0.60295      1.99936     4.59127    0.01231     6.60295
      H   44    0.20339      0.00000     0.79525    0.00136     0.79661
      H   45    0.20159      0.00000     0.79706    0.00135     0.79841
      H   46    0.19753      0.00000     0.80015    0.00232     0.80247
      C   47   -0.60380      1.99937     4.59253    0.01190     6.60380
      H   48    0.20423      0.00000     0.79361    0.00216     0.79577
      H   49    0.20999      0.00000     0.78854    0.00147     0.79001
      H   50    0.20350      0.00000     0.79524    0.00125     0.79650
      P   51    0.83744      9.99840     4.13359    0.03057    14.16256
      P   52    0.79314      9.99836     4.18090    0.02759    14.20686
      C   53   -0.27004      1.99943     4.24637    0.02424     6.27004
      C   54   -0.26557      1.99944     4.24152    0.02461     6.26557
      C   55   -0.60386      1.99936     4.59189    0.01261     6.60386
      H   56    0.21146      0.00000     0.78719    0.00135     0.78854
      H   57    0.19839      0.00000     0.79949    0.00212     0.80161
      H   58    0.21013      0.00000     0.78866    0.00121     0.78987
      C   59   -0.60590      1.99936     4.59346    0.01307     6.60590
      H   60    0.21672      0.00000     0.78179    0.00148     0.78328
      H   61    0.19128      0.00000     0.80745    0.00127     0.80872
      H   62    0.20710      0.00000     0.79070    0.00220     0.79290
      C   63   -0.60774      1.99936     4.59568    0.01271     6.60774
      H   64    0.20220      0.00000     0.79623    0.00157     0.79780
      H   65    0.19447      0.00000     0.80310    0.00244     0.80553
      H   66    0.20166      0.00000     0.79691    0.00143     0.79834
      C   67   -0.60005      1.99936     4.58860    0.01209     6.60005
      H   68    0.20566      0.00000     0.79233    0.00201     0.79434
      H   69    0.20824      0.00000     0.79016    0.00160     0.79176
      H   70    0.19816      0.00000     0.80030    0.00154     0.80184
      C   71   -0.60056      1.99936     4.58802    0.01319     6.60056
      H   72    0.20030      0.00000     0.79740    0.00230     0.79970
      H   73    0.21631      0.00000     0.78183    0.00186     0.78369
      H   74    0.20798      0.00000     0.79066    0.00136     0.79202
      C   75   -0.60402      1.99935     4.59167    0.01300     6.60402
      H   76    0.21128      0.00000     0.78728    0.00144     0.78872
      H   77    0.19670      0.00000     0.80124    0.00206     0.80330
      H   78    0.20145      0.00000     0.79714    0.00142     0.79855
 =======================================================================
   * Total *    0.00000     87.96922   187.26796    0.76282   276.00000

 Normal termination of Gaussian 16 at Fri Jan 24 17:54:31 2025.
