 Gaussian 16, Revision B.01,
 Gaussian 16:  ES64L-G16RevB.01 20-Dec-2017

 --------------------------------------------
 # nmr=giao b3lyp/def2TZVP pop=nbo scfcyc=200
 --------------------------------------------

 --------------
 MS-48 SPE NoRh
 --------------
 Symbolic Z-matrix:
 Charge =  0 Multiplicity = 1

                         Standard orientation:
 ---------------------------------------------------------------------
 Center     Atomic      Atomic             Coordinates (Angstroms)
 Number     Number       Type             X           Y           Z
 ---------------------------------------------------------------------
      1         15           0       -0.757364    0.498199    1.719461
      2         15           0       -3.179512   -0.392601    0.608149
      3          6           0       -0.256174    2.187617    1.195437
      4          6           0        0.824672    2.384357    0.325373
      5          6           0        1.181799    3.671912   -0.055677
      6          6           0        0.470379    4.770954    0.420882
      7          6           0       -0.607882    4.580938    1.277303
      8          6           0       -0.971909    3.294106    1.663341
      9          1           0        1.371341    1.530265   -0.055160
     10          1           0        2.020189    3.818263   -0.725897
     11          1           0        0.755781    5.771826    0.123392
     12          1           0       -1.165980    5.431696    1.646916
     13          1           0       -1.819188    3.147123    2.320348
     14          6           0        0.756429   -0.320436    2.380204
     15          6           0        0.775840   -1.711851    2.526486
     16          6           0        1.873501   -2.345399    3.094317
     17          6           0        2.957442   -1.596369    3.544476
     18          6           0        2.934196   -0.212164    3.426021
     19          6           0        1.840247    0.426865    2.848693
     20          1           0       -0.067049   -2.312526    2.205837
     21          1           0        1.881817   -3.424128    3.189269
     22          1           0        3.812065   -2.090460    3.988592
     23          1           0        3.770579    0.378184    3.780076
     24          1           0        1.842823    1.503887    2.759436
     25          6           0       -4.097273    0.827352   -0.421781
     26          6           0       -5.469285    0.636122   -0.626399
     27          6           0       -6.220924    1.591579   -1.298822
     28          6           0       -5.618427    2.753660   -1.768731
     29          6           0       -4.260030    2.959482   -1.554590
     30          6           0       -3.503975    2.007992   -0.877836
     31          1           0       -5.955872   -0.264462   -0.273117
     32          1           0       -7.279188    1.425708   -1.456616
     33          1           0       -6.204857    3.496160   -2.296138
     34          1           0       -3.783586    3.864282   -1.911088
     35          1           0       -2.455127    2.204967   -0.704296
     36          6           0       -3.784519   -2.055751    0.087106
     37          6           0       -3.762500   -3.098871    1.017848
     38          6           0       -4.117882   -4.389553    0.638123
     39          6           0       -4.498947   -4.648585   -0.673340
     40          6           0       -4.517916   -3.616111   -1.607139
     41          6           0       -4.160985   -2.326402   -1.232951
     42          1           0       -3.462552   -2.903246    2.039979
     43          1           0       -4.101331   -5.188856    1.368472
     44          1           0       -4.781301   -5.651164   -0.968182
     45          1           0       -4.811977   -3.815805   -2.630159
     46          1           0       -4.184628   -1.533529   -1.969573
     47          7           0        0.594045   -0.537774   -1.338765
     48          1           0        0.714509   -1.514102   -1.084855
     49          6           0       -1.334420   -0.440017    0.183288
     50          1           0       -1.108427   -1.484526    0.426674
     51          6           0       -0.807599   -0.160171   -1.220989
     52          1           0       -0.888958    0.901143   -1.461004
     53          1           0       -1.454679   -0.690219   -1.940318
     54          6           0        1.143041   -0.322789   -2.684090
     55          1           0        0.513201   -0.792602   -3.454689
     56          1           0        1.129607    0.754050   -2.882908
     57          6           0        2.566841   -0.858834   -2.809566
     58          1           0        2.585461   -1.927139   -2.570521
     59          1           0        2.863341   -0.778974   -3.860978
     60          6           0        3.593435   -0.140694   -1.936740
     61          1           0        3.299501   -0.218837   -0.887441
     62          1           0        3.587863    0.938345   -2.185761
     63          6           0        5.948652   -0.118300   -1.264005
     64          1           0        5.648247   -0.210795   -0.214357
     65          1           0        6.041992    0.963649   -1.467628
     66          6           0        7.299264   -0.799310   -1.464687
     67          1           0        7.576100   -0.742990   -2.525052
     68          1           0        7.213329   -1.858880   -1.217770
     69          6           0        8.413239   -0.176905   -0.627909
     70          1           0        8.493744    0.894725   -0.869252
     71          1           0        8.144029   -0.240470    0.430623
     72          7           0        4.910461   -0.744644   -2.078172
     73          1           0        5.193136   -0.735720   -3.053988
     74          7           0        9.666166   -0.914008   -0.809220
     75          1           0       10.001464   -0.827388   -1.763010
     76          1           0       10.393053   -0.552977   -0.202784
 ---------------------------------------------------------------------

 SCF Done:  E(RB3LYP) =  -2090.37875877     A.U. after   14 cycles

      1  P    Isotropic =   224.6491   Anisotropy =    90.1434

      2  P    Isotropic =   219.3506   Anisotropy =    94.3473

      3  C    Isotropic =    39.9804   Anisotropy =   198.3929

      4  C    Isotropic =    36.2075   Anisotropy =   197.5480

      5  C    Isotropic =    49.8160   Anisotropy =   183.2872

      6  C    Isotropic =    47.7138   Anisotropy =   189.9923

      7  C    Isotropic =    49.5808   Anisotropy =   184.5872

      8  C    Isotropic =    37.8380   Anisotropy =   184.9140

      9  H    Isotropic =    23.0422   Anisotropy =     8.0119

     10  H    Isotropic =    24.1473   Anisotropy =     7.1551

     11  H    Isotropic =    24.0653   Anisotropy =     4.4547

     12  H    Isotropic =    24.1064   Anisotropy =     4.8569

     13  H    Isotropic =    23.6510   Anisotropy =     8.0950

     14  C    Isotropic =    28.0979   Anisotropy =   202.0933

     15  C    Isotropic =    51.0977   Anisotropy =   182.7275

     16  C    Isotropic =    50.4205   Anisotropy =   182.8052

     17  C    Isotropic =    53.9518   Anisotropy =   179.6274

     18  C    Isotropic =    49.8218   Anisotropy =   183.8036

     19  C    Isotropic =    51.2963   Anisotropy =   181.8753

     20  H    Isotropic =    24.2462   Anisotropy =    10.1747

     21  H    Isotropic =    24.3759   Anisotropy =     5.9909

     22  H    Isotropic =    24.6377   Anisotropy =     3.7217

     23  H    Isotropic =    24.5698   Anisotropy =     5.7564

     24  H    Isotropic =    24.9055   Anisotropy =    12.7573

     25  C    Isotropic =    35.8748   Anisotropy =   188.2850

     26  C    Isotropic =    48.6791   Anisotropy =   183.1663

     27  C    Isotropic =    50.0946   Anisotropy =   183.0603

     28  C    Isotropic =    53.3644   Anisotropy =   180.1052

     29  C    Isotropic =    50.6362   Anisotropy =   182.6568

     30  C    Isotropic =    48.4821   Anisotropy =   181.0068

     31  H    Isotropic =    24.5249   Anisotropy =    11.7207

     32  H    Isotropic =    24.4977   Anisotropy =     5.4275

     33  H    Isotropic =    24.6726   Anisotropy =     4.5428

     34  H    Isotropic =    24.8392   Anisotropy =     8.3949

     35  H    Isotropic =    25.2296   Anisotropy =     7.7747

     36  C    Isotropic =    31.3022   Anisotropy =   209.9323

     37  C    Isotropic =    42.3085   Anisotropy =   180.0330

     38  C    Isotropic =    49.0848   Anisotropy =   184.6211

     39  C    Isotropic =    49.3300   Anisotropy =   187.8209

     40  C    Isotropic =    49.5120   Anisotropy =   183.8287

     41  C    Isotropic =    43.7869   Anisotropy =   187.0327

     42  H    Isotropic =    23.5746   Anisotropy =     9.1585

     43  H    Isotropic =    24.0817   Anisotropy =     5.3945

     44  H    Isotropic =    24.2519   Anisotropy =     4.1555

     45  H    Isotropic =    24.3408   Anisotropy =     6.3120

     46  H    Isotropic =    23.9693   Anisotropy =    11.2382

     47  N    Isotropic =   186.7519   Anisotropy =    45.8136

     48  H    Isotropic =    32.7642   Anisotropy =     6.1602

     49  C    Isotropic =   125.3496   Anisotropy =    17.2583

     50  H    Isotropic =    29.6824   Anisotropy =     5.8373

     51  C    Isotropic =   132.7269   Anisotropy =    50.0469

     52  H    Isotropic =    29.0623   Anisotropy =     4.2009

     53  H    Isotropic =    28.8163   Anisotropy =     8.1936

     54  C    Isotropic =   130.2088   Anisotropy =    46.0422

     55  H    Isotropic =    29.2605   Anisotropy =     7.4528

     56  H    Isotropic =    29.4466   Anisotropy =     5.1781

     57  C    Isotropic =   146.0529   Anisotropy =    27.1514

     58  H    Isotropic =    30.4657   Anisotropy =     4.1542

     59  H    Isotropic =    30.5300   Anisotropy =     7.8678

     60  C    Isotropic =   128.1639   Anisotropy =    51.1234

     61  H    Isotropic =    29.2228   Anisotropy =    10.3604

     62  H    Isotropic =    29.2646   Anisotropy =     4.9088

     63  C    Isotropic =   128.5520   Anisotropy =    50.1731

     64  H    Isotropic =    29.6452   Anisotropy =     5.0593

     65  H    Isotropic =    29.2494   Anisotropy =     5.1597

     66  C    Isotropic =   143.4394   Anisotropy =    38.0903

     67  H    Isotropic =    30.7729   Anisotropy =     4.6298

     68  H    Isotropic =    29.9805   Anisotropy =     3.7689

     69  C    Isotropic =   136.1127   Anisotropy =    37.9085

     70  H    Isotropic =    28.8313   Anisotropy =     5.9571

     71  H    Isotropic =    29.4013   Anisotropy =     5.3765

     72  N    Isotropic =   191.2930   Anisotropy =    36.8184

     73  H    Isotropic =    32.4050   Anisotropy =     9.4010

     74  N    Isotropic =   225.1922   Anisotropy =    40.7076

     75  H    Isotropic =    31.9543   Anisotropy =    11.9915

     76  H    Isotropic =    31.3758   Anisotropy =    14.6754

 The electronic state is 1-A.
 Alpha  occ. eigenvalues --  -77.05018 -77.04516 -14.30554 -14.29607 -14.29290
 Alpha  occ. eigenvalues --  -10.20280 -10.19681 -10.19559 -10.19164 -10.18891
 Alpha  occ. eigenvalues --  -10.18749 -10.18668 -10.18510 -10.18367 -10.18262
 Alpha  occ. eigenvalues --  -10.18223 -10.18195 -10.18142 -10.18137 -10.18097
 Alpha  occ. eigenvalues --  -10.18057 -10.17999 -10.17954 -10.17891 -10.17692
 Alpha  occ. eigenvalues --  -10.17585 -10.17566 -10.17520 -10.17505 -10.17395
 Alpha  occ. eigenvalues --  -10.17311 -10.17292 -10.17181 -10.17019 -10.16970
 Alpha  occ. eigenvalues --  -10.16943 -10.16177  -6.53562  -6.53090  -4.69715
 Alpha  occ. eigenvalues --   -4.69682  -4.69244  -4.69207  -4.69198  -4.68726
 Alpha  occ. eigenvalues --   -0.91439  -0.90307  -0.88069  -0.86453  -0.86263
 Alpha  occ. eigenvalues --   -0.85749  -0.85399  -0.79305  -0.77476  -0.76445
 Alpha  occ. eigenvalues --   -0.75466  -0.75386  -0.75257  -0.74915  -0.74657
 Alpha  occ. eigenvalues --   -0.74601  -0.74294  -0.73078  -0.67397  -0.64868
 Alpha  occ. eigenvalues --   -0.64027  -0.62591  -0.61509  -0.61174  -0.60952
 Alpha  occ. eigenvalues --   -0.60689  -0.60148  -0.60123  -0.59848  -0.59768
 Alpha  occ. eigenvalues --   -0.58390  -0.56198  -0.55048  -0.52363  -0.51980
 Alpha  occ. eigenvalues --   -0.50453  -0.50170  -0.49798  -0.49260  -0.47985
 Alpha  occ. eigenvalues --   -0.47709  -0.46734  -0.46050  -0.45987  -0.45829
 Alpha  occ. eigenvalues --   -0.45637  -0.45451  -0.45186  -0.45025  -0.44916
 Alpha  occ. eigenvalues --   -0.44469  -0.44373  -0.43746  -0.42973  -0.42720
 Alpha  occ. eigenvalues --   -0.42507  -0.42211  -0.41869  -0.41356  -0.40829
 Alpha  occ. eigenvalues --   -0.40616  -0.39759  -0.38692  -0.38228  -0.37953
 Alpha  occ. eigenvalues --   -0.37574  -0.37434  -0.37233  -0.36839  -0.36668
 Alpha  occ. eigenvalues --   -0.35540  -0.35343  -0.35288  -0.35119  -0.34761
 Alpha  occ. eigenvalues --   -0.34719  -0.34448  -0.34322  -0.33491  -0.32925
 Alpha  occ. eigenvalues --   -0.32724  -0.31953  -0.31199  -0.27876  -0.26880
 Alpha  occ. eigenvalues --   -0.26688  -0.26549  -0.26278  -0.25834  -0.25569
 Alpha  occ. eigenvalues --   -0.25429  -0.24249  -0.23596  -0.22399  -0.21594
 Alpha  occ. eigenvalues --   -0.18375
 Alpha virt. eigenvalues --   -0.03667  -0.03151  -0.02503  -0.02372  -0.01879
 Alpha virt. eigenvalues --   -0.01427  -0.01316  -0.00744   0.01815   0.02615
 Alpha virt. eigenvalues --    0.03121   0.03437   0.03911   0.04267   0.04776

 Mulliken charges:
               1
     1  P    0.152838
     2  P    0.159989
     3  C   -0.045440
     4  C   -0.196938
     5  C   -0.137646
     6  C   -0.087046
     7  C   -0.105455
     8  C   -0.136660
     9  H    0.236246
    10  H    0.106978
    11  H    0.110937
    12  H    0.111581
    13  H    0.116805
    14  C    0.118741
    15  C   -0.231841
    16  C   -0.115256
    17  C   -0.110835
    18  C   -0.122925
    19  C   -0.184113
    20  H    0.116122
    21  H    0.104157
    22  H    0.105786
    23  H    0.104581
    24  H    0.139457
    25  C    0.061417
    26  C   -0.199832
    27  C   -0.112995
    28  C   -0.104105
    29  C   -0.160340
    30  C   -0.153666
    31  H    0.130115
    32  H    0.108177
    33  H    0.106162
    34  H    0.106379
    35  H    0.157956
    36  C    0.052299
    37  C   -0.196546
    38  C   -0.100531
    39  C   -0.103150
    40  C   -0.108759
    41  C   -0.196174
    42  H    0.120548
    43  H    0.111374
    44  H    0.111557
    45  H    0.109340
    46  H    0.140276
    47  N   -0.359403
    48  H    0.173835
    49  C   -0.167622
    50  H    0.092748
    51  C   -0.139657
    52  H    0.110172
    53  H    0.097873
    54  C   -0.082038
    55  H    0.081370
    56  H    0.092570
    57  C   -0.165436
    58  H    0.094780
    59  H    0.081206
    60  C   -0.115352
    61  H    0.123235
    62  H    0.051843
    63  C   -0.098556
    64  H    0.093471
    65  H    0.055041
    66  C   -0.137272
    67  H    0.061676
    68  H    0.101645
    69  C   -0.079730
    70  H    0.071822
    71  H    0.085662
    72  N   -0.287744
    73  H    0.160956
    74  N   -0.487730
    75  H    0.199107
    76  H    0.201963
 Sum of Mulliken charges =  -0.00000

 Dipole moment (field-independent basis, Debye):
    X=              1.2526    Y=              1.0274    Z=             -3.3046  Tot=              3.6803
 Quadrupole moment (field-independent basis, Debye-Ang):
   XX=           -225.3239   YY=           -222.7798   ZZ=           -236.9984
   XY=             18.4413   XZ=              2.2751   YZ=             -4.2367

 Summary of Natural Population Analysis:

                                       Natural Population
                Natural  -----------------------------------------------
    Atom  No    Charge         Core      Valence    Rydberg      Total
 -----------------------------------------------------------------------
      P    1    0.83310      9.99802     4.13587    0.03301    14.16690
      P    2    0.84916      9.99806     4.12082    0.03196    14.15084
      C    3   -0.34913      1.99900     4.31739    0.03273     6.34913
      C    4   -0.20122      1.99907     4.18027    0.02188     6.20122
      C    5   -0.21211      1.99918     4.19360    0.01933     6.21211
      C    6   -0.19496      1.99919     4.17678    0.01898     6.19496
      C    7   -0.21083      1.99918     4.19232    0.01932     6.21083
      C    8   -0.18618      1.99911     4.16668    0.02040     6.18618
      H    9    0.23491      0.00000     0.76224    0.00285     0.76509
      H   10    0.20753      0.00000     0.79101    0.00146     0.79247
      H   11    0.20828      0.00000     0.79054    0.00118     0.79172
      H   12    0.21077      0.00000     0.78798    0.00126     0.78923
      H   13    0.22179      0.00000     0.77663    0.00157     0.77821
      C   14   -0.30873      1.99898     4.27959    0.03016     6.30873
      C   15   -0.21622      1.99908     4.19754    0.01960     6.21622
      C   16   -0.19548      1.99918     4.17743    0.01886     6.19548
      C   17   -0.21896      1.99919     4.20011    0.01966     6.21896
      C   18   -0.19466      1.99919     4.17664    0.01884     6.19466
      C   19   -0.21293      1.99908     4.19408    0.01977     6.21293
      H   20    0.19814      0.00000     0.79981    0.00206     0.80186
      H   21    0.20686      0.00000     0.79184    0.00130     0.79314
      H   22    0.20725      0.00000     0.79156    0.00119     0.79275
      H   23    0.20625      0.00000     0.79244    0.00131     0.79375
      H   24    0.21396      0.00000     0.78429    0.00175     0.78604
      C   25   -0.32966      1.99899     4.29969    0.03099     6.32966
      C   26   -0.20908      1.99909     4.19036    0.01963     6.20908
      C   27   -0.19715      1.99918     4.17933    0.01863     6.19715
      C   28   -0.21592      1.99918     4.19718    0.01956     6.21592
      C   29   -0.19548      1.99918     4.17777    0.01853     6.19548
      C   30   -0.21586      1.99908     4.19704    0.01974     6.21586
      H   31    0.21352      0.00000     0.78469    0.00179     0.78648
      H   32    0.20816      0.00000     0.79057    0.00127     0.79184
      H   33    0.20741      0.00000     0.79141    0.00118     0.79259
      H   34    0.20828      0.00000     0.79044    0.00128     0.79172
      H   35    0.21080      0.00000     0.78713    0.00207     0.78920
      C   36   -0.33168      1.99900     4.30001    0.03268     6.33168
      C   37   -0.20010      1.99910     4.18059    0.02041     6.20010
      C   38   -0.20421      1.99918     4.18564    0.01938     6.20421
      C   39   -0.20100      1.99919     4.18265    0.01915     6.20100
      C   40   -0.20411      1.99919     4.18590    0.01903     6.20411
      C   41   -0.20128      1.99908     4.18199    0.02021     6.20128
      H   42    0.21651      0.00000     0.78193    0.00157     0.78349
      H   43    0.20996      0.00000     0.78878    0.00126     0.79004
      H   44    0.20884      0.00000     0.78999    0.00117     0.79116
      H   45    0.20804      0.00000     0.79060    0.00136     0.79196
      H   46    0.21398      0.00000     0.78366    0.00235     0.78602
      N   47   -0.61251      1.99953     5.58577    0.02721     7.61251
      H   48    0.34701      0.00000     0.64960    0.00339     0.65299
      C   49   -0.75706      1.99938     4.72259    0.03509     6.75706
      H   50    0.24598      0.00000     0.75199    0.00203     0.75402
      C   51   -0.23012      1.99931     4.21111    0.01971     6.23012
      H   52    0.19427      0.00000     0.80294    0.00279     0.80573
      H   53    0.16851      0.00000     0.82725    0.00424     0.83149
      C   54   -0.19842      1.99938     4.18498    0.01406     6.19842
      H   55    0.15957      0.00000     0.83739    0.00304     0.84043
      H   56    0.17839      0.00000     0.81951    0.00210     0.82161
      C   57   -0.39004      1.99941     4.37622    0.01441     6.39004
      H   58    0.19959      0.00000     0.79838    0.00203     0.80041
      H   59    0.19453      0.00000     0.80408    0.00139     0.80547
      C   60   -0.20504      1.99939     4.19003    0.01563     6.20504
      H   61    0.19519      0.00000     0.80264    0.00217     0.80481
      H   62    0.14339      0.00000     0.85329    0.00331     0.85661
      C   63   -0.19766      1.99938     4.18282    0.01546     6.19766
      H   64    0.18038      0.00000     0.81718    0.00244     0.81962
      H   65    0.14492      0.00000     0.85112    0.00395     0.85508
      C   66   -0.39269      1.99941     4.37667    0.01661     6.39269
      H   67    0.17822      0.00000     0.81993    0.00185     0.82178
      H   68    0.21180      0.00000     0.78600    0.00220     0.78820
      C   69   -0.19872      1.99939     4.18382    0.01551     6.19872
      H   70    0.15146      0.00000     0.84644    0.00210     0.84854
      H   71    0.18020      0.00000     0.81813    0.00166     0.81980
      N   72   -0.59949      1.99953     5.57321    0.02674     7.59949
      H   73    0.33748      0.00000     0.65899    0.00353     0.66252
      N   74   -0.81633      1.99961     5.79117    0.02555     7.81633
      H   75    0.34155      0.00000     0.65641    0.00204     0.65845
      H   76    0.34911      0.00000     0.64935    0.00154     0.65089
 =======================================================================
   * Total *   -0.00000     89.96869   191.14380    0.88751   282.00000

 Normal termination of Gaussian 16 at Fri Jan 24 18:02:30 2025.
