 Gaussian 16, Revision B.01,
 Gaussian 16:  ES64L-G16RevB.01 20-Dec-2017

 --------------------------------------------
 # nmr=giao b3lyp/def2TZVP pop=nbo scfcyc=200
 --------------------------------------------

 --------------
 MS-47 SPE NoRh
 --------------
 Symbolic Z-matrix:
 Charge =  0 Multiplicity = 1

                         Standard orientation:
 ---------------------------------------------------------------------
 Center     Atomic      Atomic             Coordinates (Angstroms)
 Number     Number       Type             X           Y           Z
 ---------------------------------------------------------------------
      1         15           0        0.514552    1.378070   -1.075547
      2         15           0       -1.547411   -0.521009   -0.974610
      3          6           0        0.009901   -0.078713    0.036689
      4          6           0        2.354640    1.389760   -1.208969
      5          6           0        3.035021    2.605475   -1.345914
      6          6           0        4.405663    2.621059   -1.580823
      7          6           0        5.112123    1.427268   -1.684735
      8          6           0        4.440712    0.215116   -1.561088
      9          6           0        3.069549    0.194759   -1.333524
     10          6           0        0.054382    2.953671   -0.256103
     11          6           0       -0.977161    3.719884   -0.803943
     12          6           0       -1.352006    4.919882   -0.207996
     13          6           0       -0.697777    5.361405    0.935974
     14          6           0        0.330760    4.601633    1.487875
     15          6           0        0.706806    3.403178    0.897512
     16          6           0       -1.608952   -2.363684   -0.910813
     17          6           0       -0.931685   -3.099603   -1.886552
     18          6           0       -0.911920   -4.489586   -1.829713
     19          6           0       -1.568150   -5.153406   -0.799192
     20          6           0       -2.240526   -4.426090    0.180021
     21          6           0       -2.261931   -3.036601    0.127433
     22          6           0       -3.157157    0.034136   -0.273091
     23          6           0       -3.304719    1.103554    0.613276
     24          6           0       -4.579553    1.533126    0.972535
     25          6           0       -5.709405    0.917688    0.449626
     26          6           0       -5.567506   -0.142716   -0.440701
     27          6           0       -4.301617   -0.580829   -0.805349
     28          1           0        0.679740   -0.879052   -0.279074
     29          1           0        2.502199    3.543182   -1.263374
     30          1           0        4.919414    3.568305   -1.678537
     31          1           0        6.179300    1.441439   -1.864966
     32          1           0        4.982176   -0.718083   -1.641179
     33          1           0        2.572659   -0.763493   -1.253406
     34          1           0       -1.490288    3.371550   -1.691298
     35          1           0       -2.152415    5.508399   -0.639297
     36          1           0       -0.986906    6.296073    1.399297
     37          1           0        0.837256    4.941218    2.382474
     38          1           0        1.507055    2.822665    1.337918
     39          1           0       -0.419966   -2.585334   -2.690515
     40          1           0       -0.391919   -5.052704   -2.594284
     41          1           0       -1.560268   -6.236143   -0.757518
     42          1           0       -2.751701   -4.939536    0.983820
     43          1           0       -2.794833   -2.481284    0.889409
     44          1           0       -2.438330    1.571633    1.054962
     45          1           0       -4.681152    2.351751    1.674035
     46          1           0       -6.697276    1.256577    0.737348
     47          1           0       -6.441966   -0.631835   -0.850305
     48          1           0       -4.211441   -1.413266   -1.492161
     49          6           0        0.036416    0.065781    1.547495
     50          8           0       -0.695182    0.849559    2.128778
     51          7           0        0.951167   -0.671782    2.253816
     52          1           0        0.957334   -0.419636    3.234955
     53          6           0        1.920420   -1.635756    1.840476
     54          6           0        3.262502   -1.413200    2.150163
     55          6           0        1.542778   -2.817712    1.203180
     56          6           0        4.220714   -2.361487    1.815092
     57          1           0        3.550345   -0.496895    2.651271
     58          6           0        2.511630   -3.750826    0.845514
     59          1           0        0.497432   -3.019956    1.013945
     60          6           0        3.849540   -3.528270    1.153590
     61          1           0        5.258699   -2.185331    2.068094
     62          1           0        2.211607   -4.666969    0.353604
     63          1           0        4.598455   -4.266565    0.892521
 ---------------------------------------------------------------------

 SCF Done:  E(RB3LYP) =  -2048.88328845     A.U. after   15 cycles

      1  P    Isotropic =   209.9112   Anisotropy =   111.9808

      2  P    Isotropic =   201.6546   Anisotropy =   118.6909

      3  C    Isotropic =   130.1477   Anisotropy =    16.6055

      4  C    Isotropic =    32.6650   Anisotropy =   192.8012

      5  C    Isotropic =    50.5640   Anisotropy =   181.8611

      6  C    Isotropic =    49.8105   Anisotropy =   183.2103

      7  C    Isotropic =    53.6863   Anisotropy =   179.1315

      8  C    Isotropic =    50.5853   Anisotropy =   183.2959

      9  C    Isotropic =    50.7762   Anisotropy =   185.7978

     10  C    Isotropic =    38.9763   Anisotropy =   197.7929

     11  C    Isotropic =    38.6272   Anisotropy =   185.8531

     12  C    Isotropic =    50.2772   Anisotropy =   183.5596

     13  C    Isotropic =    47.4808   Anisotropy =   190.8373

     14  C    Isotropic =    49.6104   Anisotropy =   183.5727

     15  C    Isotropic =    36.8542   Anisotropy =   193.5832

     16  C    Isotropic =    30.6013   Anisotropy =   210.3127

     17  C    Isotropic =    41.6064   Anisotropy =   183.0910

     18  C    Isotropic =    49.4552   Anisotropy =   184.9432

     19  C    Isotropic =    48.8731   Anisotropy =   188.4387

     20  C    Isotropic =    48.7841   Anisotropy =   185.3583

     21  C    Isotropic =    41.3630   Anisotropy =   189.9220

     22  C    Isotropic =    37.3362   Anisotropy =   179.1855

     23  C    Isotropic =    43.0544   Anisotropy =   197.0651

     24  C    Isotropic =    50.3334   Anisotropy =   183.4600

     25  C    Isotropic =    52.8129   Anisotropy =   180.9433

     26  C    Isotropic =    51.6708   Anisotropy =   180.6071

     27  C    Isotropic =    48.8370   Anisotropy =   183.2107

     28  H    Isotropic =    28.0727   Anisotropy =     6.5835

     29  H    Isotropic =    24.9361   Anisotropy =    13.0022

     30  H    Isotropic =    24.6484   Anisotropy =     5.9850

     31  H    Isotropic =    24.7862   Anisotropy =     4.4847

     32  H    Isotropic =    25.0048   Anisotropy =     7.4493

     33  H    Isotropic =    25.3759   Anisotropy =     7.0651

     34  H    Isotropic =    23.7611   Anisotropy =     8.0517

     35  H    Isotropic =    24.2212   Anisotropy =     5.1802

     36  H    Isotropic =    24.1025   Anisotropy =     4.0139

     37  H    Isotropic =    24.1980   Anisotropy =     6.2849

     38  H    Isotropic =    23.9512   Anisotropy =    10.0240

     39  H    Isotropic =    23.6324   Anisotropy =     8.5232

     40  H    Isotropic =    24.0346   Anisotropy =     4.6277

     41  H    Isotropic =    24.1131   Anisotropy =     3.6907

     42  H    Isotropic =    24.2580   Anisotropy =     6.1513

     43  H    Isotropic =    23.8431   Anisotropy =    11.2108

     44  H    Isotropic =    23.4345   Anisotropy =     8.1100

     45  H    Isotropic =    24.6637   Anisotropy =     7.5453

     46  H    Isotropic =    24.6143   Anisotropy =     4.2857

     47  H    Isotropic =    24.5523   Anisotropy =     5.6021

     48  H    Isotropic =    24.6549   Anisotropy =    12.1249

     49  C    Isotropic =    10.9918   Anisotropy =   112.6135

     50  O    Isotropic =   -97.6059   Anisotropy =   559.2525

     51  N    Isotropic =   107.3006   Anisotropy =   115.4998

     52  H    Isotropic =    25.6172   Anisotropy =     6.9408

     53  C    Isotropic =    37.0568   Anisotropy =   152.9890

     54  C    Isotropic =    51.6057   Anisotropy =   164.3754

     55  C    Isotropic =    50.7695   Anisotropy =   169.4876

     56  C    Isotropic =    48.6000   Anisotropy =   186.7203

     57  H    Isotropic =    25.0380   Anisotropy =     6.5267

     58  C    Isotropic =    48.2951   Anisotropy =   185.1915

     59  H    Isotropic =    25.9960   Anisotropy =     6.2074

     60  C    Isotropic =    52.0010   Anisotropy =   184.9292

     61  H    Isotropic =    24.5110   Anisotropy =     4.1816

     62  H    Isotropic =    24.7540   Anisotropy =     8.9293

     63  H    Isotropic =    24.5029   Anisotropy =     4.8087

 The electronic state is 1-A.
 Alpha  occ. eigenvalues --  -77.05652 -77.05541 -19.09352 -14.35356 -10.28463
 Alpha  occ. eigenvalues --  -10.23219 -10.20473 -10.19075 -10.19008 -10.19002
 Alpha  occ. eigenvalues --  -10.18870 -10.18805 -10.18771 -10.18616 -10.18584
 Alpha  occ. eigenvalues --  -10.18572 -10.18485 -10.18367 -10.18294 -10.18285
 Alpha  occ. eigenvalues --  -10.18168 -10.17917 -10.17890 -10.17831 -10.17721
 Alpha  occ. eigenvalues --  -10.17599 -10.17589 -10.17539 -10.17539 -10.17451
 Alpha  occ. eigenvalues --  -10.17346 -10.17130 -10.16888 -10.16679 -10.16546
 Alpha  occ. eigenvalues --  -10.16174  -6.54145  -6.54055  -4.70328  -4.70238
 Alpha  occ. eigenvalues --   -4.70227  -4.70149  -4.69778  -4.69697  -1.04652
 Alpha  occ. eigenvalues --   -0.94291  -0.86749  -0.86399  -0.86182  -0.85660
 Alpha  occ. eigenvalues --   -0.85058  -0.78481  -0.76583  -0.76523  -0.75918
 Alpha  occ. eigenvalues --   -0.75762  -0.75085  -0.75007  -0.74464  -0.74425
 Alpha  occ. eigenvalues --   -0.74081  -0.73797  -0.64973  -0.64170  -0.63006
 Alpha  occ. eigenvalues --   -0.62562  -0.61558  -0.61021  -0.60697  -0.60132
 Alpha  occ. eigenvalues --   -0.59963  -0.59812  -0.58911  -0.56207  -0.55880
 Alpha  occ. eigenvalues --   -0.54029  -0.52402  -0.52011  -0.50807  -0.50181
 Alpha  occ. eigenvalues --   -0.49948  -0.49093  -0.47556  -0.46272  -0.46124
 Alpha  occ. eigenvalues --   -0.45860  -0.45697  -0.45612  -0.45280  -0.44905
 Alpha  occ. eigenvalues --   -0.44861  -0.44304  -0.44031  -0.43276  -0.42912
 Alpha  occ. eigenvalues --   -0.42653  -0.42579  -0.42262  -0.41894  -0.41091
 Alpha  occ. eigenvalues --   -0.40679  -0.39644  -0.38694  -0.38518  -0.37832
 Alpha  occ. eigenvalues --   -0.37547  -0.37346  -0.37152  -0.36689  -0.36405
 Alpha  occ. eigenvalues --   -0.35636  -0.35571  -0.34937  -0.34852  -0.33967
 Alpha  occ. eigenvalues --   -0.32746  -0.32337  -0.31884  -0.29869  -0.28346
 Alpha  occ. eigenvalues --   -0.27523  -0.27138  -0.26866  -0.26714  -0.26425
 Alpha  occ. eigenvalues --   -0.26100  -0.25995  -0.25515  -0.25011  -0.24681
 Alpha  occ. eigenvalues --   -0.21842  -0.18710
 Alpha virt. eigenvalues --   -0.03948  -0.03864  -0.03153  -0.02879  -0.02628
 Alpha virt. eigenvalues --   -0.02234  -0.01849  -0.01680  -0.01134  -0.00126
 Alpha virt. eigenvalues --    0.00536   0.02869   0.03175   0.03959   0.04612

 Mulliken charges:
               1
     1  P    0.167803
     2  P    0.165642
     3  C   -0.206675
     4  C    0.103691
     5  C   -0.189577
     6  C   -0.120695
     7  C   -0.110837
     8  C   -0.127073
     9  C   -0.220676
    10  C    0.037447
    11  C   -0.163268
    12  C   -0.103886
    13  C   -0.098581
    14  C   -0.094016
    15  C   -0.143540
    16  C   -0.016297
    17  C   -0.153661
    18  C   -0.119820
    19  C   -0.096834
    20  C   -0.108767
    21  C   -0.174809
    22  C    0.046840
    23  C   -0.165619
    24  C   -0.135530
    25  C   -0.108621
    26  C   -0.115033
    27  C   -0.191511
    28  H    0.095808
    29  H    0.140871
    30  H    0.107576
    31  H    0.105559
    32  H    0.105188
    33  H    0.129059
    34  H    0.120852
    35  H    0.110232
    36  H    0.110304
    37  H    0.105402
    38  H    0.116685
    39  H    0.118320
    40  H    0.111867
    41  H    0.113403
    42  H    0.112967
    43  H    0.142252
    44  H    0.193897
    45  H    0.106060
    46  H    0.103574
    47  H    0.104978
    48  H    0.122024
    49  C    0.238868
    50  O   -0.374411
    51  N   -0.262014
    52  H    0.218440
    53  C    0.217447
    54  C   -0.184512
    55  C   -0.210040
    56  C   -0.117164
    57  H    0.119290
    58  C   -0.149352
    59  H    0.216022
    60  C   -0.088422
    61  H    0.113067
    62  H    0.116467
    63  H    0.113339
 Sum of Mulliken charges =  -0.00000

 Dipole moment (field-independent basis, Debye):
    X=              2.6053    Y=             -2.2638    Z=              1.3936  Tot=              3.7221
 Quadrupole moment (field-independent basis, Debye-Ang):
   XX=           -209.3285   YY=           -200.6342   ZZ=           -228.9715
   XY=             -3.3313   XZ=              3.8175   YZ=              5.5079

 Summary of Natural Population Analysis:

                                       Natural Population
                Natural  -----------------------------------------------
    Atom  No    Charge         Core      Valence    Rydberg      Total
 -----------------------------------------------------------------------
      P    1    0.86636      9.99806     4.10260    0.03298    14.13364
      P    2    0.85962      9.99806     4.10884    0.03348    14.14038
      C    3   -0.86166      1.99923     4.82745    0.03497     6.86166
      C    4   -0.32538      1.99898     4.29689    0.02951     6.32538
      C    5   -0.21054      1.99909     4.19168    0.01977     6.21054
      C    6   -0.19574      1.99919     4.17778    0.01878     6.19574
      C    7   -0.21716      1.99919     4.19839    0.01958     6.21716
      C    8   -0.19449      1.99918     4.17664    0.01867     6.19449
      C    9   -0.21040      1.99908     4.19170    0.01963     6.21040
      C   10   -0.34946      1.99899     4.31731    0.03317     6.34946
      C   11   -0.18156      1.99910     4.16225    0.02022     6.18156
      C   12   -0.20929      1.99918     4.19080    0.01932     6.20929
      C   13   -0.19035      1.99919     4.17228    0.01888     6.19035
      C   14   -0.20618      1.99918     4.18814    0.01886     6.20618
      C   15   -0.17042      1.99908     4.15103    0.02031     6.17042
      C   16   -0.33644      1.99900     4.30452    0.03293     6.33644
      C   17   -0.19913      1.99910     4.17992    0.02011     6.19913
      C   18   -0.20708      1.99918     4.18837    0.01952     6.20708
      C   19   -0.20298      1.99919     4.18462    0.01917     6.20298
      C   20   -0.20551      1.99919     4.18741    0.01891     6.20551
      C   21   -0.20048      1.99908     4.18177    0.01963     6.20048
      C   22   -0.33837      1.99898     4.30762    0.03177     6.33837
      C   23   -0.20722      1.99908     4.18802    0.02012     6.20722
      C   24   -0.19637      1.99918     4.17886    0.01833     6.19637
      C   25   -0.21249      1.99918     4.19385    0.01946     6.21249
      C   26   -0.20405      1.99918     4.18615    0.01872     6.20405
      C   27   -0.20829      1.99909     4.18973    0.01948     6.20829
      H   28    0.26361      0.00000     0.73425    0.00214     0.73639
      H   29    0.21599      0.00000     0.78221    0.00180     0.78401
      H   30    0.20777      0.00000     0.79093    0.00130     0.79223
      H   31    0.20686      0.00000     0.79195    0.00120     0.79314
      H   32    0.20805      0.00000     0.79062    0.00133     0.79195
      H   33    0.20270      0.00000     0.79534    0.00197     0.79730
      H   34    0.22130      0.00000     0.77719    0.00150     0.77870
      H   35    0.21079      0.00000     0.78795    0.00127     0.78921
      H   36    0.20816      0.00000     0.79066    0.00118     0.79184
      H   37    0.20809      0.00000     0.79054    0.00138     0.79191
      H   38    0.20973      0.00000     0.78775    0.00252     0.79027
      H   39    0.21793      0.00000     0.78051    0.00155     0.78207
      H   40    0.21056      0.00000     0.78818    0.00126     0.78944
      H   41    0.20965      0.00000     0.78917    0.00117     0.79035
      H   42    0.21049      0.00000     0.78814    0.00137     0.78951
      H   43    0.22020      0.00000     0.77758    0.00222     0.77980
      H   44    0.24824      0.00000     0.74976    0.00200     0.75176
      H   45    0.20780      0.00000     0.79093    0.00127     0.79220
      H   46    0.20572      0.00000     0.79309    0.00119     0.79428
      H   47    0.20690      0.00000     0.79182    0.00128     0.79310
      H   48    0.21059      0.00000     0.78764    0.00177     0.78941
      C   49    0.64705      1.99925     3.31876    0.03494     5.35295
      O   50   -0.61320      1.99975     6.58702    0.02643     8.61320
      N   51   -0.59793      1.99939     5.57492    0.02362     7.59793
      H   52    0.40351      0.00000     0.59367    0.00283     0.59649
      C   53    0.11934      1.99888     3.86094    0.02084     5.88066
      C   54   -0.21034      1.99907     4.19230    0.01897     6.21034
      C   55   -0.22823      1.99904     4.20905    0.02014     6.22823
      C   56   -0.19276      1.99920     4.17451    0.01906     6.19276
      H   57    0.21533      0.00000     0.78333    0.00134     0.78467
      C   58   -0.19432      1.99920     4.17606    0.01906     6.19432
      H   59    0.22842      0.00000     0.76921    0.00237     0.77158
      C   60   -0.21120      1.99919     4.19280    0.01921     6.21120
      H   61    0.21240      0.00000     0.78644    0.00115     0.78760
      H   62    0.21462      0.00000     0.78408    0.00129     0.78538
      H   63    0.21126      0.00000     0.78762    0.00112     0.78874
 =======================================================================
   * Total *   -0.00000     87.96716   175.17155    0.86129   264.00000

 1\1\GINC-G4NODEC9\SP\RB3LYP\def2TZVP\C32H27N1O1P2\ROOT\24-Jan-2025\0\\
 # nmr=giao b3lyp/def2TZVP pop=nbo scfcyc=200\\MS-47 SPE NoRh\\0,1\P,0,
 0.182,1.361,0.253\P,0,-0.578,-1.339,0.281\C,0,0.932,-0.296,0.806\C,0,1
 .532,2.392,-0.467\C,0,1.49,3.785,-0.335\C,0,2.427,4.581,-0.985\C,0,3.4
 13,3.999,-1.775\C,0,3.454,2.616,-1.92\C,0,2.515,1.817,-1.278\C,0,-0.42
 4,2.273,1.725\C,0,-1.801,2.434,1.896\C,0,-2.295,3.12,3.001\C,0,-1.417,
 3.65,3.939\C,0,-0.043,3.492,3.775\C,0,0.454,2.807,2.675\C,0,0.164,-2.9
 ,-0.364\C,0,0.516,-2.977,-1.714\C,0,1.131,-4.12,-2.215\C,0,1.398,-5.19

 Normal termination of Gaussian 16 at Fri Jan 24 17:17:32 2025.
