 Gaussian 16, Revision B.01,
 Gaussian 16:  ES64L-G16RevB.01 20-Dec-2017

 --------------------------------------------
 # nmr=giao b3lyp/def2TZVP pop=nbo scfcyc=200
 --------------------------------------------

 -------------
 MS-4 SPE NoRh
 -------------
 Symbolic Z-matrix:
 Charge =  0 Multiplicity = 1

                         Standard orientation:
 ---------------------------------------------------------------------
 Center     Atomic      Atomic             Coordinates (Angstroms)
 Number     Number       Type             X           Y           Z
 ---------------------------------------------------------------------
      1         15           0       -1.466794   -0.833433    0.617407
      2         15           0        1.333423   -1.068423    0.716971
      3          6           0        0.040300    0.293894    0.316701
      4          1           0        0.084575    0.871273    1.242107
      5          6           0       -2.839278    0.261191    1.305265
      6          1           0       -3.059325    0.984260    0.515277
      7          6           0       -2.401500    1.019150    2.562715
      8          1           0       -3.235781    1.614824    2.936637
      9          1           0       -1.575834    1.707596    2.375475
     10          1           0       -2.095899    0.339250    3.359096
     11          6           0       -4.107459   -0.559791    1.581770
     12          1           0       -3.953058   -1.276685    2.389237
     13          1           0       -4.458294   -1.105046    0.707523
     14          1           0       -4.912478    0.110458    1.891750
     15          6           0       -2.019467   -1.426351   -1.094451
     16          1           0       -1.085949   -1.398110   -1.659815
     17          6           0       -2.532044   -2.870646   -1.065725
     18          1           0       -3.467993   -2.967258   -0.512338
     19          1           0       -1.802866   -3.550650   -0.624537
     20          1           0       -2.726540   -3.202820   -2.087966
     21          6           0       -3.003254   -0.493015   -1.811130
     22          1           0       -3.127031   -0.842332   -2.839363
     23          1           0       -2.639360    0.531638   -1.865837
     24          1           0       -3.989584   -0.496394   -1.347911
     25          6           0        2.726520   -0.226745    1.674039
     26          1           0        3.361430   -1.071594    1.957415
     27          6           0        2.199888    0.411825    2.966782
     28          1           0        3.041186    0.683302    3.608139
     29          1           0        1.547210   -0.257768    3.525756
     30          1           0        1.645760    1.331795    2.767859
     31          6           0        3.576767    0.766829    0.871853
     32          1           0        2.971136    1.556717    0.423217
     33          1           0        4.138870    0.285800    0.075405
     34          1           0        4.298452    1.244989    1.539050
     35          6           0        2.088582   -1.919150   -0.799018
     36          1           0        1.258776   -2.548021   -1.134844
     37          6           0        3.218091   -2.846802   -0.318339
     38          1           0        3.493983   -3.520448   -1.131729
     39          1           0        2.937968   -3.462100    0.536040
     40          1           0        4.112702   -2.281593   -0.051378
     41          6           0        2.556158   -1.074786   -1.988777
     42          1           0        3.381777   -0.414467   -1.730760
     43          1           0        1.750456   -0.480348   -2.408573
     44          1           0        2.918638   -1.755333   -2.764646
     45          6           0        0.086609    1.224908   -0.840701
     46          6           0        0.034596    2.025146   -2.840484
     47          6           0        0.178634    3.100073   -2.007951
     48          1           0       -0.025634    2.017198   -3.915825
     49          1           0        0.260808    4.155646   -2.200687
     50          7           0       -0.022016    0.871507   -2.107345
     51          7           0        0.214849    2.592950   -0.728699
     52          6           0        0.299717    3.409891    0.475075
     53          1           0        0.631151    4.406517    0.195880
     54          1           0       -0.671123    3.494106    0.967298
     55          1           0        1.025445    2.998510    1.173930
 ---------------------------------------------------------------------

 SCF Done:  E(RB3LYP) =  -1460.81057012     A.U. after   14 cycles

      1  P    Isotropic =   189.4939   Anisotropy =   126.5751

      2  P    Isotropic =   194.7549   Anisotropy =   124.6493

      3  C    Isotropic =   149.9549   Anisotropy =    16.8107

      4  H    Isotropic =    28.8664   Anisotropy =     3.6657

      5  C    Isotropic =   154.4359   Anisotropy =    22.1764

      6  H    Isotropic =    29.9527   Anisotropy =     2.7673

      7  C    Isotropic =   162.5425   Anisotropy =    31.1598

      8  H    Isotropic =    30.8720   Anisotropy =    10.1687

      9  H    Isotropic =    30.7080   Anisotropy =     8.1653

     10  H    Isotropic =    30.9204   Anisotropy =     6.9576

     11  C    Isotropic =   162.6749   Anisotropy =    34.3643

     12  H    Isotropic =    31.2623   Anisotropy =     8.1273

     13  H    Isotropic =    31.1183   Anisotropy =     7.7833

     14  H    Isotropic =    30.9865   Anisotropy =    11.0400

     15  C    Isotropic =   153.3643   Anisotropy =    11.4398

     16  H    Isotropic =    28.7840   Anisotropy =     7.8885

     17  C    Isotropic =   158.1178   Anisotropy =    36.4617

     18  H    Isotropic =    31.0285   Anisotropy =     7.5807

     19  H    Isotropic =    30.3431   Anisotropy =     8.0448

     20  H    Isotropic =    30.7687   Anisotropy =    10.4021

     21  C    Isotropic =   164.4215   Anisotropy =    25.2291

     22  H    Isotropic =    30.8855   Anisotropy =    10.3946

     23  H    Isotropic =    31.0318   Anisotropy =     6.5808

     24  H    Isotropic =    31.2626   Anisotropy =     6.9138

     25  C    Isotropic =   146.6387   Anisotropy =    20.6703

     26  H    Isotropic =    29.9752   Anisotropy =     6.5865

     27  C    Isotropic =   159.9149   Anisotropy =    35.3362

     28  H    Isotropic =    30.6521   Anisotropy =    10.4401

     29  H    Isotropic =    30.3920   Anisotropy =     8.0867

     30  H    Isotropic =    30.8535   Anisotropy =     4.7318

     31  C    Isotropic =   159.7819   Anisotropy =    29.2258

     32  H    Isotropic =    31.3693   Anisotropy =     5.5436

     33  H    Isotropic =    30.4658   Anisotropy =     6.3046

     34  H    Isotropic =    30.9347   Anisotropy =    10.9410

     35  C    Isotropic =   146.7360   Anisotropy =    16.1606

     36  H    Isotropic =    29.2635   Anisotropy =     6.4164

     37  C    Isotropic =   161.6493   Anisotropy =    35.3417

     38  H    Isotropic =    30.7766   Anisotropy =    10.5344

     39  H    Isotropic =    30.6225   Anisotropy =     8.9098

     40  H    Isotropic =    31.1377   Anisotropy =     6.6632

     41  C    Isotropic =   163.5169   Anisotropy =    25.2188

     42  H    Isotropic =    31.3470   Anisotropy =     4.6278

     43  H    Isotropic =    28.7851   Anisotropy =    12.6024

     44  H    Isotropic =    31.1708   Anisotropy =    10.2946

     45  C    Isotropic =    30.5352   Anisotropy =   106.1873

     46  C    Isotropic =    50.4349   Anisotropy =   120.5661

     47  C    Isotropic =    60.2986   Anisotropy =    90.3784

     48  H    Isotropic =    24.7691   Anisotropy =     2.4184

     49  H    Isotropic =    25.1554   Anisotropy =     3.6743

     50  N    Isotropic =   -43.0346   Anisotropy =   397.2698

     51  N    Isotropic =    79.9155   Anisotropy =   117.7554

     52  C    Isotropic =   148.5819   Anisotropy =    48.8212

     53  H    Isotropic =    28.3730   Anisotropy =     9.3187

     54  H    Isotropic =    28.3743   Anisotropy =     7.8012

     55  H    Isotropic =    28.1295   Anisotropy =     5.5131

 The electronic state is 1-A.
 Alpha  occ. eigenvalues --  -77.03413 -77.03128 -14.37775 -14.28935 -10.23131
 Alpha  occ. eigenvalues --  -10.22977 -10.19583 -10.19513 -10.18140 -10.17990
 Alpha  occ. eigenvalues --  -10.17778 -10.17529 -10.16846 -10.16700 -10.16542
 Alpha  occ. eigenvalues --  -10.16128 -10.16038 -10.16001 -10.15197 -10.14832
 Alpha  occ. eigenvalues --  -10.14183  -6.51936  -6.51667  -4.68129  -4.68012
 Alpha  occ. eigenvalues --   -4.67850  -4.67734  -4.67547  -4.67301  -1.02066
 Alpha  occ. eigenvalues --   -0.88917  -0.80599  -0.79624  -0.77856  -0.77637
 Alpha  occ. eigenvalues --   -0.77232  -0.73607  -0.70192  -0.68971  -0.68752
 Alpha  occ. eigenvalues --   -0.67739  -0.67591  -0.62693  -0.61916  -0.60155
 Alpha  occ. eigenvalues --   -0.58259  -0.57723  -0.56461  -0.53909  -0.51687
 Alpha  occ. eigenvalues --   -0.49565  -0.48577  -0.46854  -0.46011  -0.45785
 Alpha  occ. eigenvalues --   -0.45322  -0.44413  -0.43841  -0.43612  -0.43410
 Alpha  occ. eigenvalues --   -0.42539  -0.41661  -0.41330  -0.40861  -0.40551
 Alpha  occ. eigenvalues --   -0.40194  -0.39888  -0.39698  -0.39472  -0.38849
 Alpha  occ. eigenvalues --   -0.38593  -0.37911  -0.37555  -0.35978  -0.35227
 Alpha  occ. eigenvalues --   -0.35148  -0.34479  -0.34157  -0.34014  -0.33683
 Alpha  occ. eigenvalues --   -0.33652  -0.32750  -0.30832  -0.28751  -0.28586
 Alpha  occ. eigenvalues --   -0.27550  -0.26850  -0.22240  -0.21869  -0.17125
 Alpha virt. eigenvalues --    0.00099   0.01318   0.02385   0.03177   0.03388
 Alpha virt. eigenvalues --    0.04247   0.04466   0.05169   0.05862   0.06082
 Alpha virt. eigenvalues --    0.06379   0.06857   0.07218   0.07527   0.08099

 Mulliken charges:
               1
     1  P    0.125712
     2  P    0.109451
     3  C   -0.196552
     4  H    0.062418
     5  C   -0.036160
     6  H    0.073541
     7  C   -0.362022
     8  H    0.110631
     9  H    0.095286
    10  H    0.117541
    11  C   -0.346570
    12  H    0.110565
    13  H    0.110333
    14  H    0.107059
    15  C   -0.070388
    16  H    0.105494
    17  C   -0.328212
    18  H    0.100032
    19  H    0.116357
    20  H    0.104304
    21  C   -0.372027
    22  H    0.100689
    23  H    0.135971
    24  H    0.099651
    25  C   -0.056716
    26  H    0.088763
    27  C   -0.369888
    28  H    0.114010
    29  H    0.132468
    30  H    0.090194
    31  C   -0.337542
    32  H    0.103930
    33  H    0.110475
    34  H    0.098123
    35  C   -0.056813
    36  H    0.083940
    37  C   -0.368798
    38  H    0.114040
    39  H    0.125153
    40  H    0.107414
    41  C   -0.347275
    42  H    0.086055
    43  H    0.165556
    44  H    0.089515
    45  C    0.221792
    46  C   -0.076208
    47  C   -0.125236
    48  H    0.112667
    49  H    0.129924
    50  N   -0.394419
    51  N   -0.031937
    52  C   -0.303587
    53  H    0.139887
    54  H    0.147633
    55  H    0.133778
 Sum of Mulliken charges =  -0.00000

 Dipole moment (field-independent basis, Debye):
    X=              0.6316    Y=              3.6341    Z=              0.9567  Tot=              3.8106
 Quadrupole moment (field-independent basis, Debye-Ang):
   XX=           -148.8689   YY=           -140.8244   ZZ=           -153.1638
   XY=             -0.9348   XZ=              1.2994   YZ=              4.8971

 Summary of Natural Population Analysis:

                                       Natural Population
                Natural  -----------------------------------------------
    Atom  No    Charge         Core      Valence    Rydberg      Total
 -----------------------------------------------------------------------
      P    1    0.80838      9.99852     4.16054    0.03256    14.19162
      P    2    0.79893      9.99856     4.17042    0.03208    14.20107
      C    3   -0.81828      1.99923     4.78657    0.03248     6.81828
      H    4    0.24921      0.00000     0.74738    0.00341     0.75079
      C    5   -0.49145      1.99944     4.46966    0.02234     6.49145
      H    6    0.19513      0.00000     0.80121    0.00366     0.80487
      C    7   -0.59111      1.99943     4.58044    0.01124     6.59111
      H    8    0.20475      0.00000     0.79360    0.00164     0.79525
      H    9    0.19042      0.00000     0.80827    0.00131     0.80958
      H   10    0.20581      0.00000     0.79237    0.00182     0.79419
      C   11   -0.59366      1.99942     4.58242    0.01181     6.59366
      H   12    0.20486      0.00000     0.79331    0.00183     0.79514
      H   13    0.20442      0.00000     0.79389    0.00169     0.79558
      H   14    0.20234      0.00000     0.79606    0.00160     0.79766
      C   15   -0.48702      1.99943     4.46425    0.02335     6.48702
      H   16    0.23757      0.00000     0.76029    0.00214     0.76243
      C   17   -0.59046      1.99943     4.57976    0.01128     6.59046
      H   18    0.19462      0.00000     0.80387    0.00152     0.80538
      H   19    0.21131      0.00000     0.78743    0.00126     0.78869
      H   20    0.19953      0.00000     0.79886    0.00162     0.80047
      C   21   -0.59663      1.99942     4.58469    0.01252     6.59663
      H   22    0.20175      0.00000     0.79653    0.00172     0.79825
      H   23    0.21391      0.00000     0.78454    0.00155     0.78609
      H   24    0.18932      0.00000     0.80917    0.00151     0.81068
      C   25   -0.48412      1.99943     4.46167    0.02302     6.48412
      H   26    0.21545      0.00000     0.78274    0.00181     0.78455
      C   27   -0.59247      1.99943     4.58169    0.01135     6.59247
      H   28    0.20569      0.00000     0.79267    0.00165     0.79431
      H   29    0.21763      0.00000     0.78096    0.00141     0.78237
      H   30    0.18289      0.00000     0.81564    0.00147     0.81711
      C   31   -0.59780      1.99942     4.58592    0.01245     6.59780
      H   32    0.19206      0.00000     0.80634    0.00160     0.80794
      H   33    0.20515      0.00000     0.79323    0.00162     0.79485
      H   34    0.19357      0.00000     0.80425    0.00218     0.80643
      C   35   -0.46837      1.99941     4.44705    0.02191     6.46837
      H   36    0.21273      0.00000     0.78540    0.00187     0.78727
      C   37   -0.59614      1.99943     4.58513    0.01158     6.59614
      H   38    0.20735      0.00000     0.79102    0.00163     0.79265
      H   39    0.21135      0.00000     0.78707    0.00158     0.78865
      H   40    0.19447      0.00000     0.80404    0.00148     0.80553
      C   41   -0.61142      1.99941     4.59964    0.01237     6.61142
      H   42    0.18976      0.00000     0.80878    0.00146     0.81024
      H   43    0.24120      0.00000     0.75727    0.00153     0.75880
      H   44    0.19164      0.00000     0.80651    0.00185     0.80836
      C   45    0.32149      1.99917     3.64956    0.02978     5.67851
      C   46   -0.08571      1.99919     4.06236    0.02416     6.08571
      C   47   -0.11376      1.99911     4.09251    0.02214     6.11376
      H   48    0.20416      0.00000     0.79466    0.00118     0.79584
      H   49    0.20952      0.00000     0.78924    0.00124     0.79048
      N   50   -0.48640      1.99935     5.45136    0.03568     7.48640
      N   51   -0.33029      1.99936     5.30749    0.02344     7.33029
      C   52   -0.39283      1.99933     4.38298    0.01052     6.39283
      H   53    0.21286      0.00000     0.78581    0.00133     0.78714
      H   54    0.20122      0.00000     0.79691    0.00187     0.79878
      H   55    0.20545      0.00000     0.79241    0.00214     0.79455
 =======================================================================
   * Total *   -0.00000     57.98490   121.52787    0.48722   180.00000

 Normal termination of Gaussian 16 at Fri Jan 24 04:43:24 2025.
