 Gaussian 16, Revision B.01,
 Gaussian 16:  ES64L-G16RevB.01 20-Dec-2017

 --------------------------------------------
 # nmr=giao b3lyp/def2TZVP pop=nbo scfcyc=200
 --------------------------------------------

 --------------
 MS-41 SPE NoRh
 --------------
 Symbolic Z-matrix:
 Charge =  0 Multiplicity = 1

                         Standard orientation:
 ---------------------------------------------------------------------
 Center     Atomic      Atomic             Coordinates (Angstroms)
 Number     Number       Type             X           Y           Z
 ---------------------------------------------------------------------
      1         15           0        1.603628    0.216051   -1.141405
      2         15           0       -1.152563    0.765317   -1.259793
      3          6           0        0.032414   -0.316485   -0.225731
      4          6           0        2.702170   -1.260520   -1.226365
      5          6           0        3.938031   -1.106717   -1.869002
      6          6           0        4.798994   -2.187293   -2.006664
      7          6           0        4.438016   -3.436232   -1.509453
      8          6           0        3.216069   -3.596268   -0.868954
      9          6           0        2.348944   -2.516218   -0.729631
     10          6           0        2.560937    1.451826   -0.175656
     11          6           0        2.464261    2.801972   -0.523306
     12          6           0        3.187458    3.758758    0.181523
     13          6           0        4.015257    3.371716    1.229283
     14          6           0        4.121192    2.025961    1.572933
     15          6           0        3.398286    1.067874    0.876603
     16          6           0       -2.653012   -0.282531   -1.470855
     17          6           0       -2.694528   -1.183490   -2.540832
     18          6           0       -3.780313   -2.037888   -2.697229
     19          6           0       -4.835005   -1.996808   -1.791543
     20          6           0       -4.798532   -1.105536   -0.722874
     21          6           0       -3.713367   -0.252133   -0.558254
     22          6           0       -1.724031    2.281239   -0.387584
     23          6           0       -1.024816    2.873029    0.667832
     24          6           0       -1.461449    4.085732    1.192741
     25          6           0       -2.579716    4.723047    0.669436
     26          6           0       -3.271664    4.142420   -0.390405
     27          6           0       -2.847064    2.932083   -0.920070
     28          1           0       -0.179429   -1.285356   -0.679202
     29          1           0        4.241544   -0.136271   -2.244932
     30          1           0        5.754071   -2.052290   -2.499340
     31          1           0        5.110529   -4.278137   -1.615551
     32          1           0        2.933351   -4.562395   -0.469895
     33          1           0        1.410556   -2.668927   -0.213761
     34          1           0        1.823426    3.100404   -1.343817
     35          1           0        3.107700    4.803372   -0.092367
     36          1           0        4.583738    4.115695    1.774372
     37          1           0        4.765421    1.723339    2.388451
     38          1           0        3.489217    0.026271    1.153158
     39          1           0       -1.876326   -1.213716   -3.250475
     40          1           0       -3.806215   -2.728935   -3.531359
     41          1           0       -5.684580   -2.655796   -1.917680
     42          1           0       -5.616754   -1.073176   -0.014434
     43          1           0       -3.697435    0.435871    0.276458
     44          1           0       -0.159396    2.391898    1.097331
     45          1           0       -0.920976    4.528958    2.020370
     46          1           0       -2.914902    5.664801    1.084463
     47          1           0       -4.146004    4.631257   -0.803593
     48          1           0       -3.403144    2.490661   -1.737591
     49          6           0       -0.639693   -1.608743    1.938408
     50          6           0       -1.349384   -2.591511    1.236319
     51          6           0       -0.506349   -1.732575    3.329725
     52          6           0       -1.908500   -3.670864    1.909591
     53          1           0       -1.498297   -2.518607    0.167333
     54          6           0       -1.057552   -2.813376    3.996973
     55          1           0        0.036360   -0.966923    3.867953
     56          6           0       -1.759846   -3.786875    3.287929
     57          1           0       -2.460824   -4.421734    1.357833
     58          1           0       -0.943540   -2.901599    5.070108
     59          1           0       -2.192539   -4.631827    3.809629
     60          6           0       -0.013399   -0.416016    1.295590
     61          8           0        0.481951    0.469648    1.967705
 ---------------------------------------------------------------------

 SCF Done:  E(RB3LYP) =  -1993.49568208     A.U. after   16 cycles

      1  P    Isotropic =   208.0534   Anisotropy =   121.5686

      2  P    Isotropic =   213.9481   Anisotropy =    90.0047

      3  C    Isotropic =   127.5577   Anisotropy =    23.0649

      4  C    Isotropic =    31.8833   Anisotropy =   196.0365

      5  C    Isotropic =    47.5623   Anisotropy =   185.6344

      6  C    Isotropic =    49.5317   Anisotropy =   184.1267

      7  C    Isotropic =    52.8495   Anisotropy =   181.0242

      8  C    Isotropic =    50.6277   Anisotropy =   182.2602

      9  C    Isotropic =    50.4321   Anisotropy =   178.6896

     10  C    Isotropic =    35.9149   Anisotropy =   199.3402

     11  C    Isotropic =    39.9524   Anisotropy =   184.8691

     12  C    Isotropic =    51.1384   Anisotropy =   182.4432

     13  C    Isotropic =    48.3685   Anisotropy =   188.8579

     14  C    Isotropic =    50.0631   Anisotropy =   182.9169

     15  C    Isotropic =    37.7201   Anisotropy =   193.4793

     16  C    Isotropic =    31.4304   Anisotropy =   208.4957

     17  C    Isotropic =    42.7030   Anisotropy =   181.4612

     18  C    Isotropic =    49.4316   Anisotropy =   185.1100

     19  C    Isotropic =    48.9178   Anisotropy =   189.1032

     20  C    Isotropic =    49.1996   Anisotropy =   186.3846

     21  C    Isotropic =    41.5379   Anisotropy =   192.5221

     22  C    Isotropic =    37.6552   Anisotropy =   181.3562

     23  C    Isotropic =    45.1156   Anisotropy =   199.1727

     24  C    Isotropic =    49.8976   Anisotropy =   185.4468

     25  C    Isotropic =    52.4277   Anisotropy =   182.0286

     26  C    Isotropic =    51.1363   Anisotropy =   182.0909

     27  C    Isotropic =    48.7601   Anisotropy =   183.1816

     28  H    Isotropic =    27.1595   Anisotropy =     5.0089

     29  H    Isotropic =    24.5912   Anisotropy =    11.5868

     30  H    Isotropic =    24.4842   Anisotropy =     5.3687

     31  H    Isotropic =    24.6613   Anisotropy =     4.1515

     32  H    Isotropic =    24.7084   Anisotropy =     7.6869

     33  H    Isotropic =    24.4265   Anisotropy =     9.3233

     34  H    Isotropic =    23.6892   Anisotropy =     7.9446

     35  H    Isotropic =    24.3156   Anisotropy =     5.4222

     36  H    Isotropic =    24.2133   Anisotropy =     3.9813

     37  H    Isotropic =    24.4078   Anisotropy =     6.2165

     38  H    Isotropic =    24.4952   Anisotropy =    11.2283

     39  H    Isotropic =    23.5276   Anisotropy =     8.9683

     40  H    Isotropic =    24.0591   Anisotropy =     5.3732

     41  H    Isotropic =    24.2661   Anisotropy =     3.5674

     42  H    Isotropic =    24.5738   Anisotropy =     5.8510

     43  H    Isotropic =    24.3520   Anisotropy =    10.7368

     44  H    Isotropic =    24.0304   Anisotropy =     7.6427

     45  H    Isotropic =    24.6095   Anisotropy =     7.4489

     46  H    Isotropic =    24.6018   Anisotropy =     4.2583

     47  H    Isotropic =    24.5053   Anisotropy =     5.4690

     48  H    Isotropic =    24.5558   Anisotropy =    11.7993

     49  C    Isotropic =    39.7775   Anisotropy =   176.2990

     50  C    Isotropic =    47.7570   Anisotropy =   188.4684

     51  C    Isotropic =    47.9537   Anisotropy =   201.8621

     52  C    Isotropic =    50.4129   Anisotropy =   184.1403

     53  H    Isotropic =    24.8573   Anisotropy =     7.6451

     54  C    Isotropic =    49.5892   Anisotropy =   184.3500

     55  H    Isotropic =    23.3873   Anisotropy =     9.3539

     56  C    Isotropic =    45.0301   Anisotropy =   191.9387

     57  H    Isotropic =    24.6455   Anisotropy =     7.9111

     58  H    Isotropic =    24.2741   Anisotropy =     5.4701

     59  H    Isotropic =    24.2815   Anisotropy =     5.0981

     60  C    Isotropic =   -16.3162   Anisotropy =   152.6430

     61  O    Isotropic =  -281.1177   Anisotropy =   955.3315

 The electronic state is 1-A.
 Alpha  occ. eigenvalues --  -77.06168 -77.05343 -19.11395 -10.26920 -10.20369
 Alpha  occ. eigenvalues --  -10.19652 -10.19461 -10.19309 -10.18978 -10.18950
 Alpha  occ. eigenvalues --  -10.18826 -10.18755 -10.18699 -10.18626 -10.18583
 Alpha  occ. eigenvalues --  -10.18533 -10.18485 -10.18413 -10.18350 -10.18116
 Alpha  occ. eigenvalues --  -10.17784 -10.17682 -10.17660 -10.17621 -10.17614
 Alpha  occ. eigenvalues --  -10.17607 -10.17555 -10.17455 -10.17406 -10.17357
 Alpha  occ. eigenvalues --  -10.17348 -10.17222 -10.17135 -10.17050 -10.16809
 Alpha  occ. eigenvalues --   -6.54650  -6.53871  -4.70828  -4.70738  -4.70295
 Alpha  occ. eigenvalues --   -4.70049  -4.69961  -4.69512  -1.04678  -0.87407
 Alpha  occ. eigenvalues --   -0.86815  -0.86096  -0.85562  -0.85510  -0.79246
 Alpha  occ. eigenvalues --   -0.77253  -0.76599  -0.76339  -0.75829  -0.75069
 Alpha  occ. eigenvalues --   -0.74821  -0.74671  -0.74534  -0.74356  -0.73709
 Alpha  occ. eigenvalues --   -0.65466  -0.64298  -0.62883  -0.61738  -0.61534
 Alpha  occ. eigenvalues --   -0.60773  -0.60612  -0.60377  -0.60170  -0.59860
 Alpha  occ. eigenvalues --   -0.57642  -0.56307  -0.54712  -0.52924  -0.52466
 Alpha  occ. eigenvalues --   -0.51997  -0.50263  -0.50074  -0.48089  -0.47015
 Alpha  occ. eigenvalues --   -0.46372  -0.46282  -0.45795  -0.45757  -0.45635
 Alpha  occ. eigenvalues --   -0.45316  -0.45111  -0.44864  -0.44409  -0.43841
 Alpha  occ. eigenvalues --   -0.43363  -0.43237  -0.42943  -0.42444  -0.42233
 Alpha  occ. eigenvalues --   -0.41742  -0.41342  -0.40852  -0.39418  -0.38642
 Alpha  occ. eigenvalues --   -0.38172  -0.37620  -0.37490  -0.37213  -0.36937
 Alpha  occ. eigenvalues --   -0.36908  -0.35762  -0.35636  -0.35559  -0.34966
 Alpha  occ. eigenvalues --   -0.34621  -0.34403  -0.32815  -0.32364  -0.31765
 Alpha  occ. eigenvalues --   -0.28539  -0.27568  -0.27326  -0.27069  -0.26974
 Alpha  occ. eigenvalues --   -0.26749  -0.26268  -0.26090  -0.25982  -0.25414
 Alpha  occ. eigenvalues --   -0.25170  -0.21800  -0.19019
 Alpha virt. eigenvalues --   -0.07482  -0.03803  -0.03089  -0.02981  -0.02487
 Alpha virt. eigenvalues --   -0.02202  -0.02034  -0.01900  -0.01071  -0.00333
 Alpha virt. eigenvalues --    0.01632   0.02961   0.03507   0.04438   0.04857

 Mulliken charges:
               1
     1  P    0.119276
     2  P    0.158892
     3  C   -0.168716
     4  C    0.031755
     5  C   -0.146038
     6  C   -0.121430
     7  C   -0.092473
     8  C   -0.168689
     9  C   -0.132469
    10  C    0.044341
    11  C   -0.169434
    12  C   -0.112211
    13  C   -0.091816
    14  C   -0.119490
    15  C   -0.120626
    16  C   -0.002288
    17  C   -0.177929
    18  C   -0.103308
    19  C   -0.099583
    20  C   -0.110227
    21  C   -0.160970
    22  C    0.059754
    23  C   -0.176873
    24  C   -0.138636
    25  C   -0.110048
    26  C   -0.106489
    27  C   -0.206693
    28  H    0.084583
    29  H    0.115474
    30  H    0.108716
    31  H    0.107321
    32  H    0.104160
    33  H    0.142498
    34  H    0.120906
    35  H    0.108679
    36  H    0.108588
    37  H    0.105127
    38  H    0.126793
    39  H    0.121003
    40  H    0.113516
    41  H    0.113198
    42  H    0.111822
    43  H    0.141715
    44  H    0.199595
    45  H    0.109293
    46  H    0.106082
    47  H    0.107202
    48  H    0.122884
    49  C    0.095956
    50  C   -0.195957
    51  C   -0.185476
    52  C   -0.127766
    53  H    0.170708
    54  C   -0.081878
    55  H    0.138382
    56  C   -0.100319
    57  H    0.113887
    58  H    0.115641
    59  H    0.115939
    60  C    0.233177
    61  O   -0.349032
 Sum of Mulliken charges =  -0.00000

 Dipole moment (field-independent basis, Debye):
    X=             -1.6006    Y=             -2.5726    Z=              1.1814  Tot=              3.2520
 Quadrupole moment (field-independent basis, Debye-Ang):
   XX=           -203.1758   YY=           -199.3818   ZZ=           -216.3166
   XY=              6.4723   XZ=              1.7576   YZ=              0.1267

 Summary of Natural Population Analysis:

                                       Natural Population
                Natural  -----------------------------------------------
    Atom  No    Charge         Core      Valence    Rydberg      Total
 -----------------------------------------------------------------------
      P    1    0.85896      9.99804     4.11016    0.03284    14.14104
      P    2    0.88039      9.99804     4.08911    0.03247    14.11961
      C    3   -0.86418      1.99927     4.82946    0.03545     6.86418
      C    4   -0.32422      1.99900     4.29389    0.03132     6.32422
      C    5   -0.20014      1.99909     4.18143    0.01962     6.20014
      C    6   -0.19533      1.99918     4.17756    0.01859     6.19533
      C    7   -0.21369      1.99918     4.19507    0.01944     6.21369
      C    8   -0.19594      1.99919     4.17799    0.01877     6.19594
      C    9   -0.21954      1.99907     4.20107    0.01940     6.21954
      C   10   -0.33505      1.99898     4.30318    0.03289     6.33505
      C   11   -0.18834      1.99909     4.16934    0.01991     6.18834
      C   12   -0.20817      1.99918     4.19030    0.01870     6.20817
      C   13   -0.19376      1.99919     4.17558    0.01899     6.19376
      C   14   -0.20440      1.99918     4.18650    0.01872     6.20440
      C   15   -0.17044      1.99907     4.15145    0.01991     6.17044
      C   16   -0.34272      1.99900     4.31135    0.03237     6.34272
      C   17   -0.20203      1.99910     4.18284    0.02009     6.20203
      C   18   -0.20593      1.99918     4.18733    0.01942     6.20593
      C   19   -0.19993      1.99919     4.18165    0.01909     6.19993
      C   20   -0.20171      1.99919     4.18364    0.01889     6.20171
      C   21   -0.19292      1.99908     4.17415    0.01969     6.19292
      C   22   -0.34322      1.99898     4.31322    0.03101     6.34322
      C   23   -0.21308      1.99908     4.19386    0.02014     6.21308
      C   24   -0.19418      1.99919     4.17666    0.01833     6.19418
      C   25   -0.21138      1.99919     4.19281    0.01938     6.21138
      C   26   -0.20161      1.99918     4.18374    0.01868     6.20161
      C   27   -0.20806      1.99909     4.18938    0.01959     6.20806
      H   28    0.25619      0.00000     0.74146    0.00235     0.74381
      H   29    0.21264      0.00000     0.78565    0.00172     0.78736
      H   30    0.20893      0.00000     0.78981    0.00126     0.79107
      H   31    0.20790      0.00000     0.79093    0.00117     0.79210
      H   32    0.20748      0.00000     0.79124    0.00128     0.79252
      H   33    0.20209      0.00000     0.79597    0.00195     0.79791
      H   34    0.21764      0.00000     0.78053    0.00183     0.78236
      H   35    0.20974      0.00000     0.78899    0.00127     0.79026
      H   36    0.20739      0.00000     0.79144    0.00118     0.79261
      H   37    0.20765      0.00000     0.79102    0.00133     0.79235
      H   38    0.21283      0.00000     0.78496    0.00221     0.78717
      H   39    0.21822      0.00000     0.78023    0.00155     0.78178
      H   40    0.21118      0.00000     0.78756    0.00126     0.78882
      H   41    0.20953      0.00000     0.78930    0.00117     0.79047
      H   42    0.21003      0.00000     0.78861    0.00135     0.78997
      H   43    0.21872      0.00000     0.77911    0.00217     0.78128
      H   44    0.24212      0.00000     0.75573    0.00214     0.75788
      H   45    0.20934      0.00000     0.78938    0.00127     0.79066
      H   46    0.20688      0.00000     0.79194    0.00118     0.79312
      H   47    0.20788      0.00000     0.79084    0.00128     0.79212
      H   48    0.21148      0.00000     0.78674    0.00178     0.78852
      C   49   -0.15992      1.99897     4.13852    0.02242     6.15992
      C   50   -0.17298      1.99911     4.15446    0.01942     6.17298
      C   51   -0.14732      1.99913     4.12864    0.01956     6.14732
      C   52   -0.20836      1.99919     4.19020    0.01896     6.20836
      H   53    0.21393      0.00000     0.78396    0.00212     0.78607
      C   54   -0.20729      1.99919     4.18924    0.01887     6.20729
      H   55    0.23371      0.00000     0.76469    0.00159     0.76629
      C   56   -0.17821      1.99920     4.16026    0.01875     6.17821
      H   57    0.21271      0.00000     0.78607    0.00121     0.78729
      H   58    0.21203      0.00000     0.78680    0.00118     0.78797
      H   59    0.21028      0.00000     0.78858    0.00114     0.78972
      C   60    0.53707      1.99921     3.42986    0.03385     5.46293
      O   61   -0.55088      1.99977     6.52444    0.02667     8.55088
 =======================================================================
   * Total *   -0.00000     85.96797   169.19990    0.83213   256.00000

 Normal termination of Gaussian 16 at Fri Jan 24 17:25:14 2025.
