 Gaussian 16, Revision B.01,
 Gaussian 16:  ES64L-G16RevB.01 20-Dec-2017

 --------------------------------------------
 # nmr=giao b3lyp/def2TZVP pop=nbo scfcyc=200
 --------------------------------------------

 --------------
 MS-40 SPE NoRh
 --------------
 Symbolic Z-matrix:
 Charge =  0 Multiplicity = 1

                         Standard orientation:
 ---------------------------------------------------------------------
 Center     Atomic      Atomic             Coordinates (Angstroms)
 Number     Number       Type             X           Y           Z
 ---------------------------------------------------------------------
      1         15           0        0.332857   -1.318145   -1.210354
      2         15           0        1.938216    0.970884   -0.940609
      3          6           0        0.962552   -2.833851   -0.379204
      4          6           0        2.112595   -3.456754   -0.872634
      5          1           0        2.620718   -3.038160   -1.732123
      6          6           0        2.609116   -4.603997   -0.261194
      7          1           0        3.498748   -5.081689   -0.651989
      8          6           0        1.959801   -5.136950    0.847814
      9          1           0        2.342343   -6.031721    1.321267
     10          6           0        0.816039   -4.519345    1.347030
     11          1           0        0.310150   -4.933358    2.210881
     12          6           0        0.315338   -3.372977    0.741401
     13          1           0       -0.567226   -2.887641    1.137054
     14          6           0       -1.456821   -1.607696   -1.543922
     15          6           0       -1.962995   -2.903859   -1.675198
     16          1           0       -1.326885   -3.760512   -1.498918
     17          6           0       -3.295338   -3.104048   -2.023940
     18          1           0       -3.676756   -4.113372   -2.116630
     19          6           0       -4.134756   -2.017691   -2.242399
     20          1           0       -5.173240   -2.176092   -2.505623
     21          6           0       -3.634992   -0.723250   -2.128728
     22          1           0       -4.285337    0.126792   -2.290773
     23          6           0       -2.301685   -0.520029   -1.793983
     24          1           0       -1.928990    0.495972   -1.734100
     25          6           0        0.509673    0.137379   -0.015747
     26          1           0       -0.320443    0.796003   -0.285660
     27          6           0        0.523038   -0.024660    1.506700
     28          1           0        1.268673   -0.764249    1.797626
     29          1           0        0.844428    0.937407    1.937702
     30          6           0        3.524925    0.807849   -0.017427
     31          6           0        3.859820   -0.384522    0.633412
     32          1           0        3.160662   -1.208489    0.671830
     33          6           0        5.106921   -0.534812    1.229521
     34          1           0        5.346624   -1.459886    1.739876
     35          6           0        6.042543    0.492141    1.169052
     36          1           0        7.013355    0.372599    1.632978
     37          6           0        5.727512    1.671888    0.503413
     38          1           0        6.451711    2.474489    0.443655
     39          6           0        4.478372    1.829996   -0.088856
     40          1           0        4.251531    2.756777   -0.600028
     41          6           0        1.500710    2.761554   -0.906484
     42          6           0        1.690997    3.546735    0.236906
     43          1           0        2.181617    3.133824    1.109796
     44          6           0        1.261535    4.867392    0.257058
     45          1           0        1.415759    5.467442    1.145642
     46          6           0        0.633825    5.417900   -0.857254
     47          1           0        0.301911    6.448892   -0.837345
     48          6           0        0.433427    4.642222   -1.993065
     49          1           0       -0.055317    5.066097   -2.861235
     50          6           0        0.864614    3.319800   -2.019125
     51          1           0        0.699536    2.715979   -2.901629
     52          6           0       -1.804235    0.573277    2.079154
     53          1           0       -1.456505    1.488517    2.580920
     54          1           0       -2.076518    0.854073    1.059842
     55          6           0       -3.058909    0.064086    2.792378
     56          1           0       -2.839387   -0.051494    3.857789
     57          1           0       -3.305002   -0.936263    2.404281
     58          6           0       -4.962980    0.817834    1.440955
     59          1           0       -5.514400   -0.138130    1.455657
     60          1           0       -4.297335    0.774409    0.577445
     61          7           0       -0.768763   -0.462123    2.023987
     62          1           0       -0.632580   -0.853085    2.949468
     63          6           0       -5.940119    1.966635    1.225401
     64          1           0       -6.580833    2.072707    2.114205
     65          1           0       -5.370844    2.894032    1.134573
     66          7           0       -4.159390    1.010171    2.645876
     67          1           0       -4.750242    0.994694    3.466905
     68          7           0       -6.689427    1.758194   -0.017927
     69          1           0       -7.361182    1.006342    0.086161
     70          1           0       -7.214913    2.588832   -0.264823
 ---------------------------------------------------------------------

 SCF Done:  E(RB3LYP) =  -2011.71863176     A.U. after   15 cycles

      1  P    Isotropic =   219.8149   Anisotropy =    92.6807

      2  P    Isotropic =   219.1021   Anisotropy =   102.9395

      3  C    Isotropic =    39.8430   Anisotropy =   198.6947

      4  C    Isotropic =    37.6048   Anisotropy =   184.4280

      5  H    Isotropic =    23.5309   Anisotropy =     8.4814

      6  C    Isotropic =    49.8474   Anisotropy =   184.0308

      7  H    Isotropic =    24.0698   Anisotropy =     5.0577

      8  C    Isotropic =    47.8756   Anisotropy =   190.0672

      9  H    Isotropic =    24.0922   Anisotropy =     4.0627

     10  C    Isotropic =    50.1971   Anisotropy =   182.8527

     11  H    Isotropic =    24.1973   Anisotropy =     6.7847

     12  C    Isotropic =    35.2382   Anisotropy =   197.2182

     13  H    Isotropic =    22.8669   Anisotropy =     9.7058

     14  C    Isotropic =    28.8871   Anisotropy =   200.3908

     15  C    Isotropic =    51.7738   Anisotropy =   179.4798

     16  H    Isotropic =    24.9293   Anisotropy =    12.7963

     17  C    Isotropic =    50.0473   Anisotropy =   182.4405

     18  H    Isotropic =    24.5922   Anisotropy =     5.8977

     19  C    Isotropic =    54.1870   Anisotropy =   178.5520

     20  H    Isotropic =    24.6660   Anisotropy =     4.3893

     21  C    Isotropic =    48.6554   Anisotropy =   188.2434

     22  H    Isotropic =    24.1522   Anisotropy =     5.1485

     23  C    Isotropic =    51.1227   Anisotropy =   183.5674

     24  H    Isotropic =    24.2536   Anisotropy =     9.7532

     25  C    Isotropic =   131.0942   Anisotropy =    29.5075

     26  H    Isotropic =    29.1310   Anisotropy =     3.7937

     27  C    Isotropic =   132.8135   Anisotropy =    49.0083

     28  H    Isotropic =    28.7095   Anisotropy =     5.4850

     29  H    Isotropic =    28.8244   Anisotropy =     6.9371

     30  C    Isotropic =    35.0002   Anisotropy =   190.8423

     31  C    Isotropic =    48.5731   Anisotropy =   180.6806

     32  H    Isotropic =    25.0426   Anisotropy =     7.9752

     33  C    Isotropic =    50.9520   Anisotropy =   181.9543

     34  H    Isotropic =    24.7914   Anisotropy =     8.2126

     35  C    Isotropic =    53.7742   Anisotropy =   179.4453

     36  H    Isotropic =    24.7018   Anisotropy =     4.4520

     37  C    Isotropic =    49.7370   Anisotropy =   183.3021

     38  H    Isotropic =    24.5092   Anisotropy =     5.7627

     39  C    Isotropic =    49.0604   Anisotropy =   182.6277

     40  H    Isotropic =    24.5736   Anisotropy =    12.2248

     41  C    Isotropic =    32.2065   Anisotropy =   210.4188

     42  C    Isotropic =    42.7487   Anisotropy =   186.8421

     43  H    Isotropic =    23.8436   Anisotropy =    10.7654

     44  C    Isotropic =    49.2336   Anisotropy =   184.6103

     45  H    Isotropic =    24.2587   Anisotropy =     6.0518

     46  C    Isotropic =    48.7330   Anisotropy =   188.7738

     47  H    Isotropic =    24.1873   Anisotropy =     3.9924

     48  C    Isotropic =    49.2876   Anisotropy =   185.1127

     49  H    Isotropic =    24.0600   Anisotropy =     5.1585

     50  C    Isotropic =    41.5116   Anisotropy =   180.6480

     51  H    Isotropic =    23.5598   Anisotropy =     8.7542

     52  C    Isotropic =   130.8385   Anisotropy =    55.0708

     53  H    Isotropic =    29.8905   Anisotropy =     5.9556

     54  H    Isotropic =    29.4039   Anisotropy =     6.2875

     55  C    Isotropic =   129.8646   Anisotropy =    49.2432

     56  H    Isotropic =    29.3648   Anisotropy =     5.8162

     57  H    Isotropic =    29.7264   Anisotropy =     3.7584

     58  C    Isotropic =   126.0491   Anisotropy =    49.3575

     59  H    Isotropic =    29.6943   Anisotropy =     4.5296

     60  H    Isotropic =    29.4436   Anisotropy =     6.5432

     61  N    Isotropic =   201.0661   Anisotropy =    46.2640

     62  H    Isotropic =    31.8706   Anisotropy =    11.9030

     63  C    Isotropic =   133.6618   Anisotropy =    39.3263

     64  H    Isotropic =    29.1395   Anisotropy =     6.6517

     65  H    Isotropic =    29.3132   Anisotropy =     4.0466

     66  N    Isotropic =   211.1950   Anisotropy =    46.4261

     67  H    Isotropic =    31.9012   Anisotropy =    14.1596

     68  N    Isotropic =   229.4213   Anisotropy =    30.1946

     69  H    Isotropic =    31.8687   Anisotropy =    12.4465

     70  H    Isotropic =    31.3481   Anisotropy =    14.3290

 The electronic state is 1-A.
 Alpha  occ. eigenvalues --  -77.04651 -77.04181 -14.30447 -14.30068 -14.29739
 Alpha  occ. eigenvalues --  -10.20164 -10.19399 -10.19195 -10.19023 -10.18794
 Alpha  occ. eigenvalues --  -10.18695 -10.18406 -10.18249 -10.18196 -10.18115
 Alpha  occ. eigenvalues --  -10.18024 -10.17969 -10.17964 -10.17885 -10.17853
 Alpha  occ. eigenvalues --  -10.17823 -10.17803 -10.17776 -10.17752 -10.17544
 Alpha  occ. eigenvalues --  -10.17351 -10.17332 -10.17295 -10.17264 -10.17073
 Alpha  occ. eigenvalues --  -10.16935 -10.16796 -10.16732 -10.16638 -10.16497
 Alpha  occ. eigenvalues --   -6.53202  -6.52755  -4.69351  -4.69323  -4.68908
 Alpha  occ. eigenvalues --   -4.68872  -4.68838  -4.68390  -0.91709  -0.90215
 Alpha  occ. eigenvalues --   -0.87894  -0.86224  -0.86082  -0.85493  -0.84971
 Alpha  occ. eigenvalues --   -0.78268  -0.76198  -0.75385  -0.75223  -0.75104
 Alpha  occ. eigenvalues --   -0.74670  -0.74355  -0.74276  -0.73925  -0.72998
 Alpha  occ. eigenvalues --   -0.69408  -0.64475  -0.63736  -0.61592  -0.61108
 Alpha  occ. eigenvalues --   -0.60878  -0.60544  -0.60449  -0.59893  -0.59635
 Alpha  occ. eigenvalues --   -0.59528  -0.59118  -0.55936  -0.54570  -0.52126
 Alpha  occ. eigenvalues --   -0.51673  -0.51227  -0.50356  -0.49921  -0.48581
 Alpha  occ. eigenvalues --   -0.48149  -0.47428  -0.45885  -0.45818  -0.45770
 Alpha  occ. eigenvalues --   -0.45467  -0.45417  -0.45041  -0.44886  -0.44675
 Alpha  occ. eigenvalues --   -0.44571  -0.44010  -0.43863  -0.42751  -0.42597
 Alpha  occ. eigenvalues --   -0.42239  -0.42157  -0.41540  -0.40822  -0.40412
 Alpha  occ. eigenvalues --   -0.39900  -0.39797  -0.38249  -0.37687  -0.37590
 Alpha  occ. eigenvalues --   -0.37221  -0.36977  -0.36811  -0.36242  -0.35704
 Alpha  occ. eigenvalues --   -0.35146  -0.35054  -0.34883  -0.34765  -0.34410
 Alpha  occ. eigenvalues --   -0.33974  -0.33506  -0.32463  -0.31695  -0.30860
 Alpha  occ. eigenvalues --   -0.27554  -0.26598  -0.26441  -0.26316  -0.26117
 Alpha  occ. eigenvalues --   -0.25559  -0.25323  -0.25093  -0.24643  -0.23647
 Alpha  occ. eigenvalues --   -0.22805  -0.21156  -0.17981
 Alpha virt. eigenvalues --   -0.03429  -0.03053  -0.02147  -0.02078  -0.01661
 Alpha virt. eigenvalues --   -0.01162  -0.01012  -0.00478   0.02102   0.02346
 Alpha virt. eigenvalues --    0.03176   0.03742   0.04134   0.04778   0.05001

 Mulliken charges:
               1
     1  P    0.160254
     2  P    0.161297
     3  C   -0.027249
     4  C   -0.171862
     5  H    0.118008
     6  C   -0.090823
     7  H    0.111607
     8  C   -0.101840
     9  H    0.110763
    10  C   -0.090791
    11  H    0.106271
    12  C   -0.175456
    13  H    0.163192
    14  C    0.129010
    15  C   -0.185370
    16  H    0.136658
    17  C   -0.121306
    18  H    0.102462
    19  C   -0.116721
    20  H    0.103003
    21  C   -0.124145
    22  H    0.119497
    23  C   -0.246274
    24  H    0.127556
    25  C   -0.197453
    26  H    0.100579
    27  C   -0.123938
    28  H    0.120884
    29  H    0.102658
    30  C    0.051270
    31  C   -0.162671
    32  H    0.163505
    33  C   -0.162484
    34  H    0.105631
    35  C   -0.101649
    36  H    0.105136
    37  C   -0.120574
    38  H    0.107065
    39  C   -0.191759
    40  H    0.136492
    41  C    0.052224
    42  C   -0.202123
    43  H    0.138332
    44  C   -0.098047
    45  H    0.108190
    46  C   -0.104283
    47  H    0.110822
    48  C   -0.095817
    49  H    0.110942
    50  C   -0.197499
    51  H    0.121829
    52  C   -0.038081
    53  H    0.070682
    54  H    0.078231
    55  C   -0.128965
    56  H    0.086793
    57  H    0.096786
    58  C   -0.088953
    59  H    0.061395
    60  H    0.112991
    61  N   -0.345171
    62  H    0.173663
    63  C   -0.074351
    64  H    0.067445
    65  H    0.095055
    66  N   -0.322337
    67  H    0.170419
    68  N   -0.498749
    69  H    0.201928
    70  H    0.206216
 Sum of Mulliken charges =  -0.00000

 Dipole moment (field-independent basis, Debye):
    X=             -2.3096    Y=              0.4837    Z=              4.0161  Tot=              4.6580
 Quadrupole moment (field-independent basis, Debye-Ang):
   XX=           -200.0845   YY=           -207.4969   ZZ=           -223.4331
   XY=             -6.5102   XZ=             -0.9471   YZ=             -7.1980

 Summary of Natural Population Analysis:

                                       Natural Population
                Natural  -----------------------------------------------
    Atom  No    Charge         Core      Valence    Rydberg      Total
 -----------------------------------------------------------------------
      P    1    0.83259      9.99801     4.13733    0.03206    14.16741
      P    2    0.84573      9.99805     4.12447    0.03174    14.15427
      C    3   -0.34665      1.99900     4.31450    0.03315     6.34665
      C    4   -0.18951      1.99910     4.16985    0.02055     6.18951
      H    5    0.22209      0.00000     0.77634    0.00156     0.77791
      C    6   -0.21144      1.99918     4.19288    0.01938     6.21144
      H    7    0.21058      0.00000     0.78816    0.00126     0.78942
      C    8   -0.19542      1.99919     4.17721    0.01902     6.19542
      H    9    0.20800      0.00000     0.79081    0.00119     0.79200
      C   10   -0.21241      1.99918     4.19433    0.01890     6.21241
      H   11    0.20672      0.00000     0.79187    0.00141     0.79328
      C   12   -0.19735      1.99909     4.17764    0.02062     6.19735
      H   13    0.23298      0.00000     0.76411    0.00292     0.76702
      C   14   -0.31195      1.99899     4.28162    0.03134     6.31195
      C   15   -0.21443      1.99908     4.19582    0.01953     6.21443
      H   16    0.21273      0.00000     0.78549    0.00178     0.78727
      C   17   -0.19530      1.99919     4.17739    0.01872     6.19530
      H   18    0.20540      0.00000     0.79331    0.00129     0.79460
      C   19   -0.22073      1.99919     4.20187    0.01968     6.22073
      H   20    0.20591      0.00000     0.79289    0.00121     0.79409
      C   21   -0.19627      1.99918     4.17809    0.01900     6.19627
      H   22    0.21607      0.00000     0.78232    0.00160     0.78393
      C   23   -0.21846      1.99908     4.19993    0.01944     6.21846
      H   24    0.19882      0.00000     0.79911    0.00207     0.80118
      C   25   -0.76557      1.99938     4.72973    0.03645     6.76557
      H   26    0.25192      0.00000     0.74613    0.00195     0.74808
      C   27   -0.22645      1.99930     4.20868    0.01848     6.22645
      H   28    0.20171      0.00000     0.79567    0.00262     0.79829
      H   29    0.16834      0.00000     0.82756    0.00410     0.83166
      C   30   -0.32740      1.99899     4.29711    0.03131     6.32740
      C   31   -0.21743      1.99908     4.19855    0.01980     6.21743
      H   32    0.21061      0.00000     0.78738    0.00201     0.78939
      C   33   -0.19606      1.99918     4.17834    0.01854     6.19606
      H   34    0.20778      0.00000     0.79094    0.00128     0.79222
      C   35   -0.21778      1.99918     4.19902    0.01958     6.21778
      H   36    0.20691      0.00000     0.79190    0.00118     0.79309
      C   37   -0.19642      1.99919     4.17862    0.01861     6.19642
      H   38    0.20750      0.00000     0.79123    0.00127     0.79250
      C   39   -0.21177      1.99909     4.19311    0.01957     6.21177
      H   40    0.21403      0.00000     0.78419    0.00178     0.78597
      C   41   -0.33368      1.99900     4.30190    0.03278     6.33368
      C   42   -0.19958      1.99908     4.18017    0.02032     6.19958
      H   43    0.21213      0.00000     0.78547    0.00240     0.78787
      C   44   -0.20487      1.99918     4.18664    0.01904     6.20487
      H   45    0.20784      0.00000     0.79079    0.00137     0.79216
      C   46   -0.19885      1.99919     4.18058    0.01908     6.19885
      H   47    0.20859      0.00000     0.79024    0.00118     0.79141
      C   48   -0.20472      1.99918     4.18617    0.01937     6.20472
      H   49    0.20996      0.00000     0.78879    0.00126     0.79004
      C   50   -0.19594      1.99910     4.17652    0.02031     6.19594
      H   51    0.21840      0.00000     0.78006    0.00154     0.78160
      C   52   -0.21308      1.99938     4.19713    0.01657     6.21308
      H   53    0.16004      0.00000     0.83697    0.00299     0.83996
      H   54    0.18298      0.00000     0.81495    0.00207     0.81702
      C   55   -0.20821      1.99937     4.19306    0.01578     6.20821
      H   56    0.18122      0.00000     0.81718    0.00160     0.81878
      H   57    0.16740      0.00000     0.82914    0.00346     0.83260
      C   58   -0.21247      1.99937     4.19498    0.01812     6.21247
      H   59    0.14776      0.00000     0.84924    0.00300     0.85224
      H   60    0.19579      0.00000     0.80173    0.00247     0.80421
      N   61   -0.61268      1.99953     5.58662    0.02653     7.61268
      H   62    0.34962      0.00000     0.64716    0.00322     0.65038
      C   63   -0.20708      1.99939     4.19101    0.01669     6.20708
      H   64    0.14793      0.00000     0.84986    0.00221     0.85207
      H   65    0.18990      0.00000     0.80813    0.00197     0.81010
      N   66   -0.61173      1.99953     5.58521    0.02699     7.61173
      H   67    0.35052      0.00000     0.64724    0.00224     0.64948
      N   68   -0.82000      1.99961     5.79476    0.02563     7.82000
      H   69    0.34363      0.00000     0.65457    0.00180     0.65637
      H   70    0.35153      0.00000     0.64703    0.00144     0.64847
 =======================================================================
   * Total *    0.00000     85.96982   179.17882    0.85136   266.00000

 Normal termination of Gaussian 16 at Fri Jan 24 16:59:44 2025.
