 Gaussian 16, Revision B.01,
 Gaussian 16:  ES64L-G16RevB.01 20-Dec-2017

 --------------------------------------------
 # nmr=giao b3lyp/def2TZVP pop=nbo scfcyc=200
 --------------------------------------------

 --------------
 MS-45 SPE NoRh
 --------------
 Symbolic Z-matrix:
 Charge =  0 Multiplicity = 1

                         Standard orientation:
 ---------------------------------------------------------------------
 Center     Atomic      Atomic             Coordinates (Angstroms)
 Number     Number       Type             X           Y           Z
 ---------------------------------------------------------------------
      1         15           0        0.526023    1.473320    1.304167
      2         15           0        1.994984   -0.900461    0.985661
      3          6           0        1.119608    2.834094    0.218500
      4          6           0        2.371591    3.403860    0.476510
      5          1           0        2.968715    3.032558    1.299386
      6          6           0        2.852482    4.435599   -0.321832
      7          1           0        3.820389    4.872577   -0.112637
      8          6           0        2.088770    4.904976   -1.385911
      9          1           0        2.460941    5.710889   -2.005712
     10          6           0        0.843949    4.340089   -1.650392
     11          1           0        0.247877    4.702290   -2.478657
     12          6           0        0.354349    3.309742   -0.855543
     13          1           0       -0.613628    2.879102   -1.077498
     14          6           0       -1.172712    1.929749    1.851755
     15          6           0       -1.595608    3.261952    1.861820
     16          1           0       -0.958126    4.042371    1.469520
     17          6           0       -2.848740    3.594859    2.365603
     18          1           0       -3.168093    4.629499    2.360522
     19          6           0       -3.689440    2.607827    2.866254
     20          1           0       -4.667006    2.869081    3.251280
     21          6           0       -3.268577    1.280426    2.873474
     22          1           0       -3.916306    0.507731    3.265200
     23          6           0       -2.014365    0.944371    2.379485
     24          1           0       -1.700275   -0.091675    2.414304
     25          6           0        0.415452   -0.117146    0.278135
     26          1           0       -0.336950   -0.709444    0.806044
     27          6           0        0.096047   -0.151243   -1.223489
     28          1           0        0.622358    0.634512   -1.759867
     29          1           0        0.410750   -1.114745   -1.627636
     30          6           0       -1.390070    0.021106   -1.488388
     31          6           0        3.372870   -0.855465   -0.234291
     32          6           0        3.518371    0.194988   -1.145645
     33          1           0        2.778908    0.981358   -1.206947
     34          6           0        4.628921    0.254071   -1.980264
     35          1           0        4.721995    1.067337   -2.687914
     36          6           0        5.615343   -0.722688   -1.905478
     37          1           0        6.478822   -0.675417   -2.556452
     38          6           0        5.489975   -1.760128   -0.986752
     39          1           0        6.255752   -2.522961   -0.918134
     40          6           0        4.378712   -1.827452   -0.154498
     41          1           0        4.295439   -2.646493    0.549603
     42          6           0        1.547074   -2.676977    1.176644
     43          6           0        1.592079   -3.571928    0.101600
     44          1           0        1.977580   -3.256507   -0.859331
     45          6           0        1.154211   -4.881351    0.263814
     46          1           0        1.193484   -5.566636   -0.573430
     47          6           0        0.665959   -5.309801    1.494315
     48          1           0        0.328751   -6.331014    1.616543
     49          6           0        0.612077   -4.425332    2.565846
     50          1           0        0.234267   -4.755346    3.525834
     51          6           0        1.050113   -3.113983    2.409133
     52          1           0        1.002714   -2.426221    3.243577
     53          8           0       -2.016887   -1.179877   -1.427625
     54          8           0       -1.932691    1.072441   -1.697906
     55          6           0       -3.409277   -1.278469   -1.627073
     56          6           0       -4.012454   -0.802866   -2.781489
     57          6           0       -4.127243   -1.956362   -0.654883
     58          6           0       -5.377485   -1.003633   -2.950728
     59          1           0       -3.433696   -0.280873   -3.530519
     60          6           0       -5.492353   -2.153736   -0.838032
     61          1           0       -3.617655   -2.331914    0.223961
     62          6           0       -6.119857   -1.675867   -1.984137
     63          1           0       -5.861844   -0.635483   -3.846474
     64          1           0       -6.061479   -2.686312   -0.086318
     65          1           0       -7.180784   -1.831350   -2.125801
 ---------------------------------------------------------------------

 SCF Done:  E(RB3LYP) =  -2108.08659172     A.U. after   15 cycles

      1  P    Isotropic =   222.5073   Anisotropy =    89.4640

      2  P    Isotropic =   208.5160   Anisotropy =   106.3418

      3  C    Isotropic =    41.0631   Anisotropy =   195.5360

      4  C    Isotropic =    37.6458   Anisotropy =   185.0898

      5  H    Isotropic =    23.6169   Anisotropy =     8.3031

      6  C    Isotropic =    49.4203   Anisotropy =   184.4055

      7  H    Isotropic =    24.0972   Anisotropy =     5.1392

      8  C    Isotropic =    47.2120   Anisotropy =   191.2808

      9  H    Isotropic =    24.0127   Anisotropy =     4.0589

     10  C    Isotropic =    49.2561   Anisotropy =   185.1528

     11  H    Isotropic =    23.9886   Anisotropy =     6.5049

     12  C    Isotropic =    34.2747   Anisotropy =   203.0573

     13  H    Isotropic =    22.4686   Anisotropy =     9.0132

     14  C    Isotropic =    31.2755   Anisotropy =   196.9210

     15  C    Isotropic =    50.9329   Anisotropy =   181.8763

     16  H    Isotropic =    24.9482   Anisotropy =    12.8207

     17  C    Isotropic =    49.6685   Anisotropy =   183.6108

     18  H    Isotropic =    24.6881   Anisotropy =     5.9820

     19  C    Isotropic =    53.5529   Anisotropy =   180.2619

     20  H    Isotropic =    24.8159   Anisotropy =     4.1747

     21  C    Isotropic =    50.4089   Anisotropy =   183.4891

     22  H    Isotropic =    24.5643   Anisotropy =     6.2237

     23  C    Isotropic =    51.2729   Anisotropy =   183.7168

     24  H    Isotropic =    24.3278   Anisotropy =     9.8911

     25  C    Isotropic =   129.6761   Anisotropy =    18.2906

     26  H    Isotropic =    29.0813   Anisotropy =     3.8406

     27  C    Isotropic =   148.0304   Anisotropy =    33.0898

     28  H    Isotropic =    28.9734   Anisotropy =     3.8808

     29  H    Isotropic =    29.0766   Anisotropy =     3.9581

     30  C    Isotropic =     5.3834   Anisotropy =    91.3250

     31  C    Isotropic =    36.0905   Anisotropy =   188.0375

     32  C    Isotropic =    48.3382   Anisotropy =   181.2300

     33  H    Isotropic =    25.3326   Anisotropy =     7.2854

     34  C    Isotropic =    50.7319   Anisotropy =   183.2972

     35  H    Isotropic =    24.8231   Anisotropy =     8.2451

     36  C    Isotropic =    53.0203   Anisotropy =   181.1728

     37  H    Isotropic =    24.6508   Anisotropy =     4.5028

     38  C    Isotropic =    49.7372   Anisotropy =   184.0394

     39  H    Isotropic =    24.4752   Anisotropy =     5.5883

     40  C    Isotropic =    48.3335   Anisotropy =   183.7029

     41  H    Isotropic =    24.5421   Anisotropy =    11.8771

     42  C    Isotropic =    31.7451   Anisotropy =   209.6628

     43  C    Isotropic =    43.8363   Anisotropy =   188.0582

     44  H    Isotropic =    23.9468   Anisotropy =    10.8197

     45  C    Isotropic =    48.8958   Anisotropy =   185.5147

     46  H    Isotropic =    24.2641   Anisotropy =     6.2082

     47  C    Isotropic =    48.6039   Anisotropy =   189.2330

     48  H    Isotropic =    24.1572   Anisotropy =     4.0380

     49  C    Isotropic =    49.0200   Anisotropy =   184.9961

     50  H    Isotropic =    23.9788   Anisotropy =     5.1459

     51  C    Isotropic =    41.8079   Anisotropy =   180.7914

     52  H    Isotropic =    23.4933   Anisotropy =     8.9301

     53  O    Isotropic =    73.7193   Anisotropy =   148.1030

     54  O    Isotropic =   -96.0941   Anisotropy =   589.1286

     55  C    Isotropic =    23.5996   Anisotropy =   119.8601

     56  C    Isotropic =    55.6951   Anisotropy =   167.6285

     57  C    Isotropic =    58.7758   Anisotropy =   158.3820

     58  C    Isotropic =    49.7639   Anisotropy =   183.5940

     59  H    Isotropic =    24.6417   Anisotropy =     9.9355

     60  C    Isotropic =    48.9978   Anisotropy =   184.6454

     61  H    Isotropic =    25.0390   Anisotropy =     7.7110

     62  C    Isotropic =    53.0651   Anisotropy =   182.8547

     63  H    Isotropic =    24.4666   Anisotropy =     5.2133

     64  H    Isotropic =    24.4522   Anisotropy =     6.4179

     65  H    Isotropic =    24.6225   Anisotropy =     4.2415

 The electronic state is 1-A.
 Alpha  occ. eigenvalues --  -77.05439 -77.04934 -19.18898 -19.12355 -10.31290
 Alpha  occ. eigenvalues --  -10.24559 -10.20683 -10.19732 -10.18941 -10.18788
 Alpha  occ. eigenvalues --  -10.18628 -10.18569 -10.18568 -10.18549 -10.18504
 Alpha  occ. eigenvalues --  -10.18490 -10.18451 -10.18359 -10.18344 -10.18293
 Alpha  occ. eigenvalues --  -10.18239 -10.18225 -10.18208 -10.18173 -10.17995
 Alpha  occ. eigenvalues --  -10.17867 -10.17847 -10.17842 -10.17783 -10.17745
 Alpha  occ. eigenvalues --  -10.17673 -10.17561 -10.17449 -10.17285 -10.17120
 Alpha  occ. eigenvalues --  -10.17021 -10.16935  -6.53981  -6.53496  -4.70136
 Alpha  occ. eigenvalues --   -4.70097  -4.69654  -4.69618  -4.69608  -4.69133
 Alpha  occ. eigenvalues --   -1.12066  -1.03758  -0.86980  -0.86713  -0.86327
 Alpha  occ. eigenvalues --   -0.85996  -0.85401  -0.81128  -0.77290  -0.76604
 Alpha  occ. eigenvalues --   -0.76205  -0.75690  -0.75504  -0.75306  -0.75118
 Alpha  occ. eigenvalues --   -0.74857  -0.74637  -0.74308  -0.69933  -0.65016
 Alpha  occ. eigenvalues --   -0.64256  -0.62491  -0.61851  -0.61464  -0.61065
 Alpha  occ. eigenvalues --   -0.60962  -0.60395  -0.60274  -0.59872  -0.57830
 Alpha  occ. eigenvalues --   -0.56434  -0.55414  -0.52654  -0.52120  -0.51731
 Alpha  occ. eigenvalues --   -0.50800  -0.50666  -0.50407  -0.49300  -0.48415
 Alpha  occ. eigenvalues --   -0.46520  -0.46295  -0.46069  -0.46012  -0.45774
 Alpha  occ. eigenvalues --   -0.45613  -0.45447  -0.45213  -0.45033  -0.44709
 Alpha  occ. eigenvalues --   -0.43790  -0.43550  -0.43211  -0.42765  -0.42608
 Alpha  occ. eigenvalues --   -0.42352  -0.41640  -0.40996  -0.40639  -0.40471
 Alpha  occ. eigenvalues --   -0.38770  -0.38447  -0.38023  -0.37768  -0.37721
 Alpha  occ. eigenvalues --   -0.37325  -0.37128  -0.37056  -0.36222  -0.35608
 Alpha  occ. eigenvalues --   -0.35537  -0.35061  -0.34907  -0.34508  -0.33339
 Alpha  occ. eigenvalues --   -0.32991  -0.32263  -0.31646  -0.29206  -0.27961
 Alpha  occ. eigenvalues --   -0.27096  -0.26778  -0.26738  -0.26677  -0.26396
 Alpha  occ. eigenvalues --   -0.25980  -0.25743  -0.25662  -0.25393  -0.22104
 Alpha  occ. eigenvalues --   -0.18679
 Alpha virt. eigenvalues --   -0.03928  -0.03575  -0.02936  -0.02561  -0.02391
 Alpha virt. eigenvalues --   -0.02267  -0.01982  -0.01558  -0.01377  -0.00831
 Alpha virt. eigenvalues --    0.00069   0.02009   0.02848   0.03917   0.04616

 Mulliken charges:
               1
     1  P    0.161176
     2  P    0.162848
     3  C   -0.031710
     4  C   -0.151989
     5  H    0.118335
     6  C   -0.099682
     7  H    0.111896
     8  C   -0.097783
     9  H    0.112158
    10  C   -0.110051
    11  H    0.113493
    12  C   -0.205661
    13  H    0.205343
    14  C    0.107109
    15  C   -0.173440
    16  H    0.139911
    17  C   -0.120091
    18  H    0.105010
    19  C   -0.108148
    20  H    0.104527
    21  C   -0.111697
    22  H    0.101365
    23  C   -0.217395
    24  H    0.111237
    25  C   -0.250300
    26  H    0.117021
    27  C   -0.178919
    28  H    0.130260
    29  H    0.115227
    30  C    0.329302
    31  C    0.050924
    32  C   -0.147317
    33  H    0.159339
    34  C   -0.162357
    35  H    0.108390
    36  C   -0.102404
    37  H    0.107586
    38  C   -0.114464
    39  H    0.109225
    40  C   -0.195421
    41  H    0.131683
    42  C    0.051196
    43  C   -0.193777
    44  H    0.140147
    45  C   -0.105943
    46  H    0.110549
    47  C   -0.102933
    48  H    0.112596
    49  C   -0.099478
    50  H    0.112231
    51  C   -0.199011
    52  H    0.122068
    53  O   -0.272759
    54  O   -0.319980
    55  C    0.296657
    56  C   -0.166468
    57  C   -0.197191
    58  C   -0.098750
    59  H    0.121087
    60  C   -0.083885
    61  H    0.122457
    62  C   -0.121549
    63  H    0.114131
    64  H    0.112366
    65  H    0.111700
 Sum of Mulliken charges =  -0.00000

 Dipole moment (field-independent basis, Debye):
    X=             -0.7033    Y=             -1.7984    Z=             -1.7719  Tot=              2.6208
 Quadrupole moment (field-independent basis, Debye-Ang):
   XX=           -215.1802   YY=           -214.5202   ZZ=           -227.1951
   XY=              7.2355   XZ=             -8.4621   YZ=             -8.8982

 Summary of Natural Population Analysis:

                                       Natural Population
                Natural  -----------------------------------------------
    Atom  No    Charge         Core      Valence    Rydberg      Total
 -----------------------------------------------------------------------
      P    1    0.83561      9.99802     4.13400    0.03237    14.16439
      P    2    0.85483      9.99806     4.11530    0.03181    14.14517
      C    3   -0.35409      1.99900     4.32223    0.03287     6.35409
      C    4   -0.18648      1.99911     4.16691    0.02046     6.18648
      H    5    0.22188      0.00000     0.77660    0.00152     0.77812
      C    6   -0.21120      1.99918     4.19265    0.01937     6.21120
      H    7    0.21107      0.00000     0.78767    0.00126     0.78893
      C    8   -0.19303      1.99919     4.17491    0.01893     6.19303
      H    9    0.20872      0.00000     0.79010    0.00118     0.79128
      C   10   -0.20859      1.99919     4.19059    0.01882     6.20859
      H   11    0.21033      0.00000     0.78829    0.00138     0.78967
      C   12   -0.20258      1.99909     4.18332    0.02017     6.20258
      H   13    0.24313      0.00000     0.75485    0.00202     0.75687
      C   14   -0.31771      1.99899     4.28746    0.03127     6.31771
      C   15   -0.20806      1.99908     4.18954    0.01944     6.20806
      H   16    0.21400      0.00000     0.78422    0.00177     0.78600
      C   17   -0.19170      1.99918     4.17391    0.01860     6.19170
      H   18    0.20709      0.00000     0.79163    0.00128     0.79291
      C   19   -0.21496      1.99919     4.19628    0.01949     6.21496
      H   20    0.20692      0.00000     0.79190    0.00118     0.79308
      C   21   -0.19334      1.99919     4.17555    0.01860     6.19334
      H   22    0.20601      0.00000     0.79271    0.00128     0.79399
      C   23   -0.21356      1.99908     4.19521    0.01927     6.21356
      H   24    0.19688      0.00000     0.80111    0.00201     0.80312
      C   25   -0.74928      1.99937     4.71692    0.03299     6.74928
      H   26    0.25517      0.00000     0.74293    0.00190     0.74483
      C   27   -0.50833      1.99922     4.48938    0.01973     6.50833
      H   28    0.23213      0.00000     0.76555    0.00233     0.76787
      H   29    0.23073      0.00000     0.76667    0.00259     0.76927
      C   30    0.78507      1.99939     3.17877    0.03677     5.21493
      C   31   -0.33345      1.99899     4.30346    0.03100     6.33345
      C   32   -0.21570      1.99908     4.19683    0.01979     6.21570
      H   33    0.21122      0.00000     0.78676    0.00202     0.78878
      C   34   -0.19518      1.99918     4.17746    0.01853     6.19518
      H   35    0.20930      0.00000     0.78942    0.00127     0.79070
      C   36   -0.21399      1.99919     4.19532    0.01949     6.21399
      H   37    0.20801      0.00000     0.79082    0.00118     0.79199
      C   38   -0.19681      1.99918     4.17904    0.01859     6.19681
      H   39    0.20873      0.00000     0.79001    0.00126     0.79127
      C   40   -0.20820      1.99909     4.18949    0.01962     6.20820
      H   41    0.21404      0.00000     0.78418    0.00178     0.78596
      C   42   -0.33627      1.99901     4.30470    0.03256     6.33627
      C   43   -0.19769      1.99908     4.17872    0.01989     6.19769
      H   44    0.21247      0.00000     0.78520    0.00233     0.78753
      C   45   -0.20236      1.99919     4.18419    0.01899     6.20236
      H   46    0.20907      0.00000     0.78957    0.00136     0.79093
      C   47   -0.19838      1.99919     4.18011    0.01909     6.19838
      H   48    0.20931      0.00000     0.78952    0.00117     0.79069
      C   49   -0.20452      1.99918     4.18596    0.01938     6.20452
      H   50    0.21035      0.00000     0.78839    0.00126     0.78965
      C   51   -0.19738      1.99910     4.17789    0.02039     6.19738
      H   52    0.21760      0.00000     0.78086    0.00155     0.78240
      O   53   -0.48485      1.99971     6.46214    0.02300     8.48485
      O   54   -0.57249      1.99973     6.54575    0.02702     8.57249
      C   55    0.26277      1.99861     3.71696    0.02166     5.73723
      C   56   -0.23053      1.99900     4.21171    0.01982     6.23053
      C   57   -0.23256      1.99903     4.21419    0.01933     6.23256
      C   58   -0.19042      1.99921     4.17223    0.01898     6.19042
      H   59    0.22411      0.00000     0.77424    0.00165     0.77589
      C   60   -0.19303      1.99920     4.17464    0.01919     6.19303
      H   61    0.22133      0.00000     0.77730    0.00138     0.77867
      C   62   -0.21381      1.99919     4.19530    0.01933     6.21381
      H   63    0.21130      0.00000     0.78744    0.00126     0.78870
      H   64    0.21085      0.00000     0.78795    0.00120     0.78915
      H   65    0.21051      0.00000     0.78830    0.00119     0.78949
 =======================================================================
   * Total *    0.00000     89.96669   181.15319    0.88012   272.00000

 Normal termination of Gaussian 16 at Fri Jan 24 17:15:32 2025.
