 Gaussian 16, Revision B.01,
 Gaussian 16:  ES64L-G16RevB.01 20-Dec-2017

 --------------------------------------------
 # nmr=giao b3lyp/def2TZVP pop=nbo scfcyc=200
 --------------------------------------------

 --------------
 MS-57 SPE NoRh
 --------------
 Symbolic Z-matrix:
 Charge =  0 Multiplicity = 1

                         Standard orientation:
 ---------------------------------------------------------------------
 Center     Atomic      Atomic             Coordinates (Angstroms)
 Number     Number       Type             X           Y           Z
 ---------------------------------------------------------------------
      1         15           0        0.543960    1.292102   -1.489709
      2         15           0       -2.092780    0.465705   -1.063372
      3          6           0       -0.374815    0.087723   -0.347221
      4          6           0        2.136384    0.525786   -2.016603
      5          6           0        3.336638    1.239497   -2.002190
      6          6           0        4.500398    0.664111   -2.505918
      7          6           0        4.478825   -0.622248   -3.029619
      8          6           0        3.282355   -1.335148   -3.058662
      9          6           0        2.117422   -0.762751   -2.564767
     10          6           0        0.971208    2.808538   -0.540311
     11          6           0        0.450450    4.035293   -0.965344
     12          6           0        0.756587    5.205752   -0.279456
     13          6           0        1.581940    5.159780    0.838883
     14          6           0        2.096621    3.939571    1.272413
     15          6           0        1.797760    2.766138    0.590020
     16          6           0       -2.950576   -1.164618   -1.089814
     17          6           0       -2.836088   -1.961879   -2.232622
     18          6           0       -3.403026   -3.231698   -2.265685
     19          6           0       -4.089893   -3.715621   -1.157431
     20          6           0       -4.203562   -2.930457   -0.014604
     21          6           0       -3.635272   -1.662274    0.023981
     22          6           0       -3.081873    1.534768    0.062628
     23          6           0       -2.485970    2.451413    0.933586
     24          6           0       -3.271635    3.318961    1.686248
     25          6           0       -4.656800    3.292192    1.569832
     26          6           0       -5.257162    2.394909    0.692301
     27          6           0       -4.477660    1.524054   -0.058926
     28          1           0       -0.188251   -0.887599   -0.808925
     29          1           0        3.373051    2.240810   -1.596617
     30          1           0        5.425926    1.226731   -2.484749
     31          1           0        5.385546   -1.066124   -3.419325
     32          1           0        3.255730   -2.335236   -3.474417
     33          1           0        1.192564   -1.325374   -2.616523
     34          1           0       -0.202515    4.069608   -1.827841
     35          1           0        0.350500    6.151067   -0.618189
     36          1           0        1.822479    6.070368    1.373494
     37          1           0        2.733186    3.900117    2.148088
     38          1           0        2.194720    1.824876    0.954642
     39          1           0       -2.302441   -1.586889   -3.098228
     40          1           0       -3.311915   -3.838601   -3.157151
     41          1           0       -4.536236   -4.701246   -1.184551
     42          1           0       -4.736454   -3.304818    0.850822
     43          1           0       -3.739893   -1.060912    0.917114
     44          1           0       -1.411603    2.506888    1.028487
     45          1           0       -2.795298    4.017152    2.362961
     46          1           0       -5.264907    3.967798    2.157698
     47          1           0       -6.335033    2.369281    0.592612
     48          1           0       -4.962871    0.828162   -0.731518
     49          6           0        1.059394   -0.923909    1.524270
     50          7           0        2.111165   -0.359615    1.959948
     51          6           0        3.273535   -1.105966    2.448596
     52          1           0        3.116725   -2.187805    2.378583
     53          6           0        3.476959   -0.742087    3.922465
     54          1           0        4.348367   -1.264643    4.321747
     55          1           0        3.634244    0.332330    4.035253
     56          1           0        2.609072   -1.024381    4.519264
     57          6           0        4.496501   -0.731752    1.608466
     58          1           0        4.356250   -0.993470    0.557915
     59          1           0        4.690628    0.340443    1.668115
     60          1           0        5.379340   -1.259953    1.974848
     61          6           0       -0.119784   -0.025725    1.162941
     62          1           0       -1.021615   -0.443048    1.622482
     63          1           0        0.048116    0.949254    1.611998
     64          6           0        0.841258   -2.400659    1.354287
     65          6           0       -0.143400   -3.055755    2.101577
     66          6           0        1.607379   -3.145929    0.452494
     67          6           0       -0.340944   -4.425160    1.965774
     68          1           0       -0.741486   -2.499637    2.813846
     69          6           0        1.397565   -4.513289    0.305632
     70          1           0        2.372360   -2.653001   -0.134220
     71          6           0        0.425588   -5.156515    1.064380
     72          1           0       -1.092921   -4.921816    2.566307
     73          1           0        2.000808   -5.077142   -0.395342
     74          1           0        0.270136   -6.223274    0.958301
 ---------------------------------------------------------------------

 SCF Done:  E(RB3LYP) =  -2130.90688973     A.U. after   15 cycles

      1  P    Isotropic =   221.8510   Anisotropy =    98.0191

      2  P    Isotropic =   206.5286   Anisotropy =   108.6430

      3  C    Isotropic =   129.8749   Anisotropy =    23.2835

      4  C    Isotropic =    29.3013   Anisotropy =   200.5369

      5  C    Isotropic =    50.5906   Anisotropy =   182.7850

      6  C    Isotropic =    49.5056   Anisotropy =   184.2392

      7  C    Isotropic =    53.8539   Anisotropy =   179.4882

      8  C    Isotropic =    50.8018   Anisotropy =   182.2682

      9  C    Isotropic =    49.0239   Anisotropy =   185.3709

     10  C    Isotropic =    41.6119   Anisotropy =   196.2627

     11  C    Isotropic =    38.0329   Anisotropy =   184.1999

     12  C    Isotropic =    49.5768   Anisotropy =   184.8131

     13  C    Isotropic =    47.3768   Anisotropy =   190.7640

     14  C    Isotropic =    49.6507   Anisotropy =   184.7180

     15  C    Isotropic =    32.4895   Anisotropy =   202.9195

     16  C    Isotropic =    32.1837   Anisotropy =   210.4315

     17  C    Isotropic =    42.2975   Anisotropy =   181.8202

     18  C    Isotropic =    49.4836   Anisotropy =   186.0037

     19  C    Isotropic =    49.5269   Anisotropy =   189.0912

     20  C    Isotropic =    49.6548   Anisotropy =   185.6033

     21  C    Isotropic =    44.5719   Anisotropy =   189.2343

     22  C    Isotropic =    35.9223   Anisotropy =   188.1039

     23  C    Isotropic =    48.0148   Anisotropy =   182.4689

     24  C    Isotropic =    50.5210   Anisotropy =   182.8828

     25  C    Isotropic =    53.3795   Anisotropy =   180.1210

     26  C    Isotropic =    50.2170   Anisotropy =   182.9383

     27  C    Isotropic =    48.4873   Anisotropy =   183.8375

     28  H    Isotropic =    29.4513   Anisotropy =     2.8613

     29  H    Isotropic =    24.8924   Anisotropy =    12.8238

     30  H    Isotropic =    24.5809   Anisotropy =     6.0927

     31  H    Isotropic =    24.6153   Anisotropy =     3.7989

     32  H    Isotropic =    24.3129   Anisotropy =     5.7535

     33  H    Isotropic =    24.2298   Anisotropy =     9.4316

     34  H    Isotropic =    23.7038   Anisotropy =     8.3143

     35  H    Isotropic =    24.1306   Anisotropy =     4.8768

     36  H    Isotropic =    24.0058   Anisotropy =     4.1163

     37  H    Isotropic =    23.9141   Anisotropy =     7.0490

     38  H    Isotropic =    22.0954   Anisotropy =     7.2914

     39  H    Isotropic =    23.8549   Anisotropy =     8.7467

     40  H    Isotropic =    24.3725   Anisotropy =     4.7675

     41  H    Isotropic =    24.4864   Anisotropy =     3.6306

     42  H    Isotropic =    24.5192   Anisotropy =     5.9151

     43  H    Isotropic =    24.2089   Anisotropy =    10.8069

     44  H    Isotropic =    25.3131   Anisotropy =     7.4532

     45  H    Isotropic =    24.8639   Anisotropy =     8.4888

     46  H    Isotropic =    24.6999   Anisotropy =     4.5028

     47  H    Isotropic =    24.5362   Anisotropy =     5.3925

     48  H    Isotropic =    24.6463   Anisotropy =    11.9654

     49  C    Isotropic =     5.8807   Anisotropy =   147.4208

     50  N    Isotropic =  -125.7645   Anisotropy =   472.5974

     51  C    Isotropic =   124.1233   Anisotropy =    38.5051

     52  H    Isotropic =    28.7805   Anisotropy =     8.4717

     53  C    Isotropic =   157.7312   Anisotropy =    39.9818

     54  H    Isotropic =    31.2234   Anisotropy =    10.4924

     55  H    Isotropic =    30.7400   Anisotropy =     6.4319

     56  H    Isotropic =    31.3876   Anisotropy =     8.0499

     57  C    Isotropic =   158.6700   Anisotropy =    34.6042

     58  H    Isotropic =    31.9332   Anisotropy =    10.1637

     59  H    Isotropic =    30.8988   Anisotropy =     3.8686

     60  H    Isotropic =    31.2432   Anisotropy =     9.3270

     61  C    Isotropic =   139.1993   Anisotropy =    35.0667

     62  H    Isotropic =    28.8243   Anisotropy =     4.8524

     63  H    Isotropic =    28.3903   Anisotropy =     3.3522

     64  C    Isotropic =    38.6492   Anisotropy =   180.9857

     65  C    Isotropic =    50.7239   Anisotropy =   184.1788

     66  C    Isotropic =    47.9679   Anisotropy =   182.2113

     67  C    Isotropic =    49.7363   Anisotropy =   189.4484

     68  H    Isotropic =    24.8096   Anisotropy =     8.0946

     69  C    Isotropic =    51.2854   Anisotropy =   185.6823

     70  H    Isotropic =    25.0266   Anisotropy =     5.3008

     71  C    Isotropic =    50.4424   Anisotropy =   189.0386

     72  H    Isotropic =    24.5842   Anisotropy =     5.0482

     73  H    Isotropic =    24.5443   Anisotropy =     6.0441

     74  H    Isotropic =    24.5939   Anisotropy =     3.7408

 The electronic state is 1-A.
 Alpha  occ. eigenvalues --  -77.04844 -77.04571 -14.30539 -10.22394 -10.19870
 Alpha  occ. eigenvalues --  -10.19804 -10.19420 -10.18681 -10.18517 -10.18494
 Alpha  occ. eigenvalues --  -10.18492 -10.18454 -10.18406 -10.18364 -10.18259
 Alpha  occ. eigenvalues --  -10.18207 -10.18153 -10.18080 -10.18061 -10.18012
 Alpha  occ. eigenvalues --  -10.17954 -10.17933 -10.17892 -10.17871 -10.17692
 Alpha  occ. eigenvalues --  -10.17597 -10.17557 -10.17536 -10.17465 -10.17397
 Alpha  occ. eigenvalues --  -10.17390 -10.17339 -10.17333 -10.17283 -10.17194
 Alpha  occ. eigenvalues --  -10.17178 -10.17135 -10.15737 -10.15620  -6.53396
 Alpha  occ. eigenvalues --   -6.53133  -4.69546  -4.69516  -4.69281  -4.69252
 Alpha  occ. eigenvalues --   -4.69033  -4.68773  -0.92886  -0.86682  -0.86311
 Alpha  occ. eigenvalues --   -0.86062  -0.85590  -0.85528  -0.80697  -0.77891
 Alpha  occ. eigenvalues --   -0.76334  -0.75875  -0.75806  -0.75313  -0.75138
 Alpha  occ. eigenvalues --   -0.74969  -0.74811  -0.74610  -0.74452  -0.74328
 Alpha  occ. eigenvalues --   -0.68533  -0.68465  -0.63916  -0.63195  -0.61929
 Alpha  occ. eigenvalues --   -0.61410  -0.61109  -0.60735  -0.60642  -0.60398
 Alpha  occ. eigenvalues --   -0.59989  -0.59820  -0.59251  -0.56080  -0.55405
 Alpha  occ. eigenvalues --   -0.54861  -0.52265  -0.51916  -0.51377  -0.50079
 Alpha  occ. eigenvalues --   -0.49964  -0.49162  -0.46985  -0.46605  -0.45996
 Alpha  occ. eigenvalues --   -0.45792  -0.45768  -0.45630  -0.45375  -0.45214
 Alpha  occ. eigenvalues --   -0.45072  -0.44864  -0.44564  -0.43620  -0.43186
 Alpha  occ. eigenvalues --   -0.42877  -0.42719  -0.42489  -0.42301  -0.42099
 Alpha  occ. eigenvalues --   -0.42053  -0.41159  -0.40650  -0.40405  -0.38660
 Alpha  occ. eigenvalues --   -0.38526  -0.38268  -0.38113  -0.37603  -0.37391
 Alpha  occ. eigenvalues --   -0.37345  -0.37002  -0.36759  -0.36467  -0.35929
 Alpha  occ. eigenvalues --   -0.35377  -0.35159  -0.35027  -0.34765  -0.34730
 Alpha  occ. eigenvalues --   -0.34474  -0.33708  -0.32529  -0.31806  -0.30924
 Alpha  occ. eigenvalues --   -0.29752  -0.27909  -0.26862  -0.26809  -0.26511
 Alpha  occ. eigenvalues --   -0.26334  -0.26060  -0.26013  -0.25764  -0.25635
 Alpha  occ. eigenvalues --   -0.25432  -0.24690  -0.21656  -0.18186
 Alpha virt. eigenvalues --   -0.03943  -0.03396  -0.03016  -0.02700  -0.02309
 Alpha virt. eigenvalues --   -0.02167  -0.01687  -0.01473  -0.01237  -0.00614
 Alpha virt. eigenvalues --    0.00427   0.02275   0.02820   0.04012   0.04342

 Mulliken charges:
               1
     1  P    0.151583
     2  P    0.155062
     3  C   -0.232250
     4  C    0.118092
     5  C   -0.174103
     6  C   -0.121619
     7  C   -0.115985
     8  C   -0.119853
     9  C   -0.246015
    10  C   -0.084205
    11  C   -0.103837
    12  C   -0.120237
    13  C   -0.083481
    14  C   -0.152079
    15  C   -0.153662
    16  C    0.058688
    17  C   -0.195737
    18  C   -0.099622
    19  C   -0.097531
    20  C   -0.107417
    21  C   -0.195388
    22  C    0.051112
    23  C   -0.137058
    24  C   -0.159829
    25  C   -0.104384
    26  C   -0.112326
    27  C   -0.200468
    28  H    0.124953
    29  H    0.142413
    30  H    0.105089
    31  H    0.105110
    32  H    0.105594
    33  H    0.115445
    34  H    0.117048
    35  H    0.110287
    36  H    0.110386
    37  H    0.108371
    38  H    0.218232
    39  H    0.118504
    40  H    0.109259
    41  H    0.109286
    42  H    0.105927
    43  H    0.138174
    44  H    0.156262
    45  H    0.106701
    46  H    0.105831
    47  H    0.107604
    48  H    0.127969
    49  C    0.095220
    50  N   -0.235842
    51  C    0.090863
    52  H    0.067150
    53  C   -0.330856
    54  H    0.101434
    55  H    0.102480
    56  H    0.106441
    57  C   -0.338850
    58  H    0.133187
    59  H    0.100760
    60  H    0.103808
    61  C   -0.180446
    62  H    0.105505
    63  H    0.116697
    64  C    0.083732
    65  C   -0.185547
    66  C   -0.196435
    67  C   -0.110620
    68  H    0.116224
    69  C   -0.114097
    70  H    0.174572
    71  C   -0.099305
    72  H    0.108372
    73  H    0.109091
    74  H    0.110564
 Sum of Mulliken charges =  -0.00000

 Dipole moment (field-independent basis, Debye):
    X=              0.1515    Y=             -2.4742    Z=              1.9892  Tot=              3.1783
 Quadrupole moment (field-independent basis, Debye-Ang):
   XX=           -236.6202   YY=           -223.1296   ZZ=           -248.6494
   XY=              3.6448   XZ=             -5.0282   YZ=              8.6193

 Summary of Natural Population Analysis:

                                       Natural Population
                Natural  -----------------------------------------------
    Atom  No    Charge         Core      Valence    Rydberg      Total
 -----------------------------------------------------------------------
      P    1    0.83335      9.99801     4.13639    0.03224    14.16665
      P    2    0.84968      9.99805     4.12042    0.03186    14.15032
      C    3   -0.74900      1.99937     4.71701    0.03262     6.74900
      C    4   -0.31699      1.99899     4.28689    0.03112     6.31699
      C    5   -0.20945      1.99908     4.19103    0.01934     6.20945
      C    6   -0.19448      1.99918     4.17671    0.01859     6.19448
      C    7   -0.22051      1.99918     4.20172    0.01961     6.22051
      C    8   -0.20195      1.99918     4.18418    0.01858     6.20195
      C    9   -0.21606      1.99908     4.19771    0.01927     6.21606
      C   10   -0.35276      1.99899     4.32155    0.03221     6.35276
      C   11   -0.18379      1.99910     4.16438    0.02030     6.18379
      C   12   -0.21112      1.99918     4.19260    0.01934     6.21112
      C   13   -0.19362      1.99919     4.17553    0.01890     6.19362
      C   14   -0.20981      1.99918     4.19146    0.01917     6.20981
      C   15   -0.20692      1.99907     4.18664    0.02120     6.20692
      C   16   -0.33276      1.99900     4.30117    0.03259     6.33276
      C   17   -0.19681      1.99910     4.17741    0.02030     6.19681
      C   18   -0.20299      1.99918     4.18447    0.01934     6.20299
      C   19   -0.19977      1.99919     4.18144    0.01914     6.19977
      C   20   -0.20316      1.99918     4.18496    0.01901     6.20316
      C   21   -0.19859      1.99908     4.17968    0.01983     6.19859
      C   22   -0.33173      1.99899     4.30180    0.03094     6.33173
      C   23   -0.21447      1.99908     4.19566    0.01973     6.21447
      C   24   -0.19532      1.99919     4.17761    0.01853     6.19532
      C   25   -0.21578      1.99919     4.19705    0.01954     6.21578
      C   26   -0.19840      1.99918     4.18060    0.01862     6.19840
      C   27   -0.20803      1.99909     4.18931    0.01962     6.20803
      H   28    0.25582      0.00000     0.74234    0.00184     0.74418
      H   29    0.21607      0.00000     0.78219    0.00174     0.78393
      H   30    0.20739      0.00000     0.79132    0.00129     0.79261
      H   31    0.20729      0.00000     0.79153    0.00118     0.79271
      H   32    0.20674      0.00000     0.79197    0.00129     0.79326
      H   33    0.20302      0.00000     0.79490    0.00208     0.79698
      H   34    0.22126      0.00000     0.77720    0.00153     0.77874
      H   35    0.21052      0.00000     0.78822    0.00126     0.78948
      H   36    0.20794      0.00000     0.79086    0.00119     0.79206
      H   37    0.20864      0.00000     0.78993    0.00144     0.79136
      H   38    0.24413      0.00000     0.75297    0.00290     0.75587
      H   39    0.21578      0.00000     0.78266    0.00156     0.78422
      H   40    0.20919      0.00000     0.78954    0.00126     0.79081
      H   41    0.20779      0.00000     0.79103    0.00118     0.79221
      H   42    0.20663      0.00000     0.79199    0.00138     0.79337
      H   43    0.21228      0.00000     0.78540    0.00232     0.78772
      H   44    0.21239      0.00000     0.78564    0.00197     0.78761
      H   45    0.20867      0.00000     0.79005    0.00128     0.79133
      H   46    0.20714      0.00000     0.79168    0.00118     0.79286
      H   47    0.20790      0.00000     0.79083    0.00127     0.79210
      H   48    0.21313      0.00000     0.78508    0.00178     0.78687
      C   49    0.29925      1.99917     3.67450    0.02709     5.70075
      N   50   -0.41251      1.99926     5.38042    0.03282     7.41251
      C   51   -0.07307      1.99939     4.05754    0.01614     6.07307
      H   52    0.17446      0.00000     0.82206    0.00347     0.82554
      C   53   -0.58290      1.99942     4.57162    0.01185     6.58290
      H   54    0.20133      0.00000     0.79770    0.00096     0.79867
      H   55    0.20314      0.00000     0.79531    0.00155     0.79686
      H   56    0.20424      0.00000     0.79472    0.00104     0.79576
      C   57   -0.58699      1.99942     4.57550    0.01207     6.58699
      H   58    0.20923      0.00000     0.78930    0.00147     0.79077
      H   59    0.20365      0.00000     0.79491    0.00144     0.79635
      H   60    0.20143      0.00000     0.79756    0.00101     0.79857
      C   61   -0.45553      1.99927     4.43695    0.01930     6.45553
      H   62    0.21651      0.00000     0.78085    0.00265     0.78349
      H   63    0.22924      0.00000     0.76835    0.00242     0.77076
      C   64   -0.10997      1.99897     4.08837    0.02264     6.10997
      C   65   -0.19093      1.99909     4.17339    0.01846     6.19093
      C   66   -0.19866      1.99908     4.18060    0.01898     6.19866
      C   67   -0.19636      1.99919     4.17851    0.01866     6.19636
      H   68    0.20804      0.00000     0.79047    0.00149     0.79196
      C   69   -0.20040      1.99919     4.18255    0.01866     6.20040
      H   70    0.21951      0.00000     0.77845    0.00203     0.78049
      C   71   -0.20111      1.99919     4.18292    0.01900     6.20111
      H   72    0.21001      0.00000     0.78878    0.00121     0.78999
      H   73    0.21025      0.00000     0.78853    0.00122     0.78975
      H   74    0.20964      0.00000     0.78921    0.00115     0.79036
 =======================================================================
   * Total *    0.00000     93.96495   193.13182    0.90324   288.00000

 Normal termination of Gaussian 16 at Fri Jan 24 19:32:20 2025.
