 Gaussian 16, Revision B.01,
 Gaussian 16:  ES64L-G16RevB.01 20-Dec-2017

 --------------------------------------------
 # nmr=giao b3lyp/def2TZVP pop=nbo scfcyc=200
 --------------------------------------------

 --------------
 MS-55 SPE NoRh
 --------------
 Symbolic Z-matrix:
 Charge =  0 Multiplicity = 1

                         Standard orientation:
 ---------------------------------------------------------------------
 Center     Atomic      Atomic             Coordinates (Angstroms)
 Number     Number       Type             X           Y           Z
 ---------------------------------------------------------------------
      1          6           0       -0.105268   -0.171084   -0.256819
      2          1           0        0.212900   -1.206546   -0.393508
      3          6           0       -2.555685   -1.684785   -1.241877
      4          6           0       -3.806210   -1.783353   -1.866997
      5          1           0       -4.274464   -0.906497   -2.296800
      6          6           0       -4.472369   -3.000670   -1.921371
      7          1           0       -5.440732   -3.062061   -2.401865
      8          6           0       -3.896946   -4.137244   -1.358456
      9          1           0       -4.416619   -5.086143   -1.400106
     10          6           0       -2.658702   -4.045909   -0.735031
     11          1           0       -2.212183   -4.923904   -0.286247
     12          6           0       -1.985612   -2.827579   -0.676190
     13          1           0       -1.031643   -2.777215   -0.167056
     14          6           0       -2.898292    1.106490   -0.510761
     15          6           0       -3.694029    0.709579    0.568338
     16          1           0       -3.627300   -0.298326    0.956130
     17          6           0       -4.583297    1.607875    1.145140
     18          1           0       -5.198050    1.292523    1.979553
     19          6           0       -4.683048    2.908238    0.656472
     20          1           0       -5.378781    3.604093    1.107888
     21          6           0       -3.893892    3.309303   -0.416269
     22          1           0       -3.974032    4.317473   -0.803016
     23          6           0       -3.007757    2.411077   -1.000763
     24          1           0       -2.398363    2.719608   -1.840985
     25          6           0        2.515366   -0.170574   -1.794843
     26          6           0        2.413247   -1.517315   -2.167734
     27          1           0        1.442831   -1.993384   -2.242869
     28          6           0        3.552132   -2.256674   -2.454123
     29          1           0        3.460357   -3.299610   -2.731091
     30          6           0        4.808784   -1.658983   -2.393061
     31          1           0        5.696153   -2.235950   -2.616220
     32          6           0        4.915314   -0.317026   -2.049439
     33          1           0        5.888044    0.157087   -2.006332
     34          6           0        3.776658    0.427169   -1.754649
     35          1           0        3.881878    1.470888   -1.492899
     36          6           0        1.440738    2.408953   -0.839277
     37          6           0        0.984192    3.574628   -1.462042
     38          1           0        0.354089    3.500106   -2.339236
     39          6           0        1.331554    4.824732   -0.958529
     40          1           0        0.974932    5.721545   -1.449864
     41          6           0        2.138569    4.919433    0.168657
     42          1           0        2.412291    5.891435    0.559364
     43          6           0        2.594546    3.763279    0.797980
     44          1           0        3.219198    3.834458    1.678794
     45          6           0        2.247039    2.514402    0.300907
     46          1           0        2.604803    1.624847    0.803152
     47          6           0       -0.121062    0.117197    1.216475
     48          6           0        0.202783   -0.892785    2.155341
     49          6           0        0.045799   -0.623882    3.518271
     50          1           0        0.271441   -1.397087    4.240089
     51          6           0       -0.379996    0.618602    3.969767
     52          1           0       -0.486649    0.797432    5.031895
     53          6           0       -0.652179    1.626671    3.054171
     54          1           0       -0.974330    2.603274    3.390184
     55          6           0       -0.526845    1.368612    1.696690
     56          1           0       -0.768092    2.153156    0.994720
     57         15           0       -1.702570   -0.049975   -1.297145
     58         15           0        0.954227    0.782607   -1.537446
     59          7           0        0.662634   -2.171120    1.702127
     60          6           0        0.144218   -3.332902    2.425756
     61          1           0        0.412360   -4.234528    1.871288
     62          1           0        0.530023   -3.449151    3.446983
     63          1           0       -0.942501   -3.273669    2.481256
     64          6           0        2.102781   -2.249071    1.408787
     65          1           0        2.284025   -3.156320    0.827654
     66          1           0        2.379157   -1.407845    0.774312
     67          6           0        3.044280   -2.247965    2.614759
     68          1           0        2.891429   -3.143801    3.226246
     69          1           0        2.854001   -1.367858    3.240922
     70          8           0        4.364968   -2.217886    2.078576
     71          1           0        4.999926   -2.307226    2.797347
 ---------------------------------------------------------------------

 SCF Done:  E(RB3LYP) =  -2128.69616687     A.U. after   15 cycles

      1  C    Isotropic =   134.5009   Anisotropy =    22.2209

      2  H    Isotropic =    26.3220   Anisotropy =     7.5395

      3  C    Isotropic =    31.7388   Anisotropy =   192.9708

      4  C    Isotropic =    48.2161   Anisotropy =   183.3507

      5  H    Isotropic =    24.7174   Anisotropy =    12.2164

      6  C    Isotropic =    49.5946   Anisotropy =   183.0948

      7  H    Isotropic =    24.4894   Anisotropy =     5.5445

      8  C    Isotropic =    53.5272   Anisotropy =   179.3623

      9  H    Isotropic =    24.5824   Anisotropy =     4.3381

     10  C    Isotropic =    50.3539   Anisotropy =   180.5644

     11  H    Isotropic =    24.2889   Anisotropy =     7.9009

     12  C    Isotropic =    48.5550   Anisotropy =   184.0164

     13  H    Isotropic =    23.2190   Anisotropy =     9.1412

     14  C    Isotropic =    36.0026   Anisotropy =   202.8069

     15  C    Isotropic =    38.5697   Anisotropy =   193.8332

     16  H    Isotropic =    25.2787   Anisotropy =     9.8881

     17  C    Isotropic =    49.1704   Anisotropy =   185.8590

     18  H    Isotropic =    24.8327   Anisotropy =     6.4190

     19  C    Isotropic =    49.1133   Anisotropy =   188.7474

     20  H    Isotropic =    24.4938   Anisotropy =     3.6698

     21  C    Isotropic =    51.0442   Anisotropy =   182.3048

     22  H    Isotropic =    24.3336   Anisotropy =     5.7262

     23  C    Isotropic =    40.3172   Anisotropy =   182.9414

     24  H    Isotropic =    23.5000   Anisotropy =     8.7709

     25  C    Isotropic =    31.2840   Anisotropy =   197.2039

     26  C    Isotropic =    47.1804   Anisotropy =   187.0418

     27  H    Isotropic =    23.8068   Anisotropy =     9.6438

     28  C    Isotropic =    49.6739   Anisotropy =   184.6028

     29  H    Isotropic =    24.2280   Anisotropy =     6.1755

     30  C    Isotropic =    52.5424   Anisotropy =   182.3722

     31  H    Isotropic =    24.5801   Anisotropy =     3.6653

     32  C    Isotropic =    49.8004   Anisotropy =   183.0099

     33  H    Isotropic =    24.6076   Anisotropy =     6.0568

     34  C    Isotropic =    50.8718   Anisotropy =   181.3249

     35  H    Isotropic =    24.8538   Anisotropy =    13.2112

     36  C    Isotropic =    40.9378   Anisotropy =   198.9585

     37  C    Isotropic =    39.1899   Anisotropy =   180.9174

     38  H    Isotropic =    23.4005   Anisotropy =     8.7977

     39  C    Isotropic =    49.8195   Anisotropy =   183.8949

     40  H    Isotropic =    24.0811   Anisotropy =     5.3888

     41  C    Isotropic =    48.2039   Anisotropy =   190.3813

     42  H    Isotropic =    24.2762   Anisotropy =     3.9174

     43  C    Isotropic =    49.8602   Anisotropy =   185.1855

     44  H    Isotropic =    24.5646   Anisotropy =     6.7941

     45  C    Isotropic =    35.2128   Anisotropy =   196.3232

     46  H    Isotropic =    24.6177   Anisotropy =     8.9034

     47  C    Isotropic =    40.2616   Anisotropy =   171.9671

     48  C    Isotropic =    25.9081   Anisotropy =   157.5155

     49  C    Isotropic =    55.2354   Anisotropy =   179.4980

     50  H    Isotropic =    24.7259   Anisotropy =     9.5439

     51  C    Isotropic =    54.4304   Anisotropy =   175.2103

     52  H    Isotropic =    24.9570   Anisotropy =     3.8595

     53  C    Isotropic =    55.9904   Anisotropy =   177.8477

     54  H    Isotropic =    25.7045   Anisotropy =     6.2754

     55  C    Isotropic =    43.2496   Anisotropy =   191.2254

     56  H    Isotropic =    26.8848   Anisotropy =     5.2243

     57  P    Isotropic =   190.9120   Anisotropy =   153.7832

     58  P    Isotropic =   213.4002   Anisotropy =   122.3970

     59  N    Isotropic =   200.8687   Anisotropy =    47.6989

     60  C    Isotropic =   141.1527   Anisotropy =    57.5134

     61  H    Isotropic =    28.9733   Anisotropy =     9.0651

     62  H    Isotropic =    28.5023   Anisotropy =     9.9518

     63  H    Isotropic =    29.1789   Anisotropy =     8.1923

     64  C    Isotropic =   119.7759   Anisotropy =    56.1643

     65  H    Isotropic =    28.9571   Anisotropy =     4.3081

     66  H    Isotropic =    29.5166   Anisotropy =     9.1714

     67  C    Isotropic =   123.3367   Anisotropy =    67.0645

     68  H    Isotropic =    27.8858   Anisotropy =     5.1260

     69  H    Isotropic =    28.3368   Anisotropy =     7.0572

     70  O    Isotropic =   309.1795   Anisotropy =   103.8576

     71  H    Isotropic =    32.2952   Anisotropy =    21.1715

 The electronic state is 1-A.
 Alpha  occ. eigenvalues --  -77.04682 -77.04537 -19.12885 -14.32241 -10.21716
 Alpha  occ. eigenvalues --  -10.20794 -10.19686 -10.19561 -10.19345 -10.18713
 Alpha  occ. eigenvalues --  -10.18379 -10.18243 -10.18208 -10.18202 -10.18041
 Alpha  occ. eigenvalues --  -10.18018 -10.17988 -10.17943 -10.17937 -10.17911
 Alpha  occ. eigenvalues --  -10.17865 -10.17760 -10.17657 -10.17591 -10.17258
 Alpha  occ. eigenvalues --  -10.17218 -10.17191 -10.17185 -10.17172 -10.17130
 Alpha  occ. eigenvalues --  -10.17092 -10.16998 -10.16972 -10.16964 -10.16939
 Alpha  occ. eigenvalues --  -10.16915 -10.16872 -10.16836  -6.53221  -6.53085
 Alpha  occ. eigenvalues --   -4.69374  -4.69330  -4.69236  -4.69195  -4.68862
 Alpha  occ. eigenvalues --   -4.68728  -1.02469  -0.93759  -0.86360  -0.86087
 Alpha  occ. eigenvalues --   -0.85307  -0.85266  -0.85071  -0.78767  -0.76261
 Alpha  occ. eigenvalues --   -0.75834  -0.75380  -0.75289  -0.75056  -0.74549
 Alpha  occ. eigenvalues --   -0.74463  -0.74224  -0.74185  -0.73568  -0.70434
 Alpha  occ. eigenvalues --   -0.67719  -0.63751  -0.63144  -0.62038  -0.61169
 Alpha  occ. eigenvalues --   -0.60862  -0.60444  -0.60294  -0.59760  -0.59724
 Alpha  occ. eigenvalues --   -0.59384  -0.57375  -0.55893  -0.54864  -0.53008
 Alpha  occ. eigenvalues --   -0.52074  -0.51892  -0.51307  -0.50071  -0.49757
 Alpha  occ. eigenvalues --   -0.48651  -0.47365  -0.46360  -0.45906  -0.45769
 Alpha  occ. eigenvalues --   -0.45729  -0.45484  -0.45052  -0.45011  -0.44858
 Alpha  occ. eigenvalues --   -0.44734  -0.44392  -0.43827  -0.42895  -0.42880
 Alpha  occ. eigenvalues --   -0.42579  -0.42374  -0.42033  -0.41765  -0.41030
 Alpha  occ. eigenvalues --   -0.40575  -0.40062  -0.39640  -0.39214  -0.38456
 Alpha  occ. eigenvalues --   -0.37631  -0.37495  -0.37140  -0.36940  -0.36525
 Alpha  occ. eigenvalues --   -0.36373  -0.35814  -0.35406  -0.35204  -0.34893
 Alpha  occ. eigenvalues --   -0.34515  -0.34464  -0.34413  -0.33953  -0.32691
 Alpha  occ. eigenvalues --   -0.32184  -0.31933  -0.28335  -0.27399  -0.27035
 Alpha  occ. eigenvalues --   -0.26452  -0.26427  -0.26227  -0.26097  -0.25581
 Alpha  occ. eigenvalues --   -0.25311  -0.25143  -0.24339  -0.21750  -0.21672
 Alpha  occ. eigenvalues --   -0.17835
 Alpha virt. eigenvalues --   -0.03653  -0.03386  -0.02336  -0.02192  -0.01949
 Alpha virt. eigenvalues --   -0.01807  -0.01208  -0.01045  -0.00335  -0.00171
 Alpha virt. eigenvalues --    0.01824   0.02103   0.02801   0.04131   0.05074

 Mulliken charges:
               1
     1  C   -0.219833
     2  H    0.107775
     3  C    0.031770
     4  C   -0.156030
     5  H    0.114917
     6  C   -0.119510
     7  H    0.106265
     8  C   -0.094933
     9  H    0.104326
    10  C   -0.172646
    11  H    0.099583
    12  C   -0.148538
    13  H    0.162425
    14  C   -0.023480
    15  C   -0.079021
    16  H    0.130930
    17  C   -0.141552
    18  H    0.106096
    19  C   -0.079294
    20  H    0.109622
    21  C   -0.125926
    22  H    0.107262
    23  C   -0.150328
    24  H    0.115630
    25  C    0.026053
    26  C   -0.205312
    27  H    0.124199
    28  C   -0.107093
    29  H    0.104761
    30  C   -0.102812
    31  H    0.103815
    32  C   -0.116525
    33  H    0.102685
    34  C   -0.157510
    35  H    0.145720
    36  C    0.039187
    37  C   -0.163106
    38  H    0.124192
    39  C   -0.114247
    40  H    0.109188
    41  C   -0.093579
    42  H    0.110773
    43  C   -0.102659
    44  H    0.107321
    45  C   -0.170278
    46  H    0.142144
    47  C   -0.061281
    48  C    0.251581
    49  C   -0.227353
    50  H    0.090987
    51  C   -0.096480
    52  H    0.100905
    53  C   -0.131389
    54  H    0.102334
    55  C   -0.173686
    56  H    0.167288
    57  P    0.129625
    58  P    0.154690
    59  N   -0.184575
    60  C   -0.310612
    61  H    0.124139
    62  H    0.107667
    63  H    0.143714
    64  C   -0.072798
    65  H    0.091995
    66  H    0.139812
    67  C   -0.071430
    68  H    0.087853
    69  H    0.099983
    70  O   -0.450989
    71  H    0.295593
 Sum of Mulliken charges =  -0.00000

 Dipole moment (field-independent basis, Debye):
    X=              0.6103    Y=              0.1475    Z=              4.2569  Tot=              4.3029
 Quadrupole moment (field-independent basis, Debye-Ang):
   XX=           -227.9246   YY=           -215.0746   ZZ=           -236.0569
   XY=             -4.5064   XZ=              7.4195   YZ=             -5.0211

 Summary of Natural Population Analysis:

                                       Natural Population
                Natural  -----------------------------------------------
    Atom  No    Charge         Core      Valence    Rydberg      Total
 -----------------------------------------------------------------------
      C    1   -0.77548      1.99925     4.74070    0.03552     6.77548
      H    2    0.27716      0.00000     0.72014    0.00271     0.72284
      C    3   -0.32252      1.99900     4.29215    0.03138     6.32252
      C    4   -0.20301      1.99909     4.18431    0.01961     6.20301
      H    5    0.21105      0.00000     0.78721    0.00174     0.78895
      C    6   -0.19725      1.99918     4.17948    0.01858     6.19725
      H    7    0.20755      0.00000     0.79118    0.00127     0.79245
      C    8   -0.21718      1.99919     4.19835    0.01965     6.21718
      H    9    0.20637      0.00000     0.79244    0.00119     0.79363
      C   10   -0.19868      1.99918     4.18078    0.01871     6.19868
      H   11    0.20406      0.00000     0.79461    0.00133     0.79594
      C   12   -0.22670      1.99907     4.20751    0.02012     6.22670
      H   13    0.21745      0.00000     0.78061    0.00193     0.78255
      C   14   -0.33532      1.99899     4.30469    0.03164     6.33532
      C   15   -0.18258      1.99907     4.16323    0.02028     6.18258
      H   16    0.21571      0.00000     0.78180    0.00249     0.78429
      C   17   -0.20315      1.99919     4.18505    0.01892     6.20315
      H   18    0.20839      0.00000     0.79029    0.00132     0.79161
      C   19   -0.19736      1.99919     4.17921    0.01896     6.19736
      H   20    0.20789      0.00000     0.79094    0.00117     0.79211
      C   21   -0.20817      1.99918     4.19030    0.01870     6.20817
      H   22    0.20913      0.00000     0.78959    0.00128     0.79087
      C   23   -0.19457      1.99909     4.17570    0.01978     6.19457
      H   24    0.21407      0.00000     0.78374    0.00219     0.78593
      C   25   -0.32605      1.99898     4.29617    0.03090     6.32605
      C   26   -0.21155      1.99908     4.19343    0.01904     6.21155
      H   27    0.20565      0.00000     0.79250    0.00185     0.79435
      C   28   -0.19541      1.99918     4.17764    0.01859     6.19541
      H   29    0.20722      0.00000     0.79149    0.00129     0.79278
      C   30   -0.20951      1.99919     4.19087    0.01945     6.20951
      H   31    0.20684      0.00000     0.79198    0.00118     0.79316
      C   32   -0.19222      1.99918     4.17436    0.01868     6.19222
      H   33    0.20629      0.00000     0.79241    0.00130     0.79371
      C   34   -0.21234      1.99908     4.19381    0.01944     6.21234
      H   35    0.21433      0.00000     0.78392    0.00175     0.78567
      C   36   -0.34826      1.99900     4.31755    0.03171     6.34826
      C   37   -0.18615      1.99910     4.16705    0.02000     6.18615
      H   38    0.21776      0.00000     0.78072    0.00153     0.78224
      C   39   -0.21006      1.99918     4.19167    0.01921     6.21006
      H   40    0.20989      0.00000     0.78885    0.00126     0.79011
      C   41   -0.19333      1.99919     4.17529    0.01884     6.19333
      H   42    0.20859      0.00000     0.79023    0.00118     0.79141
      C   43   -0.20738      1.99918     4.18918    0.01901     6.20738
      H   44    0.20910      0.00000     0.78952    0.00138     0.79090
      C   45   -0.18422      1.99907     4.16460    0.02054     6.18422
      H   46    0.21557      0.00000     0.78209    0.00233     0.78443
      C   47   -0.06483      1.99893     4.03926    0.02665     6.06483
      C   48    0.14689      1.99884     3.83282    0.02145     5.85311
      C   49   -0.23886      1.99906     4.22147    0.01834     6.23886
      H   50    0.20284      0.00000     0.79463    0.00253     0.79716
      C   51   -0.20312      1.99919     4.18490    0.01903     6.20312
      H   52    0.20601      0.00000     0.79277    0.00122     0.79399
      C   53   -0.20854      1.99917     4.19033    0.01904     6.20854
      H   54    0.20953      0.00000     0.78927    0.00120     0.79047
      C   55   -0.18391      1.99908     4.16546    0.01936     6.18391
      H   56    0.21727      0.00000     0.78024    0.00250     0.78273
      P   57    0.84486      9.99802     4.12530    0.03181    14.15514
      P   58    0.84073      9.99802     4.12909    0.03215    14.15927
      N   59   -0.45030      1.99950     5.42203    0.02877     7.45030
      C   60   -0.39759      1.99935     4.38742    0.01082     6.39759
      H   61    0.19640      0.00000     0.80198    0.00163     0.80360
      H   62    0.16293      0.00000     0.83405    0.00303     0.83707
      H   63    0.20655      0.00000     0.79188    0.00157     0.79345
      C   64   -0.22031      1.99930     4.20128    0.01973     6.22031
      H   65    0.19361      0.00000     0.80405    0.00234     0.80639
      H   66    0.21248      0.00000     0.78489    0.00264     0.78752
      C   67   -0.07765      1.99925     4.06246    0.01594     6.07765
      H   68    0.14850      0.00000     0.84943    0.00207     0.85150
      H   69    0.15632      0.00000     0.84139    0.00229     0.84368
      O   70   -0.69928      1.99982     6.68687    0.01259     8.69928
      H   71    0.45789      0.00000     0.53820    0.00392     0.54211
 =======================================================================
   * Total *   -0.00000     91.96565   189.15081    0.88354   282.00000

 1\1\GINC-G1NODEC4\SP\RB3LYP\def2TZVP\C34H33N1O1P2\ROOT\24-Jan-2025\0\\
 # nmr=giao b3lyp/def2TZVP pop=nbo scfcyc=200\\MS-55 SPE NoRh\\0,1\C,0,
 0.93,-0.432,-0.085\H,0,1.213,-0.27,-1.127\C,0,-0.789,-2.329,-1.732\C,0
 ,-1.921,-3.123,-1.961\H,0,-2.715,-3.17,-1.226\C,0,-2.028,-3.879,-3.121
 \H,0,-2.905,-4.493,-3.283\C,0,-1.01,-3.848,-4.071\H,0,-1.093,-4.438,-4
 .975\C,0,0.116,-3.065,-3.849\H,0,0.915,-3.046,-4.579\C,0,0.23,-2.305,-
 2.687\H,0,1.126,-1.719,-2.527\C,0,-0.989,-2.496,1.162\C,0,-0.406,-3.76
 6,1.113\H,0,0.179,-4.067,0.254\C,0,-0.582,-4.654,2.167\H,0,-0.129,-5.6

 Normal termination of Gaussian 16 at Fri Jan 24 19:02:23 2025.
