 Gaussian 16, Revision B.01,
 Gaussian 16:  ES64L-G16RevB.01 20-Dec-2017

 --------------------------------------------
 # nmr=giao b3lyp/def2TZVP pop=nbo scfcyc=200
 --------------------------------------------

 --------------
 MS-56 SPE NoRh
 --------------
 Symbolic Z-matrix:
 Charge =  0 Multiplicity = 1

                         Standard orientation:
 ---------------------------------------------------------------------
 Center     Atomic      Atomic             Coordinates (Angstroms)
 Number     Number       Type             X           Y           Z
 ---------------------------------------------------------------------
      1         15           0        0.848041    1.778797    1.166409
      2         15           0        2.277379   -0.613597    0.920621
      3          6           0        0.995906    2.926036   -0.268477
      4          6           0        2.259632    3.345211   -0.695021
      5          1           0        3.141617    3.002795   -0.167026
      6          6           0        2.386845    4.200830   -1.784615
      7          1           0        3.370318    4.524800   -2.102495
      8          6           0        1.253727    4.647879   -2.455083
      9          1           0        1.352191    5.320296   -3.298843
     10          6           0       -0.008879    4.240212   -2.034224
     11          1           0       -0.894173    4.596073   -2.547615
     12          6           0       -0.140328    3.385240   -0.945913
     13          1           0       -1.128689    3.095501   -0.610189
     14          6           0       -0.640395    2.375909    2.073450
     15          6           0       -0.640457    3.714091    2.492332
     16          1           0        0.169784    4.376383    2.212523
     17          6           0       -1.691537    4.211758    3.250577
     18          1           0       -1.684274    5.249141    3.561927
     19          6           0       -2.750694    3.380188    3.605744
     20          1           0       -3.571400    3.768996    4.195322
     21          6           0       -2.754880    2.053437    3.192631
     22          1           0       -3.580469    1.403503    3.454504
     23          6           0       -1.704034    1.544933    2.432807
     24          1           0       -1.747437    0.514015    2.105264
     25          6           0        0.551968    0.034939    0.500594
     26          1           0       -0.046369   -0.445876    1.282870
     27          6           0       -0.139508   -0.258189   -0.829758
     28          1           0       -0.160569    0.626216   -1.467937
     29          1           0        0.425041   -1.009345   -1.389516
     30          6           0        3.294381   -0.846086   -0.597432
     31          6           0        3.113900   -0.059704   -1.739820
     32          1           0        2.311475    0.663240   -1.790764
     33          6           0        3.971526   -0.188035   -2.826874
     34          1           0        3.814563    0.422125   -3.706923
     35          6           0        5.027573   -1.092491   -2.785067
     36          1           0        5.693365   -1.191973   -3.632495
     37          6           0        5.224566   -1.867801   -1.646393
     38          1           0        6.045531   -2.572405   -1.603752
     39          6           0        4.367369   -1.744907   -0.558825
     40          1           0        4.532226   -2.362598    0.314744
     41          6           0        1.987178   -2.305032    1.591266
     42          6           0        1.835547   -3.418354    0.757414
     43          1           0        1.968181   -3.324955   -0.312367
     44          6           0        1.523678   -4.659338    1.299724
     45          1           0        1.411300   -5.516087    0.648365
     46          6           0        1.356738   -4.800817    2.675447
     47          1           0        1.115358   -5.769391    3.094401
     48          6           0        1.499187   -3.696766    3.508428
     49          1           0        1.367638   -3.802831    4.577585
     50          6           0        1.813495   -2.454329    2.969715
     51          1           0        1.916859   -1.594798    3.621058
     52          7           0       -2.320760   -0.964738   -1.748302
     53          6           0       -1.839105   -0.607662   -3.087572
     54          1           0       -1.840189    0.472362   -3.257596
     55          1           0       -0.831984   -0.989749   -3.258335
     56          1           0       -2.496786   -1.069949   -3.819303
     57          6           0       -1.565402   -0.801475   -0.622866
     58          8           0       -1.971358   -1.077592    0.497826
     59          6           0       -3.680359   -1.430986   -1.634158
     60          6           0       -3.953507   -2.684904   -1.093696
     61          6           0       -4.719330   -0.630585   -2.101702
     62          6           0       -5.266990   -3.132064   -1.022423
     63          1           0       -3.143306   -3.298964   -0.724775
     64          6           0       -6.031069   -1.087947   -2.036664
     65          1           0       -4.506878    0.349267   -2.511435
     66          6           0       -6.307813   -2.339133   -1.495424
     67          1           0       -5.476451   -4.107544   -0.600083
     68          1           0       -6.835617   -0.463098   -2.403213
     69          1           0       -7.329543   -2.693597   -1.442579
 ---------------------------------------------------------------------

 SCF Done:  E(RB3LYP) =  -2127.52938268     A.U. after   15 cycles

      1  P    Isotropic =   212.4522   Anisotropy =   114.5923

      2  P    Isotropic =   209.9630   Anisotropy =   102.2257

      3  C    Isotropic =    34.2933   Anisotropy =   207.7126

      4  C    Isotropic =    38.3210   Anisotropy =   186.4002

      5  H    Isotropic =    23.6030   Anisotropy =     8.2469

      6  C    Isotropic =    49.9047   Anisotropy =   184.1294

      7  H    Isotropic =    24.1541   Anisotropy =     5.2621

      8  C    Isotropic =    48.9856   Anisotropy =   188.1479

      9  H    Isotropic =    24.1888   Anisotropy =     4.0276

     10  C    Isotropic =    49.9903   Anisotropy =   182.5330

     11  H    Isotropic =    24.3038   Anisotropy =     6.3777

     12  C    Isotropic =    38.4885   Anisotropy =   189.8819

     13  H    Isotropic =    24.2880   Anisotropy =    10.2496

     14  C    Isotropic =    33.2361   Anisotropy =   190.9024

     15  C    Isotropic =    49.2643   Anisotropy =   182.4556

     16  H    Isotropic =    24.8273   Anisotropy =    12.1272

     17  C    Isotropic =    50.7571   Anisotropy =   182.2618

     18  H    Isotropic =    24.5956   Anisotropy =     5.4393

     19  C    Isotropic =    53.4298   Anisotropy =   179.8535

     20  H    Isotropic =    24.7212   Anisotropy =     4.1511

     21  C    Isotropic =    49.8417   Anisotropy =   184.3454

     22  H    Isotropic =    24.6093   Anisotropy =     7.1636

     23  C    Isotropic =    46.6383   Anisotropy =   193.5990

     24  H    Isotropic =    23.3014   Anisotropy =     9.3290

     25  C    Isotropic =   142.1404   Anisotropy =    23.9149

     26  H    Isotropic =    27.5204   Anisotropy =     4.9072

     27  C    Isotropic =   148.0382   Anisotropy =    30.3663

     28  H    Isotropic =    29.1713   Anisotropy =     5.7258

     29  H    Isotropic =    29.1159   Anisotropy =     5.0476

     30  C    Isotropic =    34.8631   Anisotropy =   192.0431

     31  C    Isotropic =    48.2538   Anisotropy =   181.4065

     32  H    Isotropic =    25.0142   Anisotropy =     7.3369

     33  C    Isotropic =    51.0994   Anisotropy =   182.5254

     34  H    Isotropic =    24.6317   Anisotropy =     7.7868

     35  C    Isotropic =    53.4329   Anisotropy =   179.9938

     36  H    Isotropic =    24.5848   Anisotropy =     4.3791

     37  C    Isotropic =    49.5611   Anisotropy =   184.1573

     38  H    Isotropic =    24.4078   Anisotropy =     5.4124

     39  C    Isotropic =    47.7106   Anisotropy =   185.2591

     40  H    Isotropic =    24.4294   Anisotropy =    11.7365

     41  C    Isotropic =    31.8158   Anisotropy =   209.3430

     42  C    Isotropic =    44.8361   Anisotropy =   186.0483

     43  H    Isotropic =    24.1473   Anisotropy =    11.3097

     44  C    Isotropic =    49.7571   Anisotropy =   183.6438

     45  H    Isotropic =    24.4008   Anisotropy =     6.4040

     46  C    Isotropic =    48.7923   Anisotropy =   188.2111

     47  H    Isotropic =    24.2601   Anisotropy =     3.9208

     48  C    Isotropic =    49.1165   Anisotropy =   185.1439

     49  H    Isotropic =    24.1392   Anisotropy =     5.3316

     50  C    Isotropic =    41.7624   Anisotropy =   181.8854

     51  H    Isotropic =    23.6586   Anisotropy =     9.1358

     52  N    Isotropic =   117.3784   Anisotropy =   140.3555

     53  C    Isotropic =   144.2567   Anisotropy =    51.6385

     54  H    Isotropic =    28.5366   Anisotropy =     7.2447

     55  H    Isotropic =    28.6720   Anisotropy =     4.8028

     56  H    Isotropic =    29.1550   Anisotropy =     6.5429

     57  C    Isotropic =     7.0759   Anisotropy =   115.5986

     58  O    Isotropic =   -80.9984   Anisotropy =   627.3868

     59  C    Isotropic =    29.3432   Anisotropy =   150.9262

     60  C    Isotropic =    48.3714   Anisotropy =   174.3371

     61  C    Isotropic =    54.5919   Anisotropy =   168.0645

     62  C    Isotropic =    49.9672   Anisotropy =   183.2794

     63  H    Isotropic =    24.5187   Anisotropy =     9.8133

     64  C    Isotropic =    49.3796   Anisotropy =   184.5408

     65  H    Isotropic =    24.7456   Anisotropy =     9.4810

     66  C    Isotropic =    52.1204   Anisotropy =   183.6999

     67  H    Isotropic =    24.4056   Anisotropy =     6.1522

     68  H    Isotropic =    24.3573   Anisotropy =     5.5902

     69  H    Isotropic =    24.5095   Anisotropy =     4.1606

 The electronic state is 1-A.
 Alpha  occ. eigenvalues --  -77.04799 -77.04469 -19.09689 -14.36249 -10.28037
 Alpha  occ. eigenvalues --  -10.22337 -10.22178 -10.19327 -10.19186 -10.18686
 Alpha  occ. eigenvalues --  -10.18630 -10.18573 -10.18457 -10.18442 -10.18304
 Alpha  occ. eigenvalues --  -10.18303 -10.18292 -10.18235 -10.18216 -10.18211
 Alpha  occ. eigenvalues --  -10.18165 -10.18121 -10.17794 -10.17759 -10.17734
 Alpha  occ. eigenvalues --  -10.17727 -10.17703 -10.17692 -10.17632 -10.17631
 Alpha  occ. eigenvalues --  -10.17610 -10.17584 -10.17468 -10.16822 -10.16747
 Alpha  occ. eigenvalues --  -10.16533 -10.16476 -10.16205  -6.53347  -6.53030
 Alpha  occ. eigenvalues --   -4.69493  -4.69473  -4.69183  -4.69147  -4.68986
 Alpha  occ. eigenvalues --   -4.68666  -1.04771  -0.95429  -0.86546  -0.86278
 Alpha  occ. eigenvalues --   -0.86185  -0.85700  -0.84861  -0.80014  -0.76666
 Alpha  occ. eigenvalues --   -0.76400  -0.75966  -0.75572  -0.75381  -0.75030
 Alpha  occ. eigenvalues --   -0.74989  -0.74483  -0.74064  -0.73909  -0.72276
 Alpha  occ. eigenvalues --   -0.68842  -0.63907  -0.63407  -0.62003  -0.61414
 Alpha  occ. eigenvalues --   -0.61158  -0.60884  -0.60671  -0.59985  -0.59650
 Alpha  occ. eigenvalues --   -0.59519  -0.56637  -0.56049  -0.54788  -0.52413
 Alpha  occ. eigenvalues --   -0.52191  -0.51867  -0.50857  -0.50014  -0.49650
 Alpha  occ. eigenvalues --   -0.49171  -0.48720  -0.46356  -0.46056  -0.45903
 Alpha  occ. eigenvalues --   -0.45807  -0.45673  -0.45561  -0.45258  -0.44845
 Alpha  occ. eigenvalues --   -0.44690  -0.44346  -0.43763  -0.43310  -0.43104
 Alpha  occ. eigenvalues --   -0.42907  -0.42645  -0.42439  -0.41947  -0.41443
 Alpha  occ. eigenvalues --   -0.41212  -0.40757  -0.40417  -0.39033  -0.38191
 Alpha  occ. eigenvalues --   -0.37938  -0.37750  -0.37371  -0.37252  -0.36928
 Alpha  occ. eigenvalues --   -0.36749  -0.36505  -0.35948  -0.35369  -0.35127
 Alpha  occ. eigenvalues --   -0.34884  -0.34610  -0.33759  -0.32608  -0.31761
 Alpha  occ. eigenvalues --   -0.30787  -0.28548  -0.27848  -0.27179  -0.26873
 Alpha  occ. eigenvalues --   -0.26794  -0.26436  -0.26260  -0.26042  -0.25820
 Alpha  occ. eigenvalues --   -0.25485  -0.24903  -0.24458  -0.21584  -0.18175
 Alpha virt. eigenvalues --   -0.03650  -0.02859  -0.02734  -0.02569  -0.02437
 Alpha virt. eigenvalues --   -0.02136  -0.01764  -0.01523  -0.00924  -0.00321
 Alpha virt. eigenvalues --    0.01089   0.01640   0.03043   0.04170   0.04516

 Mulliken charges:
               1
     1  P    0.139301
     2  P    0.158576
     3  C   -0.004515
     4  C   -0.175594
     5  H    0.125716
     6  C   -0.102576
     7  H    0.112999
     8  C   -0.096764
     9  H    0.111631
    10  C   -0.113905
    11  H    0.108420
    12  C   -0.173661
    13  H    0.145290
    14  C    0.062891
    15  C   -0.168549
    16  H    0.113270
    17  C   -0.117129
    18  H    0.103899
    19  C   -0.103478
    20  H    0.103085
    21  C   -0.156026
    22  H    0.108193
    23  C   -0.175579
    24  H    0.166283
    25  C   -0.161583
    26  H    0.156428
    27  C   -0.359998
    28  H    0.158404
    29  H    0.148472
    30  C    0.050125
    31  C   -0.172680
    32  H    0.163953
    33  C   -0.147349
    34  H    0.105342
    35  C   -0.106838
    36  H    0.106718
    37  C   -0.111567
    38  H    0.108965
    39  C   -0.205856
    40  H    0.130756
    41  C    0.057968
    42  C   -0.188863
    43  H    0.130385
    44  C   -0.107838
    45  H    0.106073
    46  C   -0.100927
    47  H    0.109754
    48  C   -0.095456
    49  H    0.110252
    50  C   -0.189841
    51  H    0.119083
    52  N   -0.084241
    53  C   -0.317223
    54  H    0.138712
    55  H    0.139670
    56  H    0.153327
    57  C    0.282467
    58  O   -0.402303
    59  C    0.242851
    60  C   -0.208223
    61  C   -0.220161
    62  C   -0.079684
    63  H    0.119673
    64  C   -0.074803
    65  H    0.110897
    66  C   -0.120558
    67  H    0.111757
    68  H    0.110785
    69  H    0.111395
 Sum of Mulliken charges =  -0.00000

 Dipole moment (field-independent basis, Debye):
    X=             -1.6024    Y=             -0.8030    Z=             -4.7589  Tot=              5.0852
 Quadrupole moment (field-independent basis, Debye-Ang):
   XX=           -229.4521   YY=           -222.7666   ZZ=           -228.1230
   XY=             -1.4736   XZ=             -0.7401   YZ=             -8.6181

 Summary of Natural Population Analysis:

                                       Natural Population
                Natural  -----------------------------------------------
    Atom  No    Charge         Core      Valence    Rydberg      Total
 -----------------------------------------------------------------------
      P    1    0.83770      9.99802     4.13253    0.03175    14.16230
      P    2    0.85352      9.99804     4.11690    0.03153    14.14648
      C    3   -0.33689      1.99899     4.30517    0.03272     6.33689
      C    4   -0.19398      1.99909     4.17445    0.02044     6.19398
      H    5    0.22091      0.00000     0.77720    0.00188     0.77909
      C    6   -0.20590      1.99918     4.18796    0.01875     6.20590
      H    7    0.21131      0.00000     0.78743    0.00126     0.78869
      C    8   -0.19980      1.99919     4.18142    0.01920     6.19980
      H    9    0.20888      0.00000     0.78995    0.00117     0.79112
      C   10   -0.20870      1.99918     4.19045    0.01907     6.20870
      H   11    0.20779      0.00000     0.79086    0.00135     0.79221
      C   12   -0.20197      1.99908     4.18282    0.02006     6.20197
      H   13    0.21506      0.00000     0.78277    0.00217     0.78494
      C   14   -0.32715      1.99900     4.29719    0.03096     6.32715
      C   15   -0.20742      1.99909     4.18858    0.01975     6.20742
      H   16    0.20885      0.00000     0.78937    0.00179     0.79115
      C   17   -0.20069      1.99918     4.18279    0.01872     6.20069
      H   18    0.20628      0.00000     0.79244    0.00128     0.79372
      C   19   -0.21657      1.99919     4.19788    0.01950     6.21657
      H   20    0.20549      0.00000     0.79332    0.00119     0.79451
      C   21   -0.19458      1.99919     4.17671    0.01868     6.19458
      H   22    0.20822      0.00000     0.79051    0.00128     0.79178
      C   23   -0.22132      1.99908     4.20254    0.01970     6.22132
      H   24    0.23551      0.00000     0.76274    0.00175     0.76449
      C   25   -0.78502      1.99937     4.74983    0.03581     6.78502
      H   26    0.29705      0.00000     0.70085    0.00211     0.70295
      C   27   -0.51687      1.99925     4.49947    0.01815     6.51687
      H   28    0.22917      0.00000     0.76787    0.00295     0.77083
      H   29    0.23163      0.00000     0.76539    0.00298     0.76837
      C   30   -0.33112      1.99899     4.30118    0.03094     6.33112
      C   31   -0.22352      1.99908     4.20452    0.01991     6.22352
      H   32    0.21007      0.00000     0.78799    0.00194     0.78993
      C   33   -0.19857      1.99918     4.18075    0.01863     6.19857
      H   34    0.20715      0.00000     0.79156    0.00129     0.79285
      C   35   -0.21706      1.99919     4.19829    0.01958     6.21706
      H   36    0.20743      0.00000     0.79139    0.00118     0.79257
      C   37   -0.19686      1.99918     4.17911    0.01857     6.19686
      H   38    0.20854      0.00000     0.79020    0.00126     0.79146
      C   39   -0.20696      1.99909     4.18814    0.01973     6.20696
      H   40    0.21470      0.00000     0.78351    0.00179     0.78530
      C   41   -0.33142      1.99900     4.30000    0.03242     6.33142
      C   42   -0.19839      1.99908     4.17962    0.01969     6.19839
      H   43    0.20909      0.00000     0.78864    0.00227     0.79091
      C   44   -0.20415      1.99919     4.18600    0.01896     6.20415
      H   45    0.20642      0.00000     0.79220    0.00137     0.79358
      C   46   -0.19840      1.99919     4.18014    0.01907     6.19840
      H   47    0.20795      0.00000     0.79087    0.00118     0.79205
      C   48   -0.20139      1.99918     4.18288    0.01932     6.20139
      H   49    0.21000      0.00000     0.78875    0.00126     0.79000
      C   50   -0.19215      1.99910     4.17281    0.02023     6.19215
      H   51    0.21799      0.00000     0.78047    0.00154     0.78201
      N   52   -0.42310      1.99934     5.39737    0.02639     7.42310
      C   53   -0.39812      1.99932     4.38960    0.00919     6.39812
      H   54    0.19223      0.00000     0.80589    0.00188     0.80777
      H   55    0.20585      0.00000     0.79248    0.00166     0.79415
      H   56    0.21668      0.00000     0.78193    0.00139     0.78332
      C   57    0.67514      1.99934     3.29414    0.03137     5.32486
      O   58   -0.61907      1.99975     6.59400    0.02531     8.61907
      C   59    0.14313      1.99886     3.83676    0.02125     5.85687
      C   60   -0.19141      1.99904     4.17334    0.01903     6.19141
      C   61   -0.22263      1.99905     4.20499    0.01858     6.22263
      C   62   -0.19492      1.99920     4.17707    0.01866     6.19492
      H   63    0.22160      0.00000     0.77691    0.00148     0.77840
      C   64   -0.19680      1.99920     4.17880    0.01880     6.19680
      H   65    0.20880      0.00000     0.78952    0.00168     0.79120
      C   66   -0.20831      1.99919     4.19007    0.01905     6.20831
      H   67    0.21097      0.00000     0.78784    0.00118     0.78903
      H   68    0.21002      0.00000     0.78878    0.00120     0.78998
      H   69    0.21004      0.00000     0.78883    0.00113     0.78996
 =======================================================================
   * Total *    0.00000     91.96591   187.14475    0.88934   280.00000

 1\1\GINC-G2NODEC1\SP\RB3LYP\def2TZVP\C34H31N1O1P2\ROOT\24-Jan-2025\0\\
 # nmr=giao b3lyp/def2TZVP pop=nbo scfcyc=200\\MS-56 SPE NoRh\\0,1\P,0,
 0.394,-1.326,0.08\P,0,0.835,1.436,0.018\C,0,0.271,-2.058,1.767\C,0,1.3
 13,-1.875,2.681\H,0,2.192,-1.316,2.383\C,0,1.228,-2.411,3.962\H,0,2.04
 4,-2.269,4.66\C,0,0.104,-3.137,4.34\H,0,0.041,-3.561,5.335\C,0,-0.936,
 -3.329,3.435\H,0,-1.808,-3.904,3.723\C,0,-0.855,-2.795,2.154\H,0,-1.65
 8,-2.973,1.449\C,0,-0.351,-2.6,-1.023\C,0,0.209,-3.885,-0.986\H,0,0.98
 9,-4.123,-0.273\C,0,-0.247,-4.874,-1.847\H,0,0.188,-5.865,-1.804\C,0,-

 Normal termination of Gaussian 16 at Fri Jan 24 19:05:51 2025.
