 Gaussian 16, Revision B.01,
 Gaussian 16:  ES64L-G16RevB.01 20-Dec-2017

 --------------------------------------------
 # nmr=giao b3lyp/def2TZVP pop=nbo scfcyc=200
 --------------------------------------------

 --------------
 MS-53 SPE NoRh
 --------------
 Symbolic Z-matrix:
 Charge =  0 Multiplicity = 1

                         Standard orientation:
 ---------------------------------------------------------------------
 Center     Atomic      Atomic             Coordinates (Angstroms)
 Number     Number       Type             X           Y           Z
 ---------------------------------------------------------------------
      1         15           0        2.411045   -0.607489    0.688610
      2         15           0        0.453888    1.252692    1.406116
      3          8           0       -1.476266    0.349739   -1.679436
      4          7           0       -2.671647   -1.355026   -0.730530
      5          1           0       -2.594606   -2.101955   -0.056521
      6          6           0        0.730232   -0.031333    0.023073
      7          1           0        0.840849    0.484377   -0.929055
      8          6           0       -0.322266   -1.121882   -0.161727
      9          1           0        0.106315   -1.928315   -0.763438
     10          1           0       -0.616374   -1.573168    0.787789
     11          6           0       -1.549248   -0.610997   -0.928654
     12          6           0       -3.947803   -1.243441   -1.337548
     13          6           0       -4.940478   -2.119329   -0.885280
     14          1           0       -4.712997   -2.835556   -0.101890
     15          6           0       -6.213494   -2.082165   -1.434734
     16          1           0       -6.969225   -2.768460   -1.076106
     17          6           0       -6.513864   -1.168620   -2.440772
     18          1           0       -7.506871   -1.138015   -2.870973
     19          6           0       -5.525773   -0.299898   -2.887878
     20          1           0       -5.747962    0.412829   -3.672590
     21          6           0       -4.243642   -0.325423   -2.347883
     22          1           0       -3.482606    0.350725   -2.700774
     23          6           0        3.708707   -0.113599   -0.524671
     24          6           0        3.530003    0.951859   -1.411130
     25          1           0        2.590385    1.484278   -1.462299
     26          6           0        4.569939    1.353343   -2.243441
     27          1           0        4.414623    2.173545   -2.932324
     28          6           0        5.800148    0.707197   -2.193212
     29          1           0        6.606264    1.020980   -2.843461
     30          6           0        5.990824   -0.345222   -1.302432
     31          1           0        6.945166   -0.853649   -1.256608
     32          6           0        4.955042   -0.750737   -0.468540
     33          1           0        5.118594   -1.578743    0.210429
     34          6           0        2.403284   -2.450522    0.674124
     35          6           0        2.656846   -3.173965   -0.496121
     36          1           0        2.922106   -2.659165   -1.411565
     37          6           0        2.581712   -4.561967   -0.490328
     38          1           0        2.784211   -5.113567   -1.399369
     39          6           0        2.248784   -5.240573    0.678725
     40          1           0        2.196011   -6.322604    0.681018
     41          6           0        1.990559   -4.528034    1.844804
     42          1           0        1.735465   -5.053038    2.756855
     43          6           0        2.066784   -3.138497    1.843854
     44          1           0        1.868544   -2.585543    2.752745
     45          6           0        0.578222    2.884634    0.558062
     46          6           0       -0.061153    3.119596   -0.666380
     47          1           0       -0.636233    2.336473   -1.145982
     48          6           0        0.047359    4.363641   -1.277690
     49          1           0       -0.452279    4.536992   -2.222948
     50          6           0        0.789790    5.379090   -0.682071
     51          1           0        0.869314    6.346130   -1.163145
     52          6           0        1.433961    5.148024    0.527047
     53          1           0        2.021523    5.931344    0.989527
     54          6           0        1.332876    3.904852    1.143840
     55          1           0        1.854858    3.727370    2.072984
     56          6           0       -1.269897    1.090036    2.040545
     57          6           0       -1.548030    0.044052    2.929605
     58          1           0       -0.757034   -0.632530    3.232768
     59          6           0       -2.829617   -0.126054    3.440748
     60          1           0       -3.032583   -0.937423    4.128264
     61          6           0       -3.843676    0.758874    3.083415
     62          1           0       -4.839848    0.633111    3.486468
     63          6           0       -3.570618    1.808186    2.213648
     64          1           0       -4.354907    2.502052    1.936946
     65          6           0       -2.291451    1.977445    1.692787
     66          1           0       -2.097441    2.799291    1.018835
 ---------------------------------------------------------------------

 SCF Done:  E(RB3LYP) =  -2088.22060549     A.U. after   15 cycles

      1  P    Isotropic =   218.7601   Anisotropy =    99.7306

      2  P    Isotropic =   222.7801   Anisotropy =   141.9345

      3  O    Isotropic =   -84.5195   Anisotropy =   650.9647

      4  N    Isotropic =   102.9412   Anisotropy =   125.8611

      5  H    Isotropic =    26.2797   Anisotropy =     9.4913

      6  C    Isotropic =   142.1399   Anisotropy =    21.1544

      7  H    Isotropic =    27.9885   Anisotropy =     5.1137

      8  C    Isotropic =   143.3938   Anisotropy =    47.3534

      9  H    Isotropic =    29.9318   Anisotropy =     8.9369

     10  H    Isotropic =    30.0228   Anisotropy =     3.4775

     11  C    Isotropic =     9.3823   Anisotropy =   113.4137

     12  C    Isotropic =    36.7518   Anisotropy =   155.2085

     13  C    Isotropic =    62.6560   Anisotropy =   141.9244

     14  H    Isotropic =    25.5851   Anisotropy =     8.6818

     15  C    Isotropic =    50.1718   Anisotropy =   183.4463

     16  H    Isotropic =    24.6335   Anisotropy =     5.6684

     17  C    Isotropic =    55.5757   Anisotropy =   177.9205

     18  H    Isotropic =    24.7502   Anisotropy =     4.0622

     19  C    Isotropic =    48.3710   Anisotropy =   187.2767

     20  H    Isotropic =    24.4051   Anisotropy =     6.2193

     21  C    Isotropic =    60.0443   Anisotropy =   174.0115

     22  H    Isotropic =    22.9749   Anisotropy =    12.0651

     23  C    Isotropic =    33.9483   Anisotropy =   195.7287

     24  C    Isotropic =    50.5825   Anisotropy =   186.7773

     25  H    Isotropic =    24.7605   Anisotropy =     8.9224

     26  C    Isotropic =    50.0033   Anisotropy =   183.0267

     27  H    Isotropic =    24.6754   Anisotropy =     7.9206

     28  C    Isotropic =    53.2101   Anisotropy =   179.3990

     29  H    Isotropic =    24.6759   Anisotropy =     4.4490

     30  C    Isotropic =    50.0384   Anisotropy =   182.5613

     31  H    Isotropic =    24.5209   Anisotropy =     5.5486

     32  C    Isotropic =    49.1925   Anisotropy =   181.5632

     33  H    Isotropic =    24.6075   Anisotropy =    11.9236

     34  C    Isotropic =    35.3156   Anisotropy =   205.2759

     35  C    Isotropic =    41.0697   Anisotropy =   189.4440

     36  H    Isotropic =    24.1968   Anisotropy =    11.2944

     37  C    Isotropic =    48.7118   Anisotropy =   185.4383

     38  H    Isotropic =    24.3636   Anisotropy =     6.1734

     39  C    Isotropic =    48.8770   Anisotropy =   188.1721

     40  H    Isotropic =    24.2534   Anisotropy =     4.0008

     41  C    Isotropic =    50.1437   Anisotropy =   183.1208

     42  H    Isotropic =    24.0980   Anisotropy =     5.3355

     43  C    Isotropic =    40.5397   Anisotropy =   181.9383

     44  H    Isotropic =    23.5197   Anisotropy =     9.1044

     45  C    Isotropic =    38.8276   Anisotropy =   198.6494

     46  C    Isotropic =    36.7299   Anisotropy =   200.2902

     47  H    Isotropic =    22.0516   Anisotropy =    10.0117

     48  C    Isotropic =    49.1439   Anisotropy =   184.7909

     49  H    Isotropic =    23.8599   Anisotropy =     6.6555

     50  C    Isotropic =    48.4596   Anisotropy =   188.7639

     51  H    Isotropic =    24.1170   Anisotropy =     4.1794

     52  C    Isotropic =    50.2519   Anisotropy =   183.1499

     53  H    Isotropic =    24.2419   Anisotropy =     5.0142

     54  C    Isotropic =    41.1700   Anisotropy =   181.7034

     55  H    Isotropic =    23.8847   Anisotropy =     8.6829

     56  C    Isotropic =    36.0945   Anisotropy =   200.6393

     57  C    Isotropic =    44.2764   Anisotropy =   180.5108

     58  H    Isotropic =    23.9168   Anisotropy =     9.4356

     59  C    Isotropic =    51.6078   Anisotropy =   181.3249

     60  H    Isotropic =    24.3433   Anisotropy =     5.4477

     61  C    Isotropic =    51.1922   Anisotropy =   185.5581

     62  H    Isotropic =    24.7189   Anisotropy =     3.5490

     63  C    Isotropic =    49.4806   Anisotropy =   186.3114

     64  H    Isotropic =    24.8022   Anisotropy =     5.6926

     65  C    Isotropic =    45.3887   Anisotropy =   193.1148

     66  H    Isotropic =    24.6718   Anisotropy =    11.8386

 The electronic state is 1-A.
 Alpha  occ. eigenvalues --  -77.04826 -77.04417 -19.10531 -14.36686 -10.28775
 Alpha  occ. eigenvalues --  -10.23034 -10.19683 -10.19421 -10.18813 -10.18619
 Alpha  occ. eigenvalues --  -10.18604 -10.18502 -10.18472 -10.18430 -10.18398
 Alpha  occ. eigenvalues --  -10.18392 -10.18342 -10.18296 -10.18082 -10.17997
 Alpha  occ. eigenvalues --  -10.17979 -10.17951 -10.17776 -10.17698 -10.17660
 Alpha  occ. eigenvalues --  -10.17612 -10.17598 -10.17503 -10.17479 -10.17466
 Alpha  occ. eigenvalues --  -10.17430 -10.17360 -10.17354 -10.17350 -10.17279
 Alpha  occ. eigenvalues --  -10.17104 -10.17062  -6.53401  -6.52992  -4.69558
 Alpha  occ. eigenvalues --   -4.69516  -4.69140  -4.69109  -4.69031  -4.68625
 Alpha  occ. eigenvalues --   -1.05381  -0.95476  -0.86769  -0.86146  -0.85922
 Alpha  occ. eigenvalues --   -0.85622  -0.85556  -0.80368  -0.76788  -0.76412
 Alpha  occ. eigenvalues --   -0.75791  -0.75678  -0.75154  -0.75014  -0.74749
 Alpha  occ. eigenvalues --   -0.74660  -0.74554  -0.74446  -0.68741  -0.64298
 Alpha  occ. eigenvalues --   -0.64051  -0.62529  -0.61612  -0.61261  -0.61042
 Alpha  occ. eigenvalues --   -0.60463  -0.60209  -0.60080  -0.59811  -0.57815
 Alpha  occ. eigenvalues --   -0.56227  -0.55234  -0.54465  -0.52292  -0.52084
 Alpha  occ. eigenvalues --   -0.51308  -0.50339  -0.49852  -0.49252  -0.47654
 Alpha  occ. eigenvalues --   -0.46345  -0.46204  -0.45817  -0.45721  -0.45388
 Alpha  occ. eigenvalues --   -0.45281  -0.45225  -0.44963  -0.44702  -0.44387
 Alpha  occ. eigenvalues --   -0.43628  -0.43316  -0.42886  -0.42750  -0.42425
 Alpha  occ. eigenvalues --   -0.42173  -0.41905  -0.41359  -0.40785  -0.40008
 Alpha  occ. eigenvalues --   -0.38740  -0.38346  -0.37752  -0.37530  -0.37233
 Alpha  occ. eigenvalues --   -0.37130  -0.37014  -0.36914  -0.35633  -0.35609
 Alpha  occ. eigenvalues --   -0.35412  -0.34990  -0.34502  -0.34444  -0.32634
 Alpha  occ. eigenvalues --   -0.32251  -0.32002  -0.31275  -0.27757  -0.27246
 Alpha  occ. eigenvalues --   -0.26875  -0.26662  -0.26417  -0.26348  -0.26084
 Alpha  occ. eigenvalues --   -0.25837  -0.25608  -0.25514  -0.23507  -0.21881
 Alpha  occ. eigenvalues --   -0.18494
 Alpha virt. eigenvalues --   -0.03913  -0.03556  -0.03016  -0.02603  -0.02356
 Alpha virt. eigenvalues --   -0.01968  -0.01803  -0.01608  -0.01261  -0.00945
 Alpha virt. eigenvalues --    0.01109   0.02023   0.03024   0.04391   0.04939

 Mulliken charges:
               1
     1  P    0.165007
     2  P    0.095789
     3  O   -0.426890
     4  N   -0.228412
     5  H    0.207291
     6  C   -0.181625
     7  H    0.123349
     8  C   -0.314629
     9  H    0.145019
    10  H    0.115947
    11  C    0.388876
    12  C    0.259288
    13  C   -0.231894
    14  H    0.097996
    15  C   -0.094680
    16  H    0.109263
    17  C   -0.135722
    18  H    0.108122
    19  C   -0.082075
    20  H    0.111298
    21  C   -0.215973
    22  H    0.160977
    23  C    0.056416
    24  C   -0.157874
    25  H    0.156922
    26  C   -0.151294
    27  H    0.106241
    28  C   -0.104435
    29  H    0.106168
    30  C   -0.111588
    31  H    0.107281
    32  C   -0.191925
    33  H    0.122571
    34  C    0.053705
    35  C   -0.199833
    36  H    0.141133
    37  C   -0.101628
    38  H    0.112260
    39  C   -0.100199
    40  H    0.112765
    41  C   -0.109034
    42  H    0.111171
    43  C   -0.193461
    44  H    0.124147
    45  C   -0.013916
    46  C   -0.212896
    47  H    0.218290
    48  C   -0.129639
    49  H    0.110337
    50  C   -0.089915
    51  H    0.109397
    52  C   -0.117844
    53  H    0.108943
    54  C   -0.125931
    55  H    0.112987
    56  C    0.079989
    57  C   -0.220714
    58  H    0.125400
    59  C   -0.124815
    60  H    0.107234
    61  C   -0.097568
    62  H    0.108336
    63  C   -0.122003
    64  H    0.107622
    65  C   -0.145741
    66  H    0.146621
 Sum of Mulliken charges =  -0.00000

 Dipole moment (field-independent basis, Debye):
    X=             -1.9074    Y=             -2.8054    Z=             -0.2545  Tot=              3.4019
 Quadrupole moment (field-independent basis, Debye-Ang):
   XX=           -219.8359   YY=           -209.5216   ZZ=           -232.1010
   XY=              3.3698   XZ=             -7.4776   YZ=            -10.6132

 Summary of Natural Population Analysis:

                                       Natural Population
                Natural  -----------------------------------------------
    Atom  No    Charge         Core      Valence    Rydberg      Total
 -----------------------------------------------------------------------
      P    1    0.83562      9.99807     4.13419    0.03213    14.16438
      P    2    0.80818      9.99808     4.16114    0.03259    14.19182
      O    3   -0.62303      1.99974     6.59832    0.02496     8.62303
      N    4   -0.55876      1.99937     5.53821    0.02118     7.55876
      H    5    0.39257      0.00000     0.60507    0.00236     0.60743
      C    6   -0.74936      1.99940     4.71499    0.03496     6.74936
      H    7    0.26527      0.00000     0.73223    0.00250     0.73473
      C    8   -0.49687      1.99926     4.47993    0.01769     6.49687
      H    9    0.23990      0.00000     0.75771    0.00239     0.76010
      H   10    0.21342      0.00000     0.78387    0.00270     0.78658
      C   11    0.67333      1.99941     3.29483    0.03243     5.32667
      C   12    0.13704      1.99892     3.84251    0.02154     5.86296
      C   13   -0.23434      1.99910     4.21631    0.01893     6.23434
      H   14    0.20087      0.00000     0.79775    0.00138     0.79913
      C   15   -0.19141      1.99920     4.17294    0.01928     6.19141
      H   16    0.20943      0.00000     0.78940    0.00117     0.79057
      C   17   -0.22551      1.99918     4.20662    0.01970     6.22551
      H   18    0.20933      0.00000     0.78953    0.00114     0.79067
      C   19   -0.18486      1.99920     4.16670    0.01896     6.18486
      H   20    0.20942      0.00000     0.78941    0.00117     0.79058
      C   21   -0.23360      1.99908     4.21527    0.01925     6.23360
      H   22    0.24894      0.00000     0.74962    0.00144     0.75106
      C   23   -0.32120      1.99900     4.29091    0.03130     6.32120
      C   24   -0.21520      1.99908     4.19654    0.01958     6.21520
      H   25    0.20958      0.00000     0.78843    0.00198     0.79042
      C   26   -0.19293      1.99919     4.17514    0.01860     6.19293
      H   27    0.20858      0.00000     0.79015    0.00127     0.79142
      C   28   -0.21603      1.99919     4.19737    0.01948     6.21603
      H   29    0.20724      0.00000     0.79159    0.00118     0.79276
      C   30   -0.19693      1.99919     4.17914    0.01861     6.19693
      H   31    0.20765      0.00000     0.79108    0.00127     0.79235
      C   32   -0.20961      1.99909     4.19087    0.01965     6.20961
      H   33    0.21148      0.00000     0.78677    0.00175     0.78852
      C   34   -0.33109      1.99900     4.29948    0.03260     6.33109
      C   35   -0.20097      1.99908     4.18199    0.01989     6.20097
      H   36    0.21686      0.00000     0.78096    0.00218     0.78314
      C   37   -0.20425      1.99919     4.18605    0.01902     6.20425
      H   38    0.20950      0.00000     0.78913    0.00137     0.79050
      C   39   -0.20034      1.99919     4.18201    0.01914     6.20034
      H   40    0.20943      0.00000     0.78940    0.00117     0.79057
      C   41   -0.20646      1.99918     4.18785    0.01943     6.20646
      H   42    0.20983      0.00000     0.78890    0.00126     0.79017
      C   43   -0.19920      1.99910     4.17971    0.02039     6.19920
      H   44    0.21612      0.00000     0.78232    0.00156     0.78388
      C   45   -0.33783      1.99900     4.30665    0.03217     6.33783
      C   46   -0.21451      1.99908     4.19540    0.02002     6.21451
      H   47    0.24384      0.00000     0.75416    0.00200     0.75616
      C   48   -0.20640      1.99918     4.18838    0.01884     6.20640
      H   49    0.20829      0.00000     0.79032    0.00139     0.79171
      C   50   -0.19672      1.99919     4.17850    0.01903     6.19672
      H   51    0.20757      0.00000     0.79124    0.00119     0.79243
      C   52   -0.20751      1.99918     4.18894    0.01939     6.20751
      H   53    0.20933      0.00000     0.78941    0.00126     0.79067
      C   54   -0.18545      1.99911     4.16599    0.02036     6.18545
      H   55    0.21791      0.00000     0.78048    0.00160     0.78209
      C   56   -0.32870      1.99899     4.29819    0.03152     6.32870
      C   57   -0.21238      1.99909     4.19330    0.01999     6.21238
      H   58    0.20693      0.00000     0.79074    0.00233     0.79307
      C   59   -0.20832      1.99918     4.19028    0.01886     6.20832
      H   60    0.20725      0.00000     0.79147    0.00128     0.79275
      C   61   -0.20624      1.99919     4.18778    0.01928     6.20624
      H   62    0.20815      0.00000     0.79067    0.00118     0.79185
      C   63   -0.19556      1.99919     4.17781    0.01856     6.19556
      H   64    0.20903      0.00000     0.78966    0.00131     0.79097
      C   65   -0.19492      1.99908     4.17644    0.01941     6.19492
      H   66    0.21858      0.00000     0.77942    0.00201     0.78142
 =======================================================================
   * Total *   -0.00000     89.96694   181.15761    0.87545   272.00000

 Normal termination of Gaussian 16 at Fri Jan 24 18:26:54 2025.
