 Gaussian 16, Revision B.01,
 Gaussian 16:  ES64L-G16RevB.01 20-Dec-2017

 --------------------------------------------
 # nmr=giao b3lyp/def2TZVP pop=nbo scfcyc=200
 --------------------------------------------

 -------------
 MS-5 SPE NoRh
 -------------
 Symbolic Z-matrix:
 Charge =  0 Multiplicity = 1

                         Standard orientation:
 ---------------------------------------------------------------------
 Center     Atomic      Atomic             Coordinates (Angstroms)
 Number     Number       Type             X           Y           Z
 ---------------------------------------------------------------------
      1         15           0        1.424103   -0.971561    0.376848
      2         15           0       -1.393776   -1.179231    0.467845
      3          7           0       -0.414627    2.087655    0.284051
      4          6           0       -0.082955   -0.196264   -0.498493
      5          6           0       -0.179089    1.279527   -0.759049
      6          6           0       -0.488499    3.402896    0.067768
      7          6           0       -0.332623    3.984267   -1.185852
      8          6           0       -0.089810    3.149617   -2.268432
      9          6           0       -0.013668    1.779482   -2.055534
     10          6           0        2.182487   -2.181177   -2.082761
     11          6           0        2.711962   -1.270517   -0.969401
     12          6           0        4.007834   -1.839318   -0.373863
     13          6           0        2.783820   -0.167025    2.760359
     14          6           0        2.112382    0.386741    1.498651
     15          6           0        3.001669    1.408572    0.779416
     16          6           0       -2.028418   -2.630167   -1.893152
     17          6           0       -2.650063   -1.707183   -0.838449
     18          6           0       -3.382980   -0.530302   -1.493603
     19          6           0       -1.538139    0.288821    2.894851
     20          6           0       -2.367684   -0.095097    1.666987
     21          6           0       -3.665071   -0.801859    2.090995
     22          1           0       -0.087306   -0.710284   -1.460241
     23          1           0       -0.682119    4.018148    0.939802
     24          1           0       -0.402217    5.056992   -1.304494
     25          1           0        0.035145    3.556690   -3.264492
     26          1           0        0.169113    1.107131   -2.883610
     27          1           0        2.927705   -0.287193   -1.394860
     28          1           0        2.975409   -2.359842   -2.812169
     29          1           0        1.343974   -1.744922   -2.624948
     30          1           0        1.864558   -3.150764   -1.693389
     31          1           0        3.850457   -2.826068    0.066247
     32          1           0        4.441478   -1.195900    0.389208
     33          1           0        4.750893   -1.952922   -1.166117
     34          1           0        1.202849    0.906977    1.802858
     35          1           0        3.687838   -0.737818    2.536740
     36          1           0        2.107304   -0.805736    3.328331
     37          1           0        3.078158    0.663675    3.405237
     38          1           0        3.207718    2.237231    1.459929
     39          1           0        2.527322    1.827841   -0.107734
     40          1           0        3.963737    0.986238    0.484978
     41          1           0       -3.371618   -2.295757   -0.265596
     42          1           0       -2.819583   -3.071050   -2.503750
     43          1           0       -1.453220   -3.441253   -1.445179
     44          1           0       -1.371127   -2.085361   -2.572760
     45          1           0       -2.699505    0.096789   -2.069356
     46          1           0       -3.893421    0.106038   -0.771669
     47          1           0       -4.137348   -0.910042   -2.185985
     48          1           0       -2.616054    0.815068    1.118937
     49          1           0       -2.163686    0.859431    3.586285
     50          1           0       -0.695988    0.919228    2.622623
     51          1           0       -1.172530   -0.592855    3.425280
     52          1           0       -3.469261   -1.755110    2.586977
     53          1           0       -4.347807   -0.984114    1.262358
     54          1           0       -4.190324   -0.168270    2.809185
 ---------------------------------------------------------------------

 SCF Done:  E(RB3LYP) =  -1443.56711613     A.U. after   14 cycles

      1  P    Isotropic =   194.7890   Anisotropy =   139.3473

      2  P    Isotropic =   188.3376   Anisotropy =   125.0293

      3  N    Isotropic =   -92.5401   Anisotropy =   549.0975

      4  C    Isotropic =   141.2519   Anisotropy =    29.0584

      5  C    Isotropic =    11.2079   Anisotropy =   187.1600

      6  C    Isotropic =    27.0554   Anisotropy =   172.6414

      7  C    Isotropic =    60.3302   Anisotropy =   171.2138

      8  C    Isotropic =    42.1694   Anisotropy =   200.0949

      9  C    Isotropic =    56.0875   Anisotropy =   153.0459

     10  C    Isotropic =   162.2605   Anisotropy =    30.8230

     11  C    Isotropic =   153.8440   Anisotropy =    22.3379

     12  C    Isotropic =   162.9719   Anisotropy =    33.6572

     13  C    Isotropic =   159.3766   Anisotropy =    35.6010

     14  C    Isotropic =   156.6199   Anisotropy =    10.6319

     15  C    Isotropic =   165.3005   Anisotropy =    27.2043

     16  C    Isotropic =   160.9404   Anisotropy =    33.8806

     17  C    Isotropic =   146.7118   Anisotropy =    20.8676

     18  C    Isotropic =   164.8236   Anisotropy =    27.4743

     19  C    Isotropic =   160.8165   Anisotropy =    36.2623

     20  C    Isotropic =   153.5578   Anisotropy =    17.8279

     21  C    Isotropic =   164.2916   Anisotropy =    32.8890

     22  H    Isotropic =    28.8622   Anisotropy =     4.0160

     23  H    Isotropic =    23.0461   Anisotropy =     7.0576

     24  H    Isotropic =    24.8016   Anisotropy =     3.9243

     25  H    Isotropic =    24.2237   Anisotropy =     5.4508

     26  H    Isotropic =    24.6627   Anisotropy =     9.4983

     27  H    Isotropic =    29.9351   Anisotropy =     2.9600

     28  H    Isotropic =    30.8090   Anisotropy =    10.2477

     29  H    Isotropic =    30.5688   Anisotropy =     7.3843

     30  H    Isotropic =    30.8517   Anisotropy =     6.8653

     31  H    Isotropic =    31.1715   Anisotropy =     7.9587

     32  H    Isotropic =    31.1216   Anisotropy =     7.7288

     33  H    Isotropic =    30.9761   Anisotropy =    11.0443

     34  H    Isotropic =    29.1137   Anisotropy =     9.3517

     35  H    Isotropic =    31.0697   Anisotropy =     7.6589

     36  H    Isotropic =    30.4232   Anisotropy =     8.1261

     37  H    Isotropic =    30.9733   Anisotropy =    10.4609

     38  H    Isotropic =    31.3534   Anisotropy =    10.2370

     39  H    Isotropic =    32.2275   Anisotropy =     7.5022

     40  H    Isotropic =    31.2887   Anisotropy =     7.0508

     41  H    Isotropic =    30.3007   Anisotropy =     6.7609

     42  H    Isotropic =    30.6663   Anisotropy =    10.6452

     43  H    Isotropic =    30.4235   Anisotropy =     8.0339

     44  H    Isotropic =    30.9740   Anisotropy =     5.2850

     45  H    Isotropic =    31.5376   Anisotropy =     6.3008

     46  H    Isotropic =    30.8574   Anisotropy =     5.7794

     47  H    Isotropic =    31.1401   Anisotropy =    11.5711

     48  H    Isotropic =    29.6522   Anisotropy =     4.1711

     49  H    Isotropic =    30.8220   Anisotropy =    10.2444

     50  H    Isotropic =    29.5091   Anisotropy =     7.8454

     51  H    Isotropic =    30.7613   Anisotropy =     6.3102

     52  H    Isotropic =    31.1084   Anisotropy =     8.4199

     53  H    Isotropic =    31.0593   Anisotropy =     8.3807

     54  H    Isotropic =    31.0127   Anisotropy =    10.8075

 The electronic state is 1-A.
 Alpha  occ. eigenvalues --  -77.03284 -77.03022 -14.31480 -10.22500 -10.21405
 Alpha  occ. eigenvalues --  -10.19890 -10.18788 -10.18674 -10.18634 -10.17552
 Alpha  occ. eigenvalues --  -10.17503 -10.17143 -10.17142 -10.16328 -10.16191
 Alpha  occ. eigenvalues --  -10.16092 -10.15810 -10.15775 -10.15547 -10.15484
 Alpha  occ. eigenvalues --  -10.14832  -6.51818  -6.51578  -4.67992  -4.67888
 Alpha  occ. eigenvalues --   -4.67760  -4.67647  -4.67457  -4.67208  -0.95200
 Alpha  occ. eigenvalues --   -0.81282  -0.80739  -0.79581  -0.78473  -0.77734
 Alpha  occ. eigenvalues --   -0.77582  -0.71779  -0.68724  -0.68595  -0.68114
 Alpha  occ. eigenvalues --   -0.67801  -0.64163  -0.63464  -0.62687  -0.59626
 Alpha  occ. eigenvalues --   -0.58049  -0.57693  -0.53614  -0.51428  -0.50798
 Alpha  occ. eigenvalues --   -0.49079  -0.47147  -0.46329  -0.46066  -0.45275
 Alpha  occ. eigenvalues --   -0.44925  -0.44015  -0.43534  -0.43293  -0.41761
 Alpha  occ. eigenvalues --   -0.41664  -0.41101  -0.40596  -0.40374  -0.40008
 Alpha  occ. eigenvalues --   -0.39795  -0.39094  -0.38754  -0.38639  -0.38035
 Alpha  occ. eigenvalues --   -0.37959  -0.37431  -0.35737  -0.35082  -0.34649
 Alpha  occ. eigenvalues --   -0.34577  -0.34373  -0.34149  -0.34058  -0.33353
 Alpha  occ. eigenvalues --   -0.32586  -0.31331  -0.29611  -0.28879  -0.28692
 Alpha  occ. eigenvalues --   -0.26638  -0.25257  -0.21615  -0.17461
 Alpha virt. eigenvalues --   -0.04161  -0.02860   0.01647   0.02143   0.03107
 Alpha virt. eigenvalues --    0.03713   0.04808   0.05149   0.05808   0.06354
 Alpha virt. eigenvalues --    0.06889   0.07024   0.07505   0.07597   0.07951

 Mulliken charges:
               1
     1  P    0.130247
     2  P    0.117618
     3  N   -0.310458
     4  C   -0.125623
     5  C    0.180242
     6  C   -0.066097
     7  C   -0.094331
     8  C   -0.101057
     9  C   -0.170570
    10  C   -0.358135
    11  C   -0.046789
    12  C   -0.347569
    13  C   -0.332184
    14  C   -0.050797
    15  C   -0.384163
    16  C   -0.360537
    17  C   -0.066565
    18  C   -0.350546
    19  C   -0.368595
    20  C   -0.028791
    21  C   -0.362282
    22  H    0.037261
    23  H    0.112990
    24  H    0.115083
    25  H    0.119809
    26  H    0.115977
    27  H    0.072869
    28  H    0.109137
    29  H    0.101690
    30  H    0.117883
    31  H    0.112309
    32  H    0.108589
    33  H    0.107890
    34  H    0.084193
    35  H    0.101520
    36  H    0.122216
    37  H    0.102844
    38  H    0.103565
    39  H    0.133408
    40  H    0.107721
    41  H    0.085214
    42  H    0.111217
    43  H    0.128713
    44  H    0.094941
    45  H    0.111067
    46  H    0.117708
    47  H    0.100252
    48  H    0.081802
    49  H    0.095743
    50  H    0.135157
    51  H    0.108309
    52  H    0.114129
    53  H    0.116902
    54  H    0.108876
 Sum of Mulliken charges =  -0.00000

 Dipole moment (field-independent basis, Debye):
    X=             -0.0870    Y=              2.3409    Z=             -2.3841  Tot=              3.3424
 Quadrupole moment (field-independent basis, Debye-Ang):
   XX=           -148.0679   YY=           -145.9205   ZZ=           -145.7617
   XY=              0.2347   XZ=             -1.3342   YZ=              0.8594

 Summary of Natural Population Analysis:

                                       Natural Population
                Natural  -----------------------------------------------
    Atom  No    Charge         Core      Valence    Rydberg      Total
 -----------------------------------------------------------------------
      P    1    0.81883      9.99850     4.15079    0.03188    14.18117
      P    2    0.80922      9.99851     4.15978    0.03249    14.19078
      N    3   -0.45387      1.99936     5.41873    0.03578     7.45387
      C    4   -0.81316      1.99929     4.77997    0.03390     6.81316
      C    5    0.19423      1.99906     3.77684    0.02987     5.80577
      C    6    0.04735      1.99923     3.92912    0.02430     5.95265
      C    7   -0.26583      1.99915     4.24677    0.01991     6.26583
      C    8   -0.15896      1.99918     4.14095    0.01882     6.15896
      C    9   -0.25277      1.99904     4.23416    0.01958     6.25277
      C   10   -0.59126      1.99943     4.58068    0.01116     6.59126
      C   11   -0.49032      1.99944     4.46857    0.02231     6.49032
      C   12   -0.59471      1.99942     4.58357    0.01171     6.59471
      C   13   -0.58958      1.99942     4.57888    0.01128     6.58958
      C   14   -0.49339      1.99943     4.47129    0.02268     6.49339
      C   15   -0.59774      1.99942     4.58558    0.01274     6.59774
      C   16   -0.59300      1.99943     4.58217    0.01141     6.59300
      C   17   -0.47855      1.99944     4.45665    0.02246     6.47855
      C   18   -0.60213      1.99942     4.59072    0.01199     6.60213
      C   19   -0.59524      1.99941     4.58429    0.01154     6.59524
      C   20   -0.48132      1.99943     4.45920    0.02269     6.48132
      C   21   -0.59613      1.99942     4.58528    0.01143     6.59613
      H   22    0.24572      0.00000     0.75065    0.00363     0.75428
      H   23    0.18899      0.00000     0.80963    0.00137     0.81101
      H   24    0.21479      0.00000     0.78399    0.00122     0.78521
      H   25    0.21214      0.00000     0.78659    0.00127     0.78786
      H   26    0.20917      0.00000     0.78922    0.00161     0.79083
      H   27    0.19474      0.00000     0.80169    0.00357     0.80526
      H   28    0.20442      0.00000     0.79393    0.00166     0.79558
      H   29    0.19453      0.00000     0.80438    0.00109     0.80547
      H   30    0.20609      0.00000     0.79215    0.00176     0.79391
      H   31    0.20541      0.00000     0.79278    0.00182     0.79459
      H   32    0.20290      0.00000     0.79545    0.00166     0.79710
      H   33    0.20293      0.00000     0.79545    0.00162     0.79707
      H   34    0.23496      0.00000     0.76289    0.00215     0.76504
      H   35    0.19546      0.00000     0.80306    0.00148     0.80454
      H   36    0.21376      0.00000     0.78495    0.00128     0.78624
      H   37    0.19908      0.00000     0.79930    0.00162     0.80092
      H   38    0.20042      0.00000     0.79775    0.00183     0.79958
      H   39    0.20416      0.00000     0.79420    0.00164     0.79584
      H   40    0.19431      0.00000     0.80418    0.00151     0.80569
      H   41    0.21373      0.00000     0.78444    0.00183     0.78627
      H   42    0.20467      0.00000     0.79370    0.00163     0.79533
      H   43    0.21531      0.00000     0.78326    0.00143     0.78469
      H   44    0.18818      0.00000     0.81048    0.00134     0.81182
      H   45    0.19761      0.00000     0.80103    0.00137     0.80239
      H   46    0.20327      0.00000     0.79532    0.00141     0.79673
      H   47    0.19636      0.00000     0.80164    0.00200     0.80364
      H   48    0.20777      0.00000     0.78868    0.00355     0.79223
      H   49    0.19799      0.00000     0.80040    0.00162     0.80201
      H   50    0.21882      0.00000     0.77991    0.00127     0.78118
      H   51    0.20109      0.00000     0.79721    0.00170     0.79891
      H   52    0.20306      0.00000     0.79504    0.00189     0.79694
      H   53    0.20103      0.00000     0.79765    0.00132     0.79897
      H   54    0.20550      0.00000     0.79289    0.00160     0.79450
 =======================================================================
   * Total *   -0.00000     57.98444   119.52786    0.48770   178.00000

 Normal termination of Gaussian 16 at Fri Jan 24 04:50:05 2025.
