 Gaussian 16, Revision B.01,
 Gaussian 16:  ES64L-G16RevB.01 20-Dec-2017

 --------------------------------------------
 # nmr=giao b3lyp/def2TZVP pop=nbo scfcyc=200
 --------------------------------------------

 --------------
 MS-52 SPE NoRh
 --------------
 Symbolic Z-matrix:
 Charge =  0 Multiplicity = 1

                         Standard orientation:
 ---------------------------------------------------------------------
 Center     Atomic      Atomic             Coordinates (Angstroms)
 Number     Number       Type             X           Y           Z
 ---------------------------------------------------------------------
      1         15           0       -3.067313    0.978176    0.375689
      2          6           0       -1.294016    0.717134   -0.183980
      3          6           0       -3.410736    2.242172   -0.963039
      4          1           0       -4.451347    2.186894   -1.281961
      5          1           0       -3.226744    3.236303   -0.557158
      6          6           0       -2.415359    1.892802   -2.076940
      7          1           0       -2.351714    2.699068   -2.810017
      8          1           0       -2.753737    1.001919   -2.610371
      9          6           0       -1.038398    1.605605   -1.430252
     10          6           0       -0.341717    2.875748   -0.963170
     11          6           0       -0.045374    3.943637   -1.810375
     12          1           0       -0.268887    3.880058   -2.868568
     13          6           0        0.542176    5.095442   -1.301505
     14          1           0        0.771763    5.919206   -1.965655
     15          6           0        0.830536    5.201330    0.059776
     16          1           0        1.275626    6.107562    0.450204
     17          6           0        0.550791    4.141835    0.909631
     18          1           0        0.780440    4.225242    1.964328
     19          6           0       -0.012480    2.972528    0.392441
     20          6           0       -4.109630   -0.469939   -0.078584
     21          6           0       -5.461064   -0.439286    0.286320
     22          1           0       -5.864303    0.408690    0.828754
     23          6           0       -6.306304   -1.488636   -0.054226
     24          1           0       -7.350836   -1.451250    0.228971
     25          6           0       -5.808960   -2.585288   -0.752642
     26          1           0       -6.466549   -3.404666   -1.013662
     27          6           0       -4.467561   -2.624887   -1.114665
     28          1           0       -4.077253   -3.473365   -1.662048
     29          6           0       -3.619888   -1.573018   -0.780731
     30          1           0       -2.580048   -1.622068   -1.077961
     31          1           0       -0.400103    1.084083   -2.148045
     32          1           0       -1.005492   -0.322813   -0.303730
     33         15           0       -0.528243    1.493937    1.339066
     34          6           0        1.511565   -0.386292    1.146128
     35          6           0        2.587299    0.021722    0.324005
     36          6           0        1.086436   -1.746765    1.139210
     37          6           0        2.939031   -0.833653   -0.728015
     38          6           0        1.530994   -2.550440    0.089926
     39          6           0        2.389602   -2.094002   -0.910066
     40          1           0        3.707202   -0.502878   -1.412668
     41          1           0        1.198648   -3.572960    0.048704
     42          6           0        0.287285   -2.407938    2.302042
     43          6           0        3.540202    1.230787    0.554514
     44          6           0        2.800183   -2.955883   -2.116809
     45          6           0        1.026916   -2.158147    3.639805
     46          1           0        1.086956   -1.107784    3.932289
     47          1           0        0.514319   -2.680709    4.450368
     48          1           0        2.049288   -2.536266    3.589733
     49          6           0       -1.178401   -1.938813    2.406956
     50          1           0       -1.681016   -2.492913    3.204338
     51          1           0       -1.290467   -0.880008    2.637521
     52          1           0       -1.719422   -2.145386    1.481719
     53          6           0        0.225442   -3.943233    2.145944
     54          1           0       -0.348268   -4.248094    1.269224
     55          1           0        1.217549   -4.391160    2.085060
     56          1           0       -0.273138   -4.366590    3.019718
     57          6           0        4.316171   -3.242796   -2.059709
     58          1           0        4.615682   -3.861239   -2.908823
     59          1           0        4.906509   -2.326074   -2.095127
     60          1           0        4.580258   -3.776294   -1.143881
     61          6           0        2.474779   -2.194403   -3.419266
     62          1           0        3.002519   -1.241298   -3.477463
     63          1           0        2.768417   -2.789031   -4.287780
     64          1           0        1.404157   -1.990951   -3.498546
     65          6           0        2.059829   -4.302957   -2.153243
     66          1           0        2.297510   -4.926278   -1.288607
     67          1           0        0.975101   -4.171804   -2.194789
     68          1           0        2.356844   -4.858318   -3.044266
     69          6           0        3.331398    1.994007    1.874422
     70          1           0        2.403028    2.549616    1.903302
     71          1           0        3.352217    1.322085    2.733604
     72          1           0        4.150599    2.706603    1.993934
     73          6           0        3.482868    2.223373   -0.623276
     74          1           0        2.496715    2.675053   -0.720570
     75          1           0        4.206552    3.027692   -0.470393
     76          1           0        3.725693    1.738501   -1.570591
     77          6           0        4.982700    0.659740    0.641765
     78          1           0        5.065306   -0.073380    1.445928
     79          1           0        5.306271    0.183293   -0.281404
     80          1           0        5.680867    1.472701    0.852364
     81          7           0        0.801643    0.588342    1.943648
     82          1           0        0.617234    0.300007    2.892809
 ---------------------------------------------------------------------

 SCF Done:  E(RB3LYP) =  -2060.71665658     A.U. after   14 cycles

      1  P    Isotropic =   220.2484   Anisotropy =   133.3550

      2  C    Isotropic =   145.7599   Anisotropy =    44.7318

      3  C    Isotropic =   150.3253   Anisotropy =    30.8864

      4  H    Isotropic =    30.7269   Anisotropy =    10.4583

      5  H    Isotropic =    30.8364   Anisotropy =     7.8431

      6  C    Isotropic =   143.5776   Anisotropy =    39.2425

      7  H    Isotropic =    29.7918   Anisotropy =    11.4921

      8  H    Isotropic =    30.0904   Anisotropy =     7.4000

      9  C    Isotropic =   123.1673   Anisotropy =    35.5243

     10  C    Isotropic =    25.2990   Anisotropy =   179.4081

     11  C    Isotropic =    52.6559   Anisotropy =   173.8501

     12  H    Isotropic =    24.7149   Anisotropy =     8.9557

     13  C    Isotropic =    48.7377   Anisotropy =   185.7793

     14  H    Isotropic =    24.4054   Anisotropy =     4.1288

     15  C    Isotropic =    51.2160   Anisotropy =   182.5711

     16  H    Isotropic =    24.3595   Anisotropy =     4.3891

     17  C    Isotropic =    45.7535   Anisotropy =   190.6395

     18  H    Isotropic =    23.8147   Anisotropy =     7.9094

     19  C    Isotropic =    31.9798   Anisotropy =   175.9951

     20  C    Isotropic =    32.3081   Anisotropy =   208.2366

     21  C    Isotropic =    47.0655   Anisotropy =   182.3887

     22  H    Isotropic =    24.2863   Anisotropy =    10.4701

     23  C    Isotropic =    49.3383   Anisotropy =   184.1702

     24  H    Isotropic =    24.3232   Anisotropy =     4.9744

     25  C    Isotropic =    51.8811   Anisotropy =   182.6111

     26  H    Isotropic =    24.4924   Anisotropy =     4.6784

     27  C    Isotropic =    50.8010   Anisotropy =   181.3706

     28  H    Isotropic =    24.4282   Anisotropy =     7.6483

     29  C    Isotropic =    48.2153   Anisotropy =   182.9780

     30  H    Isotropic =    24.4243   Anisotropy =    10.2628

     31  H    Isotropic =    27.9428   Anisotropy =     4.6569

     32  H    Isotropic =    29.5710   Anisotropy =    10.9552

     33  P    Isotropic =   158.0044   Anisotropy =    57.5288

     34  C    Isotropic =    35.8698   Anisotropy =   139.4306

     35  C    Isotropic =    28.9488   Anisotropy =   187.5149

     36  C    Isotropic =    30.0136   Anisotropy =   187.2642

     37  C    Isotropic =    48.5169   Anisotropy =   176.0526

     38  C    Isotropic =    58.2186   Anisotropy =   159.2803

     39  C    Isotropic =    32.5139   Anisotropy =   191.4238

     40  H    Isotropic =    24.4487   Anisotropy =    15.2422

     41  H    Isotropic =    24.5913   Anisotropy =    15.0335

     42  C    Isotropic =   139.9432   Anisotropy =    17.3225

     43  C    Isotropic =   138.8237   Anisotropy =    18.2505

     44  C    Isotropic =   142.4852   Anisotropy =    14.5691

     45  C    Isotropic =   151.7418   Anisotropy =    48.0945

     46  H    Isotropic =    30.3202   Anisotropy =     6.0864

     47  H    Isotropic =    30.9303   Anisotropy =    10.0676

     48  H    Isotropic =    31.0724   Anisotropy =     8.2406

     49  C    Isotropic =   150.9720   Anisotropy =    40.5505

     50  H    Isotropic =    30.9704   Anisotropy =     7.5442

     51  H    Isotropic =    29.5222   Anisotropy =     6.3347

     52  H    Isotropic =    30.8072   Anisotropy =    10.9131

     53  C    Isotropic =   147.7763   Anisotropy =    39.9969

     54  H    Isotropic =    30.1891   Anisotropy =     6.7488

     55  H    Isotropic =    30.6244   Anisotropy =     8.2628

     56  H    Isotropic =    31.0593   Anisotropy =     8.3844

     57  C    Isotropic =   148.7618   Anisotropy =    47.0019

     58  H    Isotropic =    30.7726   Anisotropy =    10.0536

     59  H    Isotropic =    30.3422   Anisotropy =     6.6890

     60  H    Isotropic =    30.8125   Anisotropy =     7.7250

     61  C    Isotropic =   149.3153   Anisotropy =    44.9822

     62  H    Isotropic =    30.4125   Anisotropy =     6.2489

     63  H    Isotropic =    30.8152   Anisotropy =     9.5560

     64  H    Isotropic =    30.9006   Anisotropy =     6.5334

     65  C    Isotropic =   153.0642   Anisotropy =    36.6110

     66  H    Isotropic =    30.2207   Anisotropy =     7.2912

     67  H    Isotropic =    30.3894   Anisotropy =     7.1649

     68  H    Isotropic =    30.8451   Anisotropy =     8.8805

     69  C    Isotropic =   150.7012   Anisotropy =    25.3053

     70  H    Isotropic =    29.2928   Anisotropy =     8.3247

     71  H    Isotropic =    30.6678   Anisotropy =     6.0813

     72  H    Isotropic =    31.3885   Anisotropy =     8.2535

     73  C    Isotropic =   152.0439   Anisotropy =    42.1829

     74  H    Isotropic =    32.7123   Anisotropy =    15.7196

     75  H    Isotropic =    31.5910   Anisotropy =     7.8856

     76  H    Isotropic =    30.9695   Anisotropy =     6.2408

     77  C    Isotropic =   144.0575   Anisotropy =    52.3102

     78  H    Isotropic =    31.2815   Anisotropy =     8.0252

     79  H    Isotropic =    30.7223   Anisotropy =     7.6037

     80  H    Isotropic =    31.2432   Anisotropy =    10.0347

     81  N    Isotropic =   171.6102   Anisotropy =    58.8306

     82  H    Isotropic =    27.6703   Anisotropy =    10.1966

 The electronic state is 1-A.
 Alpha  occ. eigenvalues --  -77.05794 -77.04075 -14.31175 -10.20771 -10.19671
 Alpha  occ. eigenvalues --  -10.19120 -10.19075 -10.18749 -10.18564 -10.18261
 Alpha  occ. eigenvalues --  -10.18027 -10.18009 -10.17983 -10.17921 -10.17843
 Alpha  occ. eigenvalues --  -10.17838 -10.17781 -10.17768 -10.17767 -10.17722
 Alpha  occ. eigenvalues --  -10.17709 -10.17655 -10.17586 -10.17481 -10.17128
 Alpha  occ. eigenvalues --  -10.17088 -10.16459 -10.16041 -10.16029 -10.16024
 Alpha  occ. eigenvalues --  -10.15986 -10.15986 -10.15919 -10.15624 -10.15276
 Alpha  occ. eigenvalues --  -10.14906 -10.14375  -6.54094  -6.52686  -4.70331
 Alpha  occ. eigenvalues --   -4.70177  -4.69724  -4.68853  -4.68785  -4.68313
 Alpha  occ. eigenvalues --   -0.90812  -0.87284  -0.86004  -0.85317  -0.82868
 Alpha  occ. eigenvalues --   -0.82593  -0.81979  -0.79083  -0.76433  -0.75826
 Alpha  occ. eigenvalues --   -0.75128  -0.74869  -0.72976  -0.71961  -0.71349
 Alpha  occ. eigenvalues --   -0.69151  -0.68837  -0.68744  -0.68688  -0.68573
 Alpha  occ. eigenvalues --   -0.67954  -0.67555  -0.62892  -0.61636  -0.61148
 Alpha  occ. eigenvalues --   -0.60914  -0.60620  -0.60229  -0.57607  -0.56670
 Alpha  occ. eigenvalues --   -0.56268  -0.54188  -0.53216  -0.52151  -0.51659
 Alpha  occ. eigenvalues --   -0.51389  -0.49964  -0.48117  -0.47734  -0.47142
 Alpha  occ. eigenvalues --   -0.47032  -0.46028  -0.45703  -0.45576  -0.45322
 Alpha  occ. eigenvalues --   -0.45133  -0.44665  -0.44587  -0.44227  -0.43876
 Alpha  occ. eigenvalues --   -0.43153  -0.42961  -0.42710  -0.42516  -0.41916
 Alpha  occ. eigenvalues --   -0.41785  -0.40738  -0.40206  -0.39666  -0.39375
 Alpha  occ. eigenvalues --   -0.38761  -0.38651  -0.38372  -0.38261  -0.37715
 Alpha  occ. eigenvalues --   -0.37201  -0.37129  -0.37053  -0.36955  -0.36830
 Alpha  occ. eigenvalues --   -0.36687  -0.36371  -0.35981  -0.35759  -0.35478
 Alpha  occ. eigenvalues --   -0.35085  -0.35013  -0.34129  -0.33924  -0.33447
 Alpha  occ. eigenvalues --   -0.33413  -0.33232  -0.33010  -0.32429  -0.32096
 Alpha  occ. eigenvalues --   -0.32014  -0.31802  -0.30760  -0.30395  -0.27342
 Alpha  occ. eigenvalues --   -0.26750  -0.26102  -0.25732  -0.25603  -0.23584
 Alpha  occ. eigenvalues --   -0.22863  -0.21934  -0.18603
 Alpha virt. eigenvalues --   -0.03645  -0.02509  -0.01970  -0.01800  -0.01217
 Alpha virt. eigenvalues --   -0.00444   0.01030   0.02571   0.03100   0.03525
 Alpha virt. eigenvalues --    0.03909   0.04336   0.04871   0.05243   0.05398

 Mulliken charges:
               1
     1  P    0.088407
     2  C   -0.136187
     3  C   -0.288553
     4  H    0.117804
     5  H    0.128404
     6  C   -0.158827
     7  H    0.091432
     8  H    0.102935
     9  C    0.067527
    10  C    0.001470
    11  C   -0.223751
    12  H    0.102895
    13  C   -0.092788
    14  H    0.108070
    15  C   -0.114718
    16  H    0.108124
    17  C   -0.169481
    18  H    0.119899
    19  C   -0.009345
    20  C    0.132216
    21  C   -0.198324
    22  H    0.105237
    23  C   -0.101682
    24  H    0.108925
    25  C   -0.108334
    26  H    0.108380
    27  C   -0.123046
    28  H    0.105529
    29  C   -0.218769
    30  H    0.129553
    31  H    0.080703
    32  H    0.113573
    33  P    0.143953
    34  C    0.041809
    35  C    0.051308
    36  C    0.142485
    37  C   -0.315382
    38  C   -0.248897
    39  C    0.162582
    40  H    0.109973
    41  H    0.136722
    42  C    0.012823
    43  C    0.078164
    44  C    0.055066
    45  C   -0.340298
    46  H    0.096391
    47  H    0.110858
    48  H    0.119437
    49  C   -0.364583
    50  H    0.108707
    51  H    0.123094
    52  H    0.121357
    53  C   -0.377420
    54  H    0.114486
    55  H    0.123607
    56  H    0.116493
    57  C   -0.342751
    58  H    0.104536
    59  H    0.106103
    60  H    0.111035
    61  C   -0.348226
    62  H    0.110137
    63  H    0.105723
    64  H    0.105981
    65  C   -0.377330
    66  H    0.114240
    67  H    0.115077
    68  H    0.114542
    69  C   -0.294863
    70  H    0.091093
    71  H    0.091927
    72  H    0.096341
    73  C   -0.368544
    74  H    0.157795
    75  H    0.095766
    76  H    0.097056
    77  C   -0.340470
    78  H    0.110628
    79  H    0.102273
    80  H    0.105441
    81  N   -0.354585
    82  H    0.191063
 Sum of Mulliken charges =  -0.00000

 Dipole moment (field-independent basis, Debye):
    X=              0.2931    Y=             -0.9182    Z=             -1.7744  Tot=              2.0193
 Quadrupole moment (field-independent basis, Debye-Ang):
   XX=           -240.8538   YY=           -232.4997   ZZ=           -239.6877
   XY=              4.4541   XZ=              3.3796   YZ=             -3.5111

 Summary of Natural Population Analysis:

                                       Natural Population
                Natural  -----------------------------------------------
    Atom  No    Charge         Core      Valence    Rydberg      Total
 -----------------------------------------------------------------------
      P    1    0.80052      9.99844     4.16841    0.03263    14.19948
      C    2   -0.80504      1.99948     4.77067    0.03488     6.80504
      C    3   -0.67601      1.99943     4.65544    0.02114     6.67601
      H    4    0.23307      0.00000     0.76546    0.00147     0.76693
      H    5    0.22352      0.00000     0.77517    0.00131     0.77648
      C    6   -0.38477      1.99941     4.37021    0.01515     6.38477
      H    7    0.20624      0.00000     0.79194    0.00182     0.79376
      H    8    0.20514      0.00000     0.79329    0.00158     0.79486
      C    9   -0.25123      1.99932     4.23157    0.02034     6.25123
      C   10   -0.00222      1.99899     3.98051    0.02272     6.00222
      C   11   -0.21190      1.99905     4.19365    0.01919     6.21190
      H   12    0.20503      0.00000     0.79288    0.00210     0.79497
      C   13   -0.19185      1.99920     4.17419    0.01846     6.19185
      H   14    0.20873      0.00000     0.79009    0.00118     0.79127
      C   15   -0.20849      1.99918     4.19099    0.01832     6.20849
      H   16    0.20996      0.00000     0.78882    0.00122     0.79004
      C   17   -0.18393      1.99908     4.16472    0.02013     6.18393
      H   18    0.21220      0.00000     0.78576    0.00204     0.78780
      C   19   -0.36589      1.99892     4.33339    0.03358     6.36589
      C   20   -0.32215      1.99900     4.29292    0.03023     6.32215
      C   21   -0.20295      1.99910     4.18309    0.02076     6.20295
      H   22    0.21214      0.00000     0.78608    0.00178     0.78786
      C   23   -0.19890      1.99918     4.18010    0.01961     6.19890
      H   24    0.20852      0.00000     0.79017    0.00132     0.79148
      C   25   -0.21109      1.99919     4.19237    0.01954     6.21109
      H   26    0.20781      0.00000     0.79097    0.00122     0.79219
      C   27   -0.20000      1.99918     4.18157    0.01925     6.20000
      H   28    0.20628      0.00000     0.79232    0.00140     0.79372
      C   29   -0.21444      1.99907     4.19491    0.02046     6.21444
      H   30    0.20244      0.00000     0.79538    0.00218     0.79756
      H   31    0.22536      0.00000     0.77239    0.00225     0.77464
      H   32    0.26323      0.00000     0.73425    0.00252     0.73677
      P   33    1.01051      9.99807     3.94884    0.04258    13.98949
      C   34    0.12902      1.99878     3.84919    0.02300     5.87098
      C   35   -0.01058      1.99890     3.98730    0.02438     6.01058
      C   36   -0.01940      1.99891     3.99819    0.02230     6.01940
      C   37   -0.20713      1.99898     4.19232    0.01583     6.20713
      C   38   -0.22995      1.99899     4.21471    0.01624     6.22995
      C   39   -0.01130      1.99898     3.98974    0.02257     6.01130
      H   40    0.19648      0.00000     0.80051    0.00301     0.80352
      H   41    0.20880      0.00000     0.78839    0.00281     0.79120
      C   42   -0.05452      1.99939     4.03903    0.01610     6.05452
      C   43   -0.04739      1.99939     4.03104    0.01695     6.04739
      C   44   -0.05547      1.99939     4.04058    0.01550     6.05547
      C   45   -0.57823      1.99937     4.56661    0.01224     6.57823
      H   46    0.18532      0.00000     0.81361    0.00107     0.81468
      H   47    0.20372      0.00000     0.79504    0.00123     0.79628
      H   48    0.20883      0.00000     0.79004    0.00113     0.79117
      C   49   -0.59154      1.99936     4.57905    0.01314     6.59154
      H   50    0.20291      0.00000     0.79581    0.00128     0.79709
      H   51    0.21030      0.00000     0.78828    0.00142     0.78970
      H   52    0.20581      0.00000     0.79208    0.00211     0.79419
      C   53   -0.58959      1.99940     4.57756    0.01264     6.58959
      H   54    0.20316      0.00000     0.79573    0.00111     0.79684
      H   55    0.20554      0.00000     0.79327    0.00119     0.79446
      H   56    0.20619      0.00000     0.79257    0.00123     0.79381
      C   57   -0.58028      1.99939     4.56888    0.01201     6.58028
      H   58    0.19859      0.00000     0.80016    0.00125     0.80141
      H   59    0.20124      0.00000     0.79777    0.00099     0.79876
      H   60    0.20517      0.00000     0.79374    0.00109     0.79483
      C   61   -0.58001      1.99939     4.56876    0.01187     6.58001
      H   62    0.20276      0.00000     0.79630    0.00094     0.79724
      H   63    0.19889      0.00000     0.79986    0.00126     0.80111
      H   64    0.20308      0.00000     0.79581    0.00111     0.79692
      C   65   -0.59060      1.99940     4.57896    0.01224     6.59060
      H   66    0.20327      0.00000     0.79557    0.00116     0.79673
      H   67    0.20382      0.00000     0.79501    0.00117     0.79618
      H   68    0.20503      0.00000     0.79377    0.00120     0.79497
      C   69   -0.58012      1.99938     4.56795    0.01280     6.58012
      H   70    0.21571      0.00000     0.78299    0.00130     0.78429
      H   71    0.20147      0.00000     0.79740    0.00113     0.79853
      H   72    0.19327      0.00000     0.80545    0.00129     0.80673
      C   73   -0.58457      1.99937     4.57233    0.01287     6.58457
      H   74    0.21505      0.00000     0.78343    0.00153     0.78495
      H   75    0.19853      0.00000     0.80015    0.00132     0.80147
      H   76    0.19568      0.00000     0.80333    0.00098     0.80432
      C   77   -0.57776      1.99939     4.56639    0.01198     6.57776
      H   78    0.20445      0.00000     0.79436    0.00120     0.79555
      H   79    0.19754      0.00000     0.80138    0.00108     0.80246
      H   80    0.19939      0.00000     0.79932    0.00129     0.80061
      N   81   -0.92213      1.99952     5.89060    0.03201     7.92213
      H   82    0.39170      0.00000     0.60490    0.00341     0.60830
 =======================================================================
   * Total *   -0.00000     89.96896   195.21776    0.81328   286.00000

 Normal termination of Gaussian 16 at Fri Jan 24 18:57:31 2025.
