 Gaussian 16, Revision B.01,
 Gaussian 16:  ES64L-G16RevB.01 20-Dec-2017

 --------------------------------------------
 # nmr=giao b3lyp/def2TZVP pop=nbo scfcyc=200
 --------------------------------------------

 -------------
 MS-6 SPE NoRh
 -------------
 Symbolic Z-matrix:
 Charge =  0 Multiplicity = 1

                         Standard orientation:
 ---------------------------------------------------------------------
 Center     Atomic      Atomic             Coordinates (Angstroms)
 Number     Number       Type             X           Y           Z
 ---------------------------------------------------------------------
      1         15           0       -1.575469    0.188866   -0.492090
      2         15           0        1.096659    1.050616   -0.766508
      3          6           0        2.305943    2.436537   -0.181751
      4          6           0        1.570074    3.744496    0.125397
      5          6           0        3.048157    1.943347    1.066455
      6          6           0        3.300669    2.660439   -1.332522
      7          6           0        0.067746   -0.002391    0.463890
      8          6           0       -2.544816   -1.492222   -0.591222
      9          6           0        1.990262   -0.251740   -1.554621
     10          6           0       -2.703460   -2.222335    0.754633
     11          6           0       -1.807192   -2.422299   -1.576100
     12          6           0       -2.579645    1.485371    0.549110
     13          6           0       -3.709226    2.095328   -0.299544
     14          6           0       -3.159653    0.894913    1.842638
     15          6           0       -1.633564    2.635940    0.920706
     16          6           0       -3.945864   -1.214847   -1.169195
     17          1           0        0.975944    4.091018   -0.720285
     18          1           0       -4.425206    1.363837   -0.666525
     19          1           0       -3.309706    2.648350   -1.149871
     20          1           0       -0.030773    0.362063    1.484545
     21          1           0        0.922832    3.663707    0.997236
     22          1           0        3.647293    1.056004    0.859726
     23          1           0        3.842756    1.753412   -1.591163
     24          1           0       -1.760704   -2.365464    1.281322
     25          1           0       -0.902421   -2.848745   -1.151103
     26          1           0       -2.413594    0.364113    2.436932
     27          1           0       -4.433126   -2.173337   -1.365405
     28          1           0       -3.912948   -0.668647   -2.113218
     29          1           0        2.314781    4.514538    0.345172
     30          1           0        2.370705    1.724080    1.894611
     31          1           0       -3.388685   -1.716135    1.428397
     32          1           0       -3.542154    1.713321    2.458480
     33          1           0       -4.582709   -0.670507   -0.474507
     34          1           0        3.728688    2.730555    1.403088
     35          1           0       -3.117013   -3.215972    0.559208
     36          1           0       -3.994227    0.221311    1.655485
     37          1           0       -2.218213    3.422084    1.406858
     38          1           0       -0.857994    2.336317    1.624412
     39          1           0       -1.165762    3.074377    0.039444
     40          1           0        2.813553    3.034330   -2.233023
     41          1           0        4.019856    3.420149   -1.013399
     42          1           0       -2.467029   -3.257408   -1.823519
     43          1           0       -1.538896   -1.920690   -2.504880
     44          1           0       -4.261865    2.805805    0.320533
     45          6           0        1.619008   -1.530291   -0.893480
     46          1           0        1.051291   -2.113483   -1.630172
     47          6           0        0.779959   -1.378980    0.437707
     48          1           0        0.034398   -2.170644    0.467589
     49          6           0        2.675301   -3.502132    0.304412
     50          1           0        3.562266   -4.135512    0.365509
     51          1           0        1.879584   -4.133434   -0.102447
     52          6           0        2.286285   -2.990705    1.709825
     53          1           0        3.164622   -2.974127    2.358169
     54          1           0        1.580406   -3.685365    2.170911
     55          6           0        1.676480   -1.577969    1.671055
     56          1           0        2.473523   -0.830375    1.665839
     57          1           0        1.099580   -1.399188    2.582666
     58          6           0        2.933079   -2.346802   -0.663240
     59          1           0        3.291746   -2.699217   -1.629463
     60          1           0        3.714111   -1.695291   -0.263085
 ---------------------------------------------------------------------

 SCF Done:  E(RB3LYP) =  -1467.91636780     A.U. after   19 cycles

      1  P    Isotropic =   180.1509   Anisotropy =   122.7187

      2  P    Isotropic =    39.9658   Anisotropy =   483.2659

      3  C    Isotropic =   121.3898   Anisotropy =    44.2788

      4  C    Isotropic =   149.3193   Anisotropy =    38.6788

      5  C    Isotropic =   144.8930   Anisotropy =    45.9086

      6  C    Isotropic =   148.6005   Anisotropy =    45.6272

      7  C    Isotropic =   125.9117   Anisotropy =    49.9973

      8  C    Isotropic =   140.3469   Anisotropy =    20.2413

      9  C    Isotropic =  -435.3448   Anisotropy =   875.2977

     10  C    Isotropic =   155.2099   Anisotropy =    37.3964

     11  C    Isotropic =   147.7896   Anisotropy =    44.2887

     12  C    Isotropic =   138.5738   Anisotropy =    23.0536

     13  C    Isotropic =   150.8808   Anisotropy =    46.0977

     14  C    Isotropic =   153.0582   Anisotropy =    33.4946

     15  C    Isotropic =   147.3641   Anisotropy =    42.7881

     16  C    Isotropic =   150.4017   Anisotropy =    40.4011

     17  H    Isotropic =    30.0814   Anisotropy =     6.1651

     18  H    Isotropic =    30.4116   Anisotropy =     6.9925

     19  H    Isotropic =    30.7368   Anisotropy =     8.0957

     20  H    Isotropic =    29.3846   Anisotropy =     5.3723

     21  H    Isotropic =    30.3735   Anisotropy =     7.0127

     22  H    Isotropic =    31.1741   Anisotropy =     7.4811

     23  H    Isotropic =    28.9524   Anisotropy =     9.5946

     24  H    Isotropic =    30.2953   Anisotropy =     5.8959

     25  H    Isotropic =    30.6175   Anisotropy =     8.7004

     26  H    Isotropic =    30.4071   Anisotropy =     4.6329

     27  H    Isotropic =    31.2586   Anisotropy =     9.2362

     28  H    Isotropic =    30.7164   Anisotropy =     7.7174

     29  H    Isotropic =    30.8727   Anisotropy =     7.9942

     30  H    Isotropic =    30.4395   Anisotropy =     4.0894

     31  H    Isotropic =    30.3702   Anisotropy =     6.0194

     32  H    Isotropic =    31.1317   Anisotropy =     9.2130

     33  H    Isotropic =    30.7621   Anisotropy =     7.0227

     34  H    Isotropic =    30.8448   Anisotropy =     9.0638

     35  H    Isotropic =    31.0469   Anisotropy =     9.4008

     36  H    Isotropic =    30.3873   Anisotropy =     6.5294

     37  H    Isotropic =    31.2135   Anisotropy =     7.5355

     38  H    Isotropic =    30.8048   Anisotropy =     6.2858

     39  H    Isotropic =    30.6344   Anisotropy =    10.6920

     40  H    Isotropic =    29.1454   Anisotropy =     7.4903

     41  H    Isotropic =    30.8023   Anisotropy =     8.8139

     42  H    Isotropic =    31.3761   Anisotropy =     8.8909

     43  H    Isotropic =    30.8805   Anisotropy =     6.3008

     44  H    Isotropic =    31.2947   Anisotropy =     9.4794

     45  C    Isotropic =    97.7674   Anisotropy =    28.8279

     46  H    Isotropic =    25.5568   Anisotropy =     8.3224

     47  C    Isotropic =   128.8571   Anisotropy =    37.6775

     48  H    Isotropic =    29.2453   Anisotropy =     8.2466

     49  C    Isotropic =   157.3153   Anisotropy =    10.5216

     50  H    Isotropic =    29.9634   Anisotropy =    10.6795

     51  H    Isotropic =    29.9034   Anisotropy =     6.7699

     52  C    Isotropic =   159.7454   Anisotropy =    10.6189

     53  H    Isotropic =    30.3672   Anisotropy =    10.4312

     54  H    Isotropic =    30.2123   Anisotropy =     8.1452

     55  C    Isotropic =   151.5454   Anisotropy =    29.1096

     56  H    Isotropic =    30.6438   Anisotropy =     7.0940

     57  H    Isotropic =    30.7384   Anisotropy =     6.1962

     58  C    Isotropic =   155.3358   Anisotropy =    19.4109

     59  H    Isotropic =    28.7710   Anisotropy =    11.5075

     60  H    Isotropic =    30.5024   Anisotropy =     8.7991

 The electronic state is 1-A.
 Alpha  occ. eigenvalues --  -77.04936 -77.03981 -10.21467 -10.19659 -10.19473
 Alpha  occ. eigenvalues --  -10.19093 -10.17897 -10.17335 -10.17108 -10.16962
 Alpha  occ. eigenvalues --  -10.16685 -10.16678 -10.16610 -10.16543 -10.16462
 Alpha  occ. eigenvalues --  -10.16427 -10.16393 -10.16377 -10.16157 -10.16075
 Alpha  occ. eigenvalues --  -10.16036 -10.16014  -6.53559  -6.52455  -4.69709
 Alpha  occ. eigenvalues --   -4.69541  -4.69377  -4.68618  -4.68552  -4.68091
 Alpha  occ. eigenvalues --   -0.84602  -0.82317  -0.82163  -0.80733  -0.77546
 Alpha  occ. eigenvalues --   -0.75426  -0.70121  -0.69770  -0.69646  -0.69288
 Alpha  occ. eigenvalues --   -0.69102  -0.68655  -0.68574  -0.66742  -0.61878
 Alpha  occ. eigenvalues --   -0.61310  -0.57804  -0.56003  -0.55185  -0.52318
 Alpha  occ. eigenvalues --   -0.51504  -0.49608  -0.48974  -0.47097  -0.46597
 Alpha  occ. eigenvalues --   -0.45721  -0.45373  -0.45060  -0.44833  -0.44537
 Alpha  occ. eigenvalues --   -0.43810  -0.43267  -0.42690  -0.42301  -0.40407
 Alpha  occ. eigenvalues --   -0.40216  -0.39822  -0.39256  -0.39128  -0.38871
 Alpha  occ. eigenvalues --   -0.38533  -0.38360  -0.37846  -0.37541  -0.37321
 Alpha  occ. eigenvalues --   -0.36911  -0.36634  -0.36217  -0.35859  -0.34907
 Alpha  occ. eigenvalues --   -0.34608  -0.34394  -0.34349  -0.33591  -0.33009
 Alpha  occ. eigenvalues --   -0.32333  -0.31320  -0.30943  -0.29943  -0.28538
 Alpha  occ. eigenvalues --   -0.27931  -0.22946  -0.19444  -0.18631
 Alpha virt. eigenvalues --   -0.07570   0.01233   0.02611   0.03113   0.03361
 Alpha virt. eigenvalues --    0.03722   0.04570   0.04852   0.05350   0.05688
 Alpha virt. eigenvalues --    0.06497   0.06704   0.06941   0.07517   0.07789

 Mulliken charges:
               1
     1  P    0.066477
     2  P    0.152980
     3  C    0.101734
     4  C   -0.379274
     5  C   -0.377029
     6  C   -0.339259
     7  C   -0.118284
     8  C    0.117549
     9  C   -0.364716
    10  C   -0.363217
    11  C   -0.386248
    12  C    0.100077
    13  C   -0.359114
    14  C   -0.371569
    15  C   -0.417513
    16  C   -0.393985
    17  H    0.125925
    18  H    0.118698
    19  H    0.118915
    20  H    0.095244
    21  H    0.128773
    22  H    0.125571
    23  H    0.141933
    24  H    0.121068
    25  H    0.114878
    26  H    0.118675
    27  H    0.110391
    28  H    0.131785
    29  H    0.113492
    30  H    0.118513
    31  H    0.110633
    32  H    0.104341
    33  H    0.106769
    34  H    0.108417
    35  H    0.100301
    36  H    0.107074
    37  H    0.111888
    38  H    0.107710
    39  H    0.143507
    40  H    0.117208
    41  H    0.100837
    42  H    0.107684
    43  H    0.132475
    44  H    0.103877
    45  C   -0.023793
    46  H    0.081716
    47  C    0.009158
    48  H    0.039967
    49  C   -0.150821
    50  H    0.096203
    51  H    0.078846
    52  C   -0.176623
    53  H    0.090202
    54  H    0.088273
    55  C   -0.288160
    56  H    0.109109
    57  H    0.093160
    58  C   -0.146111
    59  H    0.106142
    60  H    0.077540
 Sum of Mulliken charges =  -0.00000

 Dipole moment (field-independent basis, Debye):
    X=             -1.1023    Y=              0.3700    Z=              3.3456  Tot=              3.5419
 Quadrupole moment (field-independent basis, Debye-Ang):
   XX=           -157.1248   YY=           -151.3314   ZZ=           -166.9139
   XY=              2.5336   XZ=              5.6655   YZ=              2.3206

 Summary of Natural Population Analysis:

                                       Natural Population
                Natural  -----------------------------------------------
    Atom  No    Charge         Core      Valence    Rydberg      Total
 -----------------------------------------------------------------------
      P    1    0.77275      9.99833     4.19983    0.02908    14.22725
      P    2    0.85430      9.99781     4.11017    0.03772    14.14570
      C    3   -0.21539      1.99940     4.19028    0.02571     6.21539
      C    4   -0.60520      1.99936     4.59361    0.01223     6.60520
      C    5   -0.60607      1.99936     4.59445    0.01226     6.60607
      C    6   -0.60676      1.99936     4.59463    0.01277     6.60676
      C    7   -0.77411      1.99937     4.74260    0.03214     6.77411
      C    8   -0.26840      1.99944     4.24459    0.02437     6.26840
      C    9   -0.34419      1.99940     4.30623    0.03856     6.34419
      C   10   -0.60569      1.99936     4.59395    0.01239     6.60569
      C   11   -0.60356      1.99936     4.59176    0.01245     6.60356
      C   12   -0.26032      1.99944     4.23553    0.02535     6.26032
      C   13   -0.60098      1.99937     4.58928    0.01234     6.60098
      C   14   -0.60527      1.99936     4.59342    0.01249     6.60527
      C   15   -0.60609      1.99937     4.59381    0.01291     6.60609
      C   16   -0.60153      1.99937     4.59015    0.01202     6.60153
      H   17    0.21203      0.00000     0.78663    0.00134     0.78797
      H   18    0.20711      0.00000     0.79162    0.00127     0.79289
      H   19    0.21231      0.00000     0.78629    0.00140     0.78769
      H   20    0.22768      0.00000     0.76882    0.00350     0.77232
      H   21    0.20652      0.00000     0.79221    0.00127     0.79348
      H   22    0.21241      0.00000     0.78624    0.00135     0.78759
      H   23    0.23444      0.00000     0.76417    0.00139     0.76556
      H   24    0.19967      0.00000     0.79907    0.00126     0.80033
      H   25    0.20089      0.00000     0.79773    0.00138     0.79911
      H   26    0.20173      0.00000     0.79684    0.00143     0.79827
      H   27    0.20322      0.00000     0.79464    0.00214     0.79678
      H   28    0.21415      0.00000     0.78434    0.00151     0.78585
      H   29    0.20557      0.00000     0.79242    0.00201     0.79443
      H   30    0.20356      0.00000     0.79508    0.00136     0.79644
      H   31    0.20440      0.00000     0.79427    0.00133     0.79560
      H   32    0.19732      0.00000     0.80036    0.00232     0.80268
      H   33    0.19858      0.00000     0.79991    0.00151     0.80142
      H   34    0.20354      0.00000     0.79437    0.00209     0.79646
      H   35    0.19621      0.00000     0.80152    0.00227     0.80379
      H   36    0.20028      0.00000     0.79819    0.00153     0.79972
      H   37    0.20579      0.00000     0.79205    0.00217     0.79421
      H   38    0.19791      0.00000     0.80054    0.00155     0.80209
      H   39    0.21450      0.00000     0.78394    0.00156     0.78550
      H   40    0.21358      0.00000     0.78517    0.00124     0.78642
      H   41    0.19974      0.00000     0.79835    0.00191     0.80026
      H   42    0.20172      0.00000     0.79621    0.00207     0.79828
      H   43    0.21818      0.00000     0.78043    0.00138     0.78182
      H   44    0.19862      0.00000     0.79935    0.00203     0.80138
      C   45   -0.37915      1.99932     4.35785    0.02198     6.37915
      H   46    0.24006      0.00000     0.75699    0.00295     0.75994
      C   47   -0.24360      1.99934     4.22234    0.02192     6.24360
      H   48    0.20193      0.00000     0.79457    0.00350     0.79807
      C   49   -0.39213      1.99942     4.38000    0.01271     6.39213
      H   50    0.20621      0.00000     0.79248    0.00131     0.79379
      H   51    0.18880      0.00000     0.80966    0.00154     0.81120
      C   52   -0.38535      1.99943     4.37313    0.01279     6.38535
      H   53    0.19884      0.00000     0.79976    0.00140     0.80116
      H   54    0.19548      0.00000     0.80312    0.00140     0.80452
      C   55   -0.38742      1.99938     4.37422    0.01382     6.38742
      H   56    0.19295      0.00000     0.80516    0.00189     0.80705
      H   57    0.19765      0.00000     0.80073    0.00162     0.80235
      C   58   -0.35713      1.99936     4.34083    0.01694     6.35713
      H   59    0.21806      0.00000     0.78056    0.00137     0.78194
      H   60    0.18965      0.00000     0.80820    0.00216     0.81035
 =======================================================================
   * Total *    0.00000     59.98370   127.52464    0.49166   188.00000

 Normal termination of Gaussian 16 at Fri Jan 24 05:01:47 2025.
