 Gaussian 16, Revision B.01,
 Gaussian 16:  ES64L-G16RevB.01 20-Dec-2017

 --------------------------------------------
 # nmr=giao b3lyp/def2TZVP pop=nbo scfcyc=200
 --------------------------------------------

 --------------
 MS-60 SPE NoRh
 --------------
 Symbolic Z-matrix:
 Charge =  0 Multiplicity = 1

                         Standard orientation:
 ---------------------------------------------------------------------
 Center     Atomic      Atomic             Coordinates (Angstroms)
 Number     Number       Type             X           Y           Z
 ---------------------------------------------------------------------
      1         15           0        1.006188    2.042611    0.744956
      2         15           0        2.575976   -0.275020    0.779599
      3          6           0        0.835975    2.881882   -0.886480
      4          6           0        1.979040    3.284867   -1.581205
      5          1           0        2.956384    3.117330   -1.143706
      6          6           0        1.867135    3.902169   -2.823820
      7          1           0        2.758948    4.216841   -3.350907
      8          6           0        0.611595    4.125308   -3.378981
      9          1           0        0.523208    4.612570   -4.341750
     10          6           0       -0.533100    3.730499   -2.690850
     11          1           0       -1.511400    3.910557   -3.117894
     12          6           0       -0.424772    3.112993   -1.451091
     13          1           0       -1.322257    2.830316   -0.915686
     14          6           0       -0.369878    2.724136    1.764298
     15          6           0       -0.460482    4.118238    1.872714
     16          1           0        0.197339    4.757743    1.295508
     17          6           0       -1.410451    4.697808    2.703522
     18          1           0       -1.475140    5.776329    2.773319
     19          6           0       -2.274269    3.894148    3.442617
     20          1           0       -3.015060    4.345347    4.090289
     21          6           0       -2.187627    2.510947    3.338384
     22          1           0       -2.864343    1.880062    3.901530
     23          6           0       -1.237972    1.922223    2.507222
     24          1           0       -1.214960    0.844115    2.424129
     25          6           0        0.766016    0.186108    0.472948
     26          1           0        0.293553   -0.166283    1.395080
     27          6           0       -0.041207   -0.392177   -0.686202
     28          1           0       -0.104826    0.304428   -1.524108
     29          1           0        0.455489   -1.287341   -1.072781
     30          6           0        3.403204   -0.801931   -0.779931
     31          6           0        3.060274   -0.249625   -2.018433
     32          1           0        2.239206    0.448278   -2.103510
     33          6           0        3.779459   -0.582212   -3.161072
     34          1           0        3.495269   -0.153281   -4.114256
     35          6           0        4.856618   -1.457757   -3.082968
     36          1           0        5.414048   -1.716072   -3.973724
     37          6           0        5.215964   -1.998323   -1.851861
     38          1           0        6.055351   -2.679051   -1.780799
     39          6           0        4.498017   -1.672181   -0.707510
     40          1           0        4.788463   -2.108309    0.239752
     41          6           0        2.488633   -1.779479    1.837312
     42          6           0        2.259549   -3.051608    1.298586
     43          1           0        2.212595   -3.193261    0.226625
     44          6           0        2.103275   -4.146739    2.138583
     45          1           0        1.928005   -5.127511    1.713993
     46          6           0        2.168986   -3.986210    3.520024
     47          1           0        2.046506   -4.843374    4.171176
     48          6           0        2.389619   -2.725733    4.062464
     49          1           0        2.438099   -2.595985    5.135815
     50          6           0        2.548751   -1.626218    3.225225
     51          1           0        2.711588   -0.643970    3.650928
     52          6           0       -1.456054   -0.822477   -0.253726
     53          8           0       -1.772049   -0.913098    0.920048
     54          6           0       -3.604267   -1.670597   -1.166975
     55          6           0       -3.805509   -2.984353   -1.614372
     56          6           0       -4.650707   -0.894905   -0.649791
     57          6           0       -5.088623   -3.523036   -1.525372
     58          6           0       -5.916143   -1.477841   -0.567869
     59          6           0       -6.136356   -2.777529   -1.000563
     60          1           0       -5.262088   -4.537353   -1.863709
     61          1           0       -6.738214   -0.896939   -0.168287
     62          1           0       -7.127120   -3.210694   -0.933060
     63          6           0       -4.440399    0.524573   -0.198196
     64          1           0       -3.871711    0.559359    0.733143
     65          1           0       -3.885436    1.101072   -0.942445
     66          1           0       -5.396538    1.019718   -0.033469
     67          6           0       -2.670319   -3.805042   -2.171225
     68          1           0       -2.286127   -3.392620   -3.109622
     69          1           0       -1.833150   -3.859670   -1.471720
     70          1           0       -2.999839   -4.821857   -2.379758
     71          7           0       -2.288281   -1.107456   -1.290488
     72          1           0       -1.887777   -1.086932   -2.217822
 ---------------------------------------------------------------------

 SCF Done:  E(RB3LYP) =  -2166.87655244     A.U. after   15 cycles

      1  P    Isotropic =   212.1888   Anisotropy =   110.8984

      2  P    Isotropic =   207.9911   Anisotropy =   111.2881

      3  C    Isotropic =    35.4855   Anisotropy =   205.9768

      4  C    Isotropic =    38.2494   Anisotropy =   186.0228

      5  H    Isotropic =    23.5534   Anisotropy =     8.2681

      6  C    Isotropic =    49.7076   Anisotropy =   184.2929

      7  H    Isotropic =    24.1095   Anisotropy =     5.1209

      8  C    Isotropic =    48.5404   Anisotropy =   188.9511

      9  H    Isotropic =    24.1829   Anisotropy =     4.0907

     10  C    Isotropic =    49.7138   Anisotropy =   183.5435

     11  H    Isotropic =    24.3049   Anisotropy =     6.8614

     12  C    Isotropic =    38.2322   Anisotropy =   189.4261

     13  H    Isotropic =    24.1362   Anisotropy =     9.3986

     14  C    Isotropic =    33.4034   Anisotropy =   191.4439

     15  C    Isotropic =    49.3293   Anisotropy =   181.9096

     16  H    Isotropic =    24.7754   Anisotropy =    12.2304

     17  C    Isotropic =    50.2984   Anisotropy =   182.1293

     18  H    Isotropic =    24.5306   Anisotropy =     5.5205

     19  C    Isotropic =    53.3229   Anisotropy =   180.1355

     20  H    Isotropic =    24.6141   Anisotropy =     3.9826

     21  C    Isotropic =    49.9729   Anisotropy =   184.2131

     22  H    Isotropic =    24.3816   Anisotropy =     6.8262

     23  C    Isotropic =    47.5747   Anisotropy =   193.9268

     24  H    Isotropic =    23.2663   Anisotropy =     9.5877

     25  C    Isotropic =   142.7791   Anisotropy =    25.4731

     26  H    Isotropic =    27.8312   Anisotropy =     4.7325

     27  C    Isotropic =   147.4045   Anisotropy =    41.2851

     28  H    Isotropic =    29.2759   Anisotropy =     5.1211

     29  H    Isotropic =    29.0605   Anisotropy =     4.7997

     30  C    Isotropic =    34.4450   Anisotropy =   191.4613

     31  C    Isotropic =    48.5420   Anisotropy =   180.8308

     32  H    Isotropic =    24.9524   Anisotropy =     7.8092

     33  C    Isotropic =    51.0836   Anisotropy =   182.5542

     34  H    Isotropic =    24.6071   Anisotropy =     7.7831

     35  C    Isotropic =    53.5238   Anisotropy =   180.1405

     36  H    Isotropic =    24.5927   Anisotropy =     4.3034

     37  C    Isotropic =    49.4975   Anisotropy =   184.1383

     38  H    Isotropic =    24.4179   Anisotropy =     5.4685

     39  C    Isotropic =    48.1254   Anisotropy =   184.8421

     40  H    Isotropic =    24.5009   Anisotropy =    11.8979

     41  C    Isotropic =    31.9112   Anisotropy =   209.6563

     42  C    Isotropic =    44.4969   Anisotropy =   185.8419

     43  H    Isotropic =    24.1400   Anisotropy =    10.8115

     44  C    Isotropic =    49.5037   Anisotropy =   183.9477

     45  H    Isotropic =    24.4235   Anisotropy =     6.3042

     46  C    Isotropic =    48.6039   Anisotropy =   188.8069

     47  H    Isotropic =    24.2838   Anisotropy =     4.0904

     48  C    Isotropic =    49.1981   Anisotropy =   185.2599

     49  H    Isotropic =    24.1584   Anisotropy =     5.2897

     50  C    Isotropic =    41.6360   Anisotropy =   181.7235

     51  H    Isotropic =    23.6750   Anisotropy =     8.9962

     52  C    Isotropic =    10.3243   Anisotropy =   115.5419

     53  O    Isotropic =   -76.3804   Anisotropy =   650.0412

     54  C    Isotropic =    40.5241   Anisotropy =   127.3705

     55  C    Isotropic =    42.1015   Anisotropy =   180.9578

     56  C    Isotropic =    36.6348   Anisotropy =   191.0153

     57  C    Isotropic =    50.7996   Anisotropy =   152.8315

     58  C    Isotropic =    49.4202   Anisotropy =   154.5943

     59  C    Isotropic =    51.0262   Anisotropy =   179.5520

     60  H    Isotropic =    24.7136   Anisotropy =     6.9965

     61  H    Isotropic =    24.6084   Anisotropy =     7.8803

     62  H    Isotropic =    24.6034   Anisotropy =     4.3605

     63  C    Isotropic =   162.1297   Anisotropy =    34.3368

     64  H    Isotropic =    29.2977   Anisotropy =     9.3715

     65  H    Isotropic =    29.8557   Anisotropy =     5.7428

     66  H    Isotropic =    30.1330   Anisotropy =     8.4194

     67  C    Isotropic =   162.4369   Anisotropy =    28.7412

     68  H    Isotropic =    29.8911   Anisotropy =     6.6531

     69  H    Isotropic =    29.7331   Anisotropy =     7.2021

     70  H    Isotropic =    29.9407   Anisotropy =     8.9318

     71  N    Isotropic =   117.8608   Anisotropy =   113.9688

     72  H    Isotropic =    26.1297   Anisotropy =     7.2258

 The electronic state is 1-A.
 Alpha  occ. eigenvalues --  -77.04910 -77.04653 -19.10171 -14.35593 -10.28314
 Alpha  occ. eigenvalues --  -10.21742 -10.19499 -10.19450 -10.19275 -10.18996
 Alpha  occ. eigenvalues --  -10.18781 -10.18773 -10.18569 -10.18449 -10.18414
 Alpha  occ. eigenvalues --  -10.18355 -10.18330 -10.18245 -10.17995 -10.17906
 Alpha  occ. eigenvalues --  -10.17872 -10.17865 -10.17841 -10.17833 -10.17775
 Alpha  occ. eigenvalues --  -10.17764 -10.17753 -10.17733 -10.17724 -10.17691
 Alpha  occ. eigenvalues --  -10.17588 -10.17522 -10.17421 -10.17025 -10.16949
 Alpha  occ. eigenvalues --  -10.16789 -10.16701 -10.16534 -10.16461  -6.53463
 Alpha  occ. eigenvalues --   -6.53218  -4.69610  -4.69587  -4.69372  -4.69334
 Alpha  occ. eigenvalues --   -4.69100  -4.68853  -1.05040  -0.94619  -0.86681
 Alpha  occ. eigenvalues --   -0.86294  -0.86188  -0.85798  -0.85113  -0.80153
 Alpha  occ. eigenvalues --   -0.79289  -0.76852  -0.76532  -0.75708  -0.75621
 Alpha  occ. eigenvalues --   -0.75150  -0.75078  -0.74578  -0.74293  -0.74147
 Alpha  occ. eigenvalues --   -0.71099  -0.68772  -0.68294  -0.64053  -0.62946
 Alpha  occ. eigenvalues --   -0.61523  -0.61199  -0.60928  -0.60742  -0.60083
 Alpha  occ. eigenvalues --   -0.59875  -0.59676  -0.59552  -0.57772  -0.56191
 Alpha  occ. eigenvalues --   -0.55105  -0.53885  -0.52230  -0.52008  -0.50675
 Alpha  occ. eigenvalues --   -0.50099  -0.49640  -0.49057  -0.47308  -0.46673
 Alpha  occ. eigenvalues --   -0.46192  -0.45990  -0.45903  -0.45801  -0.45412
 Alpha  occ. eigenvalues --   -0.45012  -0.44787  -0.44418  -0.43767  -0.43386
 Alpha  occ. eigenvalues --   -0.43200  -0.42878  -0.42706  -0.42515  -0.41873
 Alpha  occ. eigenvalues --   -0.41549  -0.41524  -0.41275  -0.41227  -0.40936
 Alpha  occ. eigenvalues --   -0.40607  -0.39535  -0.38261  -0.38178  -0.37921
 Alpha  occ. eigenvalues --   -0.37788  -0.37340  -0.37094  -0.36773  -0.35643
 Alpha  occ. eigenvalues --   -0.35497  -0.35459  -0.35245  -0.35122  -0.34997
 Alpha  occ. eigenvalues --   -0.34758  -0.34047  -0.32745  -0.31999  -0.31023
 Alpha  occ. eigenvalues --   -0.29013  -0.28016  -0.27176  -0.26967  -0.26862
 Alpha  occ. eigenvalues --   -0.26588  -0.26211  -0.25929  -0.25588  -0.25178
 Alpha  occ. eigenvalues --   -0.25003  -0.24760  -0.21715  -0.18311
 Alpha virt. eigenvalues --   -0.03772  -0.03063  -0.02784  -0.02563  -0.02194
 Alpha virt. eigenvalues --   -0.01872  -0.01768  -0.01304  -0.01066  -0.00537
 Alpha virt. eigenvalues --    0.00712   0.01102   0.02772   0.03663   0.04257

 Mulliken charges:
               1
     1  P    0.146581
     2  P    0.161758
     3  C   -0.020301
     4  C   -0.171476
     5  H    0.126643
     6  C   -0.102119
     7  H    0.113861
     8  C   -0.096122
     9  H    0.112494
    10  C   -0.115531
    11  H    0.109480
    12  C   -0.169234
    13  H    0.158774
    14  C    0.075471
    15  C   -0.177433
    16  H    0.116491
    17  C   -0.115129
    18  H    0.104742
    19  C   -0.107225
    20  H    0.103884
    21  C   -0.146156
    22  H    0.108695
    23  C   -0.191425
    24  H    0.158009
    25  C   -0.192077
    26  H    0.151228
    27  C   -0.310584
    28  H    0.141322
    29  H    0.141828
    30  C    0.042938
    31  C   -0.163648
    32  H    0.160236
    33  C   -0.151720
    34  H    0.105195
    35  C   -0.104346
    36  H    0.106932
    37  C   -0.115061
    38  H    0.109042
    39  C   -0.199426
    40  H    0.133114
    41  C    0.052138
    42  C   -0.188216
    43  H    0.129840
    44  C   -0.102835
    45  H    0.106262
    46  C   -0.100649
    47  H    0.110549
    48  C   -0.096308
    49  H    0.110898
    50  C   -0.188849
    51  H    0.119923
    52  C    0.309670
    53  O   -0.385736
    54  C    0.190522
    55  C    0.064834
    56  C    0.070912
    57  C   -0.166357
    58  C   -0.169366
    59  C   -0.105261
    60  H    0.096417
    61  H    0.097221
    62  H    0.105634
    63  C   -0.394505
    64  H    0.168122
    65  H    0.105969
    66  H    0.114024
    67  C   -0.394150
    68  H    0.112132
    69  H    0.136194
    70  H    0.118393
    71  N   -0.281936
    72  H    0.214805
 Sum of Mulliken charges =  -0.00000

 Dipole moment (field-independent basis, Debye):
    X=             -1.4778    Y=             -1.5680    Z=             -3.9532  Tot=              4.5022
 Quadrupole moment (field-independent basis, Debye-Ang):
   XX=           -241.1886   YY=           -231.1541   ZZ=           -231.9232
   XY=             -5.1695   XZ=             -1.9917   YZ=             -3.7522

 Summary of Natural Population Analysis:

                                       Natural Population
                Natural  -----------------------------------------------
    Atom  No    Charge         Core      Valence    Rydberg      Total
 -----------------------------------------------------------------------
      P    1    0.83639      9.99803     4.13376    0.03183    14.16361
      P    2    0.85204      9.99805     4.11829    0.03162    14.14796
      C    3   -0.33801      1.99899     4.30629    0.03273     6.33801
      C    4   -0.19531      1.99909     4.17577    0.02045     6.19531
      H    5    0.22091      0.00000     0.77720    0.00190     0.77909
      C    6   -0.20600      1.99918     4.18811    0.01872     6.20600
      H    7    0.21149      0.00000     0.78725    0.00126     0.78851
      C    8   -0.19861      1.99919     4.18032    0.01910     6.19861
      H    9    0.20922      0.00000     0.78962    0.00117     0.79078
      C   10   -0.20789      1.99919     4.18973    0.01897     6.20789
      H   11    0.20872      0.00000     0.78993    0.00135     0.79128
      C   12   -0.20043      1.99908     4.18120    0.02015     6.20043
      H   13    0.21466      0.00000     0.78264    0.00270     0.78534
      C   14   -0.32599      1.99900     4.29586    0.03113     6.32599
      C   15   -0.20771      1.99909     4.18892    0.01971     6.20771
      H   16    0.20946      0.00000     0.78875    0.00178     0.79054
      C   17   -0.19957      1.99918     4.18170    0.01869     6.19957
      H   18    0.20672      0.00000     0.79200    0.00128     0.79328
      C   19   -0.21709      1.99919     4.19833    0.01957     6.21709
      H   20    0.20596      0.00000     0.79285    0.00119     0.79404
      C   21   -0.19590      1.99919     4.17794    0.01878     6.19590
      H   22    0.20778      0.00000     0.79095    0.00128     0.79222
      C   23   -0.21915      1.99908     4.20021    0.01986     6.21915
      H   24    0.22981      0.00000     0.76847    0.00172     0.77019
      C   25   -0.77875      1.99938     4.74405    0.03533     6.77875
      H   26    0.29102      0.00000     0.70691    0.00207     0.70898
      C   27   -0.51251      1.99924     4.49495    0.01832     6.51251
      H   28    0.22356      0.00000     0.77345    0.00299     0.77644
      H   29    0.23104      0.00000     0.76606    0.00290     0.76896
      C   30   -0.33028      1.99899     4.30034    0.03094     6.33028
      C   31   -0.22232      1.99908     4.20349    0.01975     6.22232
      H   32    0.20900      0.00000     0.78899    0.00201     0.79100
      C   33   -0.19816      1.99918     4.18032    0.01866     6.19816
      H   34    0.20721      0.00000     0.79150    0.00129     0.79279
      C   35   -0.21708      1.99919     4.19831    0.01959     6.21708
      H   36    0.20758      0.00000     0.79124    0.00118     0.79242
      C   37   -0.19626      1.99918     4.17848    0.01860     6.19626
      H   38    0.20859      0.00000     0.79015    0.00126     0.79141
      C   39   -0.20811      1.99909     4.18930    0.01972     6.20811
      H   40    0.21504      0.00000     0.78317    0.00178     0.78496
      C   41   -0.33407      1.99900     4.30268    0.03239     6.33407
      C   42   -0.19746      1.99908     4.17862    0.01976     6.19746
      H   43    0.20864      0.00000     0.78905    0.00231     0.79136
      C   44   -0.20349      1.99919     4.18530    0.01900     6.20349
      H   45    0.20705      0.00000     0.79158    0.00137     0.79295
      C   46   -0.19698      1.99919     4.17872    0.01907     6.19698
      H   47    0.20859      0.00000     0.79023    0.00117     0.79141
      C   48   -0.20190      1.99918     4.18341    0.01931     6.20190
      H   49    0.21028      0.00000     0.78847    0.00126     0.78972
      C   50   -0.19215      1.99910     4.17279    0.02026     6.19215
      H   51    0.21826      0.00000     0.78020    0.00153     0.78174
      C   52    0.67069      1.99940     3.29612    0.03379     5.32931
      O   53   -0.61586      1.99975     6.59044    0.02567     8.61586
      C   54    0.11842      1.99874     3.86158    0.02125     5.88158
      C   55   -0.01534      1.99902     3.99733    0.01899     6.01534
      C   56    0.00617      1.99902     3.97526    0.01956     5.99383
      C   57   -0.20813      1.99910     4.19076    0.01826     6.20813
      C   58   -0.20454      1.99910     4.18727    0.01816     6.20454
      C   59   -0.19007      1.99919     4.17179    0.01909     6.19007
      H   60    0.20480      0.00000     0.79390    0.00130     0.79520
      H   61    0.20589      0.00000     0.79280    0.00130     0.79411
      H   62    0.20879      0.00000     0.79003    0.00118     0.79121
      C   63   -0.61781      1.99940     4.60637    0.01204     6.61781
      H   64    0.24062      0.00000     0.75778    0.00160     0.75938
      H   65    0.21115      0.00000     0.78755    0.00130     0.78885
      H   66    0.20904      0.00000     0.78992    0.00104     0.79096
      C   67   -0.61227      1.99941     4.60095    0.01192     6.61227
      H   68    0.20506      0.00000     0.79362    0.00132     0.79494
      H   69    0.21997      0.00000     0.77883    0.00119     0.78003
      H   70    0.21545      0.00000     0.78351    0.00104     0.78455
      N   71   -0.60067      1.99939     5.57827    0.02302     7.60067
      H   72    0.39082      0.00000     0.60658    0.00261     0.60918
 =======================================================================
   * Total *   -0.00000     93.96514   193.12851    0.90635   288.00000

 Normal termination of Gaussian 16 at Fri Jan 24 19:52:35 2025.
