 Gaussian 16, Revision B.01,
 Gaussian 16:  ES64L-G16RevB.01 20-Dec-2017

 --------------------------------------------
 # nmr=giao b3lyp/def2TZVP pop=nbo scfcyc=200
 --------------------------------------------

 --------------
 MS-78 SPE NoRh
 --------------
 Symbolic Z-matrix:
 Charge =  0 Multiplicity = 1

                         Standard orientation:
 ---------------------------------------------------------------------
 Center     Atomic      Atomic             Coordinates (Angstroms)
 Number     Number       Type             X           Y           Z
 ---------------------------------------------------------------------
      1         15           0        1.378506   -1.178553   -0.764707
      2         15           0       -1.277777   -1.065325   -1.060785
      3          8           0        1.844074   -1.419981    0.780647
      4          8           0        2.703032   -0.679380   -1.575910
      5          8           0       -2.072370   -1.320903    0.341836
      6          8           0       -2.355487   -0.427145   -2.104627
      7          6           0        0.065875    0.197150   -0.573896
      8          6           0        2.423536   -2.678952    1.223369
      9          6           0        2.602537   -2.609274    2.723195
     10          6           0        3.747410    0.220993   -1.100443
     11          6           0        4.972194    0.015175   -1.962914
     12          6           0       -2.828929   -2.545103    0.570770
     13          6           0       -3.302511   -2.543655    2.006060
     14          6           0       -3.314640    0.640107   -1.845294
     15          6           0       -4.298297    0.673551   -2.992353
     16          1           0        0.181744    0.776394   -1.514797
     17          1           0        3.381200   -2.828619    0.718176
     18          1           0        1.749112   -3.490774    0.942070
     19          1           0        3.030974   -3.546478    3.084389
     20          1           0        1.645669   -2.450166    3.220373
     21          1           0        3.276224   -1.797066    2.998637
     22          1           0        3.956170    0.003222   -0.051648
     23          1           0        3.377863    1.242994   -1.180743
     24          1           0        5.763390    0.694788   -1.639976
     25          1           0        5.345556   -1.006677   -1.878817
     26          1           0        4.752015    0.222439   -3.010622
     27          1           0       -2.177131   -3.399270    0.366729
     28          1           0       -3.671390   -2.575911   -0.123673
     29          1           0       -3.868887   -3.455705    2.204451
     30          1           0       -2.457187   -2.505249    2.693643
     31          1           0       -3.950895   -1.689896    2.202474
     32          1           0       -2.767899    1.581018   -1.765975
     33          1           0       -3.814779    0.445600   -0.895723
     34          1           0       -5.019997    1.475848   -2.829022
     35          1           0       -3.789726    0.859064   -3.938456
     36          1           0       -4.845290   -0.266654   -3.067496
     37          6           0        1.186667    1.776590    0.922103
     38          1           0        1.116808    2.091857    1.963736
     39          1           0        2.046976    1.108153    0.886030
     40          6           0       -1.281258    1.703701    0.811147
     41          1           0       -1.405887    2.504806    0.063158
     42          1           0       -2.086616    0.989197    0.657058
     43          7           0       -0.014790    0.976969    0.631314
     44          6           0       -1.460762    2.294497    2.210477
     45          1           0       -0.745594    3.101555    2.384407
     46          1           0       -1.246675    1.515113    2.947266
     47          6           0       -2.876131    2.837362    2.413857
     48          1           0       -2.987477    3.272954    3.408198
     49          1           0       -3.114812    3.617096    1.687017
     50          1           0       -3.625224    2.047206    2.315481
     51          6           0        1.437034    3.011384    0.042936
     52          1           0        0.568063    3.673679    0.079524
     53          1           0        1.549009    2.717983   -1.006316
     54          6           0        2.675048    3.789092    0.494822
     55          1           0        3.576245    3.171143    0.459144
     56          1           0        2.847086    4.661282   -0.136627
     57          1           0        2.563334    4.142028    1.522523
 ---------------------------------------------------------------------

 SCF Done:  E(RB3LYP) =  -1631.47246294     A.U. after   14 cycles

      1  P    Isotropic =    93.7482   Anisotropy =   221.0454

      2  P    Isotropic =    92.0372   Anisotropy =   218.1348

      3  O    Isotropic =   219.8326   Anisotropy =    56.7281

      4  O    Isotropic =   215.6528   Anisotropy =    56.9445

      5  O    Isotropic =   218.1401   Anisotropy =    58.8172

      6  O    Isotropic =   212.2064   Anisotropy =    60.3089

      7  C    Isotropic =    94.4100   Anisotropy =    33.2036

      8  C    Isotropic =   111.6632   Anisotropy =    77.6839

      9  C    Isotropic =   165.1492   Anisotropy =    26.0204

     10  C    Isotropic =   119.3388   Anisotropy =    62.4924

     11  C    Isotropic =   165.3120   Anisotropy =    28.6590

     12  C    Isotropic =   111.3569   Anisotropy =    78.2685

     13  C    Isotropic =   165.1933   Anisotropy =    25.8600

     14  C    Isotropic =   118.3766   Anisotropy =    58.7030

     15  C    Isotropic =   165.5529   Anisotropy =    28.3924

     16  H    Isotropic =    28.5668   Anisotropy =     3.5799

     17  H    Isotropic =    27.9796   Anisotropy =     7.2364

     18  H    Isotropic =    28.1599   Anisotropy =     6.0819

     19  H    Isotropic =    30.8935   Anisotropy =    10.6013

     20  H    Isotropic =    30.4616   Anisotropy =     6.2180

     21  H    Isotropic =    30.4998   Anisotropy =     6.2159

     22  H    Isotropic =    27.6949   Anisotropy =     4.4491

     23  H    Isotropic =    28.6627   Anisotropy =     7.2355

     24  H    Isotropic =    30.9025   Anisotropy =     9.6446

     25  H    Isotropic =    30.6705   Anisotropy =     8.0094

     26  H    Isotropic =    30.5151   Anisotropy =     7.8994

     27  H    Isotropic =    28.1376   Anisotropy =     6.0998

     28  H    Isotropic =    27.9856   Anisotropy =     7.2671

     29  H    Isotropic =    30.8827   Anisotropy =    10.6423

     30  H    Isotropic =    30.4827   Anisotropy =     5.9947

     31  H    Isotropic =    30.5259   Anisotropy =     6.1726

     32  H    Isotropic =    28.3412   Anisotropy =     5.5936

     33  H    Isotropic =    27.8594   Anisotropy =     4.4993

     34  H    Isotropic =    30.9265   Anisotropy =     9.6464

     35  H    Isotropic =    30.5765   Anisotropy =     7.8901

     36  H    Isotropic =    30.7057   Anisotropy =     7.9799

     37  C    Isotropic =   127.5587   Anisotropy =    56.6143

     38  H    Isotropic =    28.9932   Anisotropy =     4.5435

     39  H    Isotropic =    29.1812   Anisotropy =     6.1992

     40  C    Isotropic =   123.3495   Anisotropy =    54.2114

     41  H    Isotropic =    29.3425   Anisotropy =     4.0840

     42  H    Isotropic =    28.8951   Anisotropy =     6.9802

     43  N    Isotropic =   200.1027   Anisotropy =    48.5557

     44  C    Isotropic =   156.3305   Anisotropy =    15.7838

     45  H    Isotropic =    30.3337   Anisotropy =     5.7129

     46  H    Isotropic =    30.5007   Anisotropy =     5.1517

     47  C    Isotropic =   169.5196   Anisotropy =    25.5172

     48  H    Isotropic =    30.7864   Anisotropy =    11.1140

     49  H    Isotropic =    31.1619   Anisotropy =     8.3878

     50  H    Isotropic =    31.0692   Anisotropy =     7.6081

     51  C    Isotropic =   169.7274   Anisotropy =     9.2345

     52  H    Isotropic =    30.4734   Anisotropy =     6.5958

     53  H    Isotropic =    30.6010   Anisotropy =     5.1286

     54  C    Isotropic =   170.7477   Anisotropy =    24.3956

     55  H    Isotropic =    31.3979   Anisotropy =     7.6901

     56  H    Isotropic =    30.8753   Anisotropy =    11.2922

     57  H    Isotropic =    31.3555   Anisotropy =     9.2096

 The electronic state is 1-A.
 Alpha  occ. eigenvalues --  -77.08773 -77.08707 -19.13169 -19.13025 -19.13021
 Alpha  occ. eigenvalues --  -19.12973 -14.30424 -10.22665 -10.22577 -10.22164
 Alpha  occ. eigenvalues --  -10.22059 -10.19756 -10.18431 -10.18411 -10.16642
 Alpha  occ. eigenvalues --  -10.16533 -10.16508 -10.16386 -10.16299 -10.16291
 Alpha  occ. eigenvalues --  -10.16243 -10.15972  -6.56469  -6.56403  -4.72764
 Alpha  occ. eigenvalues --   -4.72702  -4.72586  -4.72513  -4.72044  -4.71980
 Alpha  occ. eigenvalues --   -1.03466  -1.03295  -1.00280  -1.00181  -0.91498
 Alpha  occ. eigenvalues --   -0.78327  -0.77895  -0.76726  -0.76591  -0.75644
 Alpha  occ. eigenvalues --   -0.75609  -0.70855  -0.68748  -0.64546  -0.63965
 Alpha  occ. eigenvalues --   -0.62485  -0.62391  -0.61947  -0.60165  -0.57283
 Alpha  occ. eigenvalues --   -0.56497  -0.54234  -0.50955  -0.50505  -0.49776
 Alpha  occ. eigenvalues --   -0.48475  -0.48110  -0.47906  -0.47071  -0.47017
 Alpha  occ. eigenvalues --   -0.45895  -0.44874  -0.44127  -0.43065  -0.42879
 Alpha  occ. eigenvalues --   -0.41516  -0.41450  -0.41195  -0.40975  -0.40691
 Alpha  occ. eigenvalues --   -0.39446  -0.39053  -0.38852  -0.38781  -0.38260
 Alpha  occ. eigenvalues --   -0.37864  -0.37548  -0.37329  -0.37223  -0.36890
 Alpha  occ. eigenvalues --   -0.36563  -0.35754  -0.34852  -0.34622  -0.34111
 Alpha  occ. eigenvalues --   -0.33841  -0.33404  -0.33110  -0.32615  -0.32414
 Alpha  occ. eigenvalues --   -0.30213  -0.29219  -0.29135  -0.27920  -0.23780
 Alpha  occ. eigenvalues --   -0.19955  -0.17599
 Alpha virt. eigenvalues --   -0.00216   0.01960   0.02522   0.03028   0.03373
 Alpha virt. eigenvalues --    0.04421   0.05079   0.05227   0.05425   0.06274
 Alpha virt. eigenvalues --    0.07061   0.07336   0.07588   0.07917   0.08127

 Mulliken charges:
               1
     1  P    0.389948
     2  P    0.388628
     3  O   -0.355279
     4  O   -0.348563
     5  O   -0.362018
     6  O   -0.345246
     7  C   -0.113800
     8  C   -0.025266
     9  C   -0.302129
    10  C   -0.063838
    11  C   -0.292497
    12  C   -0.026381
    13  C   -0.303011
    14  C   -0.051934
    15  C   -0.290685
    16  H    0.062936
    17  H    0.097468
    18  H    0.097317
    19  H    0.101100
    20  H    0.114368
    21  H    0.106584
    22  H    0.105775
    23  H    0.092471
    24  H    0.100226
    25  H    0.109219
    26  H    0.113242
    27  H    0.098721
    28  H    0.099214
    29  H    0.102952
    30  H    0.114272
    31  H    0.106677
    32  H    0.091168
    33  H    0.098702
    34  H    0.099707
    35  H    0.112902
    36  H    0.108628
    37  C   -0.182287
    38  H    0.106194
    39  H    0.126093
    40  C   -0.138746
    41  H    0.062351
    42  H    0.114101
    43  N   -0.115234
    44  C   -0.158536
    45  H    0.087432
    46  H    0.097736
    47  C   -0.341722
    48  H    0.112795
    49  H    0.099366
    50  H    0.106326
    51  C   -0.182131
    52  H    0.094769
    53  H    0.096194
    54  C   -0.338391
    55  H    0.102248
    56  H    0.114389
    57  H    0.105474
 Sum of Mulliken charges =  -0.00000

 Dipole moment (field-independent basis, Debye):
    X=             -0.1676    Y=              1.3059    Z=              2.2860  Tot=              2.6380
 Quadrupole moment (field-independent basis, Debye-Ang):
   XX=           -138.6634   YY=           -148.5655   ZZ=           -160.1371
   XY=              0.8405   XZ=              1.4413   YZ=            -10.1748

 Summary of Natural Population Analysis:

                                       Natural Population
                Natural  -----------------------------------------------
    Atom  No    Charge         Core      Valence    Rydberg      Total
 -----------------------------------------------------------------------
      P    1    1.33248      9.99855     3.57563    0.09334    13.66752
      P    2    1.33515      9.99855     3.57337    0.09293    13.66485
      O    3   -0.80821      1.99980     6.79242    0.01599     8.80821
      O    4   -0.79553      1.99982     6.78132    0.01440     8.79553
      O    5   -0.81264      1.99979     6.79692    0.01593     8.81264
      O    6   -0.79444      1.99982     6.77993    0.01469     8.79444
      C    7   -0.67706      1.99937     4.64262    0.03507     6.67706
      C    8   -0.05095      1.99931     4.03213    0.01951     6.05095
      C    9   -0.60496      1.99947     4.59368    0.01181     6.60496
      C   10   -0.07245      1.99930     4.05517    0.01798     6.07245
      C   11   -0.60464      1.99947     4.59348    0.01170     6.60464
      C   12   -0.05163      1.99931     4.03288    0.01945     6.05163
      C   13   -0.60539      1.99947     4.59413    0.01179     6.60539
      C   14   -0.06956      1.99930     4.05289    0.01737     6.06956
      C   15   -0.60499      1.99947     4.59367    0.01185     6.60499
      H   16    0.19716      0.00000     0.79878    0.00405     0.80284
      H   17    0.16421      0.00000     0.83358    0.00221     0.83579
      H   18    0.17087      0.00000     0.82634    0.00279     0.82913
      H   19    0.20577      0.00000     0.79329    0.00094     0.79423
      H   20    0.21008      0.00000     0.78853    0.00139     0.78992
      H   21    0.20545      0.00000     0.79331    0.00124     0.79455
      H   22    0.16918      0.00000     0.82838    0.00244     0.83082
      H   23    0.16641      0.00000     0.83127    0.00232     0.83359
      H   24    0.20442      0.00000     0.79462    0.00096     0.79558
      H   25    0.20685      0.00000     0.79194    0.00121     0.79315
      H   26    0.20920      0.00000     0.78958    0.00122     0.79080
      H   27    0.17239      0.00000     0.82492    0.00269     0.82761
      H   28    0.16594      0.00000     0.83188    0.00218     0.83406
      H   29    0.20688      0.00000     0.79221    0.00092     0.79312
      H   30    0.20968      0.00000     0.78894    0.00138     0.79032
      H   31    0.20516      0.00000     0.79357    0.00127     0.79484
      H   32    0.16586      0.00000     0.83164    0.00250     0.83414
      H   33    0.16709      0.00000     0.83057    0.00234     0.83291
      H   34    0.20439      0.00000     0.79466    0.00095     0.79561
      H   35    0.20889      0.00000     0.78988    0.00123     0.79111
      H   36    0.20661      0.00000     0.79215    0.00125     0.79339
      C   37   -0.20883      1.99931     4.19262    0.01690     6.20883
      H   38    0.18710      0.00000     0.80972    0.00317     0.81290
      H   39    0.19793      0.00000     0.79913    0.00294     0.80207
      C   40   -0.20809      1.99931     4.19222    0.01656     6.20809
      H   41    0.14410      0.00000     0.85056    0.00535     0.85590
      H   42    0.20636      0.00000     0.79010    0.00354     0.79364
      N   43   -0.43993      1.99947     5.40539    0.03507     7.43993
      C   44   -0.39251      1.99944     4.37843    0.01465     6.39251
      H   45    0.18812      0.00000     0.81032    0.00157     0.81188
      H   46    0.20298      0.00000     0.79503    0.00199     0.79702
      C   47   -0.58464      1.99947     4.57896    0.00621     6.58464
      H   48    0.20404      0.00000     0.79484    0.00112     0.79596
      H   49    0.19432      0.00000     0.80416    0.00152     0.80568
      H   50    0.19528      0.00000     0.80325    0.00147     0.80472
      C   51   -0.41320      1.99944     4.39965    0.01410     6.41320
      H   52    0.19336      0.00000     0.80501    0.00163     0.80664
      H   53    0.18763      0.00000     0.81058    0.00179     0.81237
      C   54   -0.58630      1.99947     4.58013    0.00671     6.58630
      H   55    0.19348      0.00000     0.80485    0.00167     0.80652
      H   56    0.20439      0.00000     0.79437    0.00124     0.79561
      H   57    0.19677      0.00000     0.80176    0.00147     0.80323
 =======================================================================
   * Total *    0.00000     59.98668   133.43137    0.58196   194.00000

 Normal termination of Gaussian 16 at Fri Jan 24 20:51:16 2025.
