 Gaussian 16, Revision B.01,
 Gaussian 16:  ES64L-G16RevB.01 20-Dec-2017

 --------------------------------------------
 # nmr=giao b3lyp/def2TZVP pop=nbo scfcyc=200
 --------------------------------------------

 --------------
 MS-79 SPE NoRh
 --------------
 Symbolic Z-matrix:
 Charge =  0 Multiplicity = 1

                         Standard orientation:
 ---------------------------------------------------------------------
 Center     Atomic      Atomic             Coordinates (Angstroms)
 Number     Number       Type             X           Y           Z
 ---------------------------------------------------------------------
      1         15           0       -1.655472    0.079474   -0.548606
      2         15           0        1.104120    0.859187   -0.741890
      3          8           0        0.400086   -0.686199    1.379633
      4          6           0        2.203716    2.309045   -0.151970
      5          6           0        1.375741    3.600411   -0.209527
      6          6           0        2.702446    2.059760    1.276970
      7          6           0        3.399047    2.404874   -1.114548
      8          6           0       -0.127884    0.381024    0.595694
      9          6           0       -2.127343   -1.793040   -0.518619
     10          6           0        1.512577   -1.254911    0.807690
     11          6           0        2.033684   -0.665619   -0.347382
     12          6           0       -2.328196   -2.357755    0.895995
     13          6           0       -0.988266   -2.550807   -1.225554
     14          6           0       -2.988213    1.217895    0.271181
     15          6           0       -4.346196    1.087743   -0.440284
     16          6           0       -3.177344    0.935160    1.770405
     17          6           0       -2.488290    2.664252    0.091033
     18          6           0        3.716458   -2.384374   -0.427827
     19          6           0        2.091325   -2.383251    1.372450
     20          6           0        3.198315   -2.939339    0.742040
     21          6           0       -3.414207   -2.008050   -1.336270
     22          1           0        4.571923   -2.837881   -0.909703
     23          1           0        1.676852   -2.813566    2.274973
     24          1           0        3.658780   -3.823325    1.166396
     25          1           0        0.947600    3.775472   -1.197249
     26          1           0       -4.852656    0.156640   -0.199078
     27          1           0       -4.268517    1.164089   -1.524612
     28          1           0       -0.371589    1.195177    1.273807
     29          1           0        0.562087    3.597332    0.517249
     30          1           0        3.312690    1.159874    1.348538
     31          1           0        4.024240    1.511557   -1.079399
     32          1           0       -1.470106   -2.182982    1.541661
     33          1           0       -0.054710   -2.527431   -0.668419
     34          1           0       -2.245110    0.970348    2.335004
     35          1           0       -3.542080   -3.082562   -1.492493
     36          1           0       -3.376900   -1.541858   -2.320593
     37          1           0        2.019299    4.449491    0.032966
     38          1           0        1.883242    1.977429    1.994616
     39          1           0       -3.215601   -1.951797    1.377931
     40          1           0       -3.835974    1.700736    2.189690
     41          1           0       -4.302370   -1.651849   -0.822075
     42          1           0        3.321479    2.904896    1.588752
     43          1           0       -2.475653   -3.439540    0.817215
     44          1           0       -3.646046   -0.029622    1.954506
     45          1           0       -3.251231    3.349051    0.468553
     46          1           0       -1.576121    2.867663    0.652720
     47          1           0       -2.300369    2.908115   -0.955391
     48          1           0        3.090791    2.573334   -2.148291
     49          1           0        4.025989    3.250039   -0.820300
     50          1           0       -1.281778   -3.599700   -1.321976
     51          1           0       -0.799253   -2.161559   -2.227625
     52          1           0       -4.993008    1.901325   -0.103593
     53          6           0        3.134631   -1.246542   -0.975196
     54          1           0        3.541666   -0.818069   -1.881078
 ---------------------------------------------------------------------

 SCF Done:  E(RB3LYP) =  -1501.55584646     A.U. after   22 cycles

      1  P    Isotropic =   166.0440   Anisotropy =   134.2632

      2  P    Isotropic =   207.5569   Anisotropy =    97.4717

      3  O    Isotropic =   171.2627   Anisotropy =   142.3976

      4  C    Isotropic =   141.5160   Anisotropy =    16.6761

      5  C    Isotropic =   154.2567   Anisotropy =    40.0716

      6  C    Isotropic =   156.4741   Anisotropy =    40.0997

      7  C    Isotropic =   157.7956   Anisotropy =    39.5712

      8  C    Isotropic =    98.7321   Anisotropy =    75.3766

      9  C    Isotropic =   137.1817   Anisotropy =    23.5316

     10  C    Isotropic =    10.4076   Anisotropy =   114.6817

     11  C    Isotropic =    51.6346   Anisotropy =   151.4408

     12  C    Isotropic =   154.0406   Anisotropy =    38.2310

     13  C    Isotropic =   150.1682   Anisotropy =    42.6601

     14  C    Isotropic =   137.9960   Anisotropy =    21.6162

     15  C    Isotropic =   152.3343   Anisotropy =    40.5924

     16  C    Isotropic =   154.3650   Anisotropy =    38.6585

     17  C    Isotropic =   149.3108   Anisotropy =    43.2730

     18  C    Isotropic =    57.7888   Anisotropy =   172.3456

     19  C    Isotropic =    67.7469   Anisotropy =   148.8287

     20  C    Isotropic =    48.1410   Anisotropy =   184.5570

     21  C    Isotropic =   150.5844   Anisotropy =    44.5246

     22  H    Isotropic =    24.7490   Anisotropy =     4.3036

     23  H    Isotropic =    24.8384   Anisotropy =     7.0655

     24  H    Isotropic =    24.4439   Anisotropy =     4.4193

     25  H    Isotropic =    30.6279   Anisotropy =     7.3275

     26  H    Isotropic =    30.6342   Anisotropy =     7.4216

     27  H    Isotropic =    30.6078   Anisotropy =     7.6817

     28  H    Isotropic =    26.4423   Anisotropy =     5.6424

     29  H    Isotropic =    30.8490   Anisotropy =     7.9072

     30  H    Isotropic =    31.5009   Anisotropy =     4.5311

     31  H    Isotropic =    30.9506   Anisotropy =     8.1930

     32  H    Isotropic =    29.7228   Anisotropy =     5.7810

     33  H    Isotropic =    31.5360   Anisotropy =    14.4113

     34  H    Isotropic =    30.1005   Anisotropy =     4.7523

     35  H    Isotropic =    31.3226   Anisotropy =     9.2245

     36  H    Isotropic =    30.6820   Anisotropy =     7.7289

     37  H    Isotropic =    31.1075   Anisotropy =     9.4933

     38  H    Isotropic =    30.9618   Anisotropy =     5.9301

     39  H    Isotropic =    30.5225   Anisotropy =     6.3035

     40  H    Isotropic =    30.9102   Anisotropy =     9.4473

     41  H    Isotropic =    30.7508   Anisotropy =     7.4384

     42  H    Isotropic =    31.3465   Anisotropy =    10.3797

     43  H    Isotropic =    31.1611   Anisotropy =     9.5040

     44  H    Isotropic =    30.2512   Anisotropy =     6.9063

     45  H    Isotropic =    31.3088   Anisotropy =     8.7017

     46  H    Isotropic =    30.7069   Anisotropy =     8.4298

     47  H    Isotropic =    30.6091   Anisotropy =     7.5794

     48  H    Isotropic =    30.7380   Anisotropy =     8.8861

     49  H    Isotropic =    31.4276   Anisotropy =    10.0870

     50  H    Isotropic =    31.7997   Anisotropy =     8.2937

     51  H    Isotropic =    31.0074   Anisotropy =     6.0436

     52  H    Isotropic =    31.1534   Anisotropy =     9.2763

     53  C    Isotropic =    47.0508   Anisotropy =   181.7643

     54  H    Isotropic =    24.2347   Anisotropy =     7.9511

 The electronic state is 1-A.
 Alpha  occ. eigenvalues --  -77.04467 -77.03915 -19.16736 -10.23765 -10.23694
 Alpha  occ. eigenvalues --  -10.19471 -10.19231 -10.19184 -10.18410 -10.18215
 Alpha  occ. eigenvalues --  -10.18001 -10.17784 -10.17400 -10.16590 -10.16502
 Alpha  occ. eigenvalues --  -10.16473 -10.16278 -10.16111 -10.15962 -10.15944
 Alpha  occ. eigenvalues --  -10.15470 -10.15283  -6.53068  -6.52437  -4.69239
 Alpha  occ. eigenvalues --   -4.69147  -4.68705  -4.68618  -4.68511  -4.68061
 Alpha  occ. eigenvalues --   -1.07652  -0.86067  -0.82010  -0.81629  -0.80415
 Alpha  occ. eigenvalues --   -0.76605  -0.75263  -0.71981  -0.69395  -0.69259
 Alpha  occ. eigenvalues --   -0.69136  -0.68922  -0.68302  -0.68207  -0.63580
 Alpha  occ. eigenvalues --   -0.61648  -0.59522  -0.58454  -0.54968  -0.54574
 Alpha  occ. eigenvalues --   -0.51750  -0.50126  -0.49112  -0.48020  -0.47325
 Alpha  occ. eigenvalues --   -0.45528  -0.45092  -0.44891  -0.44486  -0.44435
 Alpha  occ. eigenvalues --   -0.44158  -0.43362  -0.43108  -0.42663  -0.41175
 Alpha  occ. eigenvalues --   -0.40727  -0.40033  -0.39465  -0.39243  -0.38997
 Alpha  occ. eigenvalues --   -0.38660  -0.38288  -0.38110  -0.37660  -0.37235
 Alpha  occ. eigenvalues --   -0.36757  -0.36077  -0.35498  -0.34809  -0.34326
 Alpha  occ. eigenvalues --   -0.34207  -0.34031  -0.33318  -0.33201  -0.32881
 Alpha  occ. eigenvalues --   -0.31484  -0.28620  -0.28412  -0.27265  -0.24396
 Alpha  occ. eigenvalues --   -0.21354  -0.18959
 Alpha virt. eigenvalues --   -0.03209  -0.00791   0.00867   0.02009   0.03142
 Alpha virt. eigenvalues --    0.03317   0.04434   0.05128   0.05267   0.06483
 Alpha virt. eigenvalues --    0.06765   0.07106   0.07343   0.07389   0.07678

 Mulliken charges:
               1
     1  P    0.062242
     2  P    0.092832
     3  O   -0.294236
     4  C    0.090374
     5  C   -0.360535
     6  C   -0.368992
     7  C   -0.380596
     8  C   -0.004086
     9  C    0.117819
    10  C    0.200899
    11  C   -0.003373
    12  C   -0.360000
    13  C   -0.397227
    14  C    0.062697
    15  C   -0.362254
    16  C   -0.339326
    17  C   -0.343269
    18  C   -0.138862
    19  C   -0.272088
    20  C   -0.065194
    21  C   -0.358299
    22  H    0.106486
    23  H    0.110552
    24  H    0.110486
    25  H    0.125906
    26  H    0.103378
    27  H    0.122600
    28  H    0.094789
    29  H    0.102444
    30  H    0.134027
    31  H    0.118386
    32  H    0.142765
    33  H    0.156814
    34  H    0.111518
    35  H    0.107632
    36  H    0.120565
    37  H    0.109386
    38  H    0.110703
    39  H    0.091635
    40  H    0.099538
    41  H    0.100522
    42  H    0.100664
    43  H    0.093776
    44  H    0.106928
    45  H    0.107948
    46  H    0.089457
    47  H    0.127523
    48  H    0.121562
    49  H    0.108101
    50  H    0.101417
    51  H    0.120349
    52  H    0.107117
    53  C   -0.167875
    54  H    0.124377
 Sum of Mulliken charges =  -0.00000

 Dipole moment (field-independent basis, Debye):
    X=              0.1320    Y=              0.3504    Z=              0.9025  Tot=              0.9771
 Quadrupole moment (field-independent basis, Debye-Ang):
   XX=           -147.2218   YY=           -148.3638   ZZ=           -158.6005
   XY=             -1.6316   XZ=             -2.5590   YZ=              0.6546

 Summary of Natural Population Analysis:

                                       Natural Population
                Natural  -----------------------------------------------
    Atom  No    Charge         Core      Valence    Rydberg      Total
 -----------------------------------------------------------------------
      P    1    0.74206      9.99843     4.23115    0.02836    14.25794
      P    2    0.79363      9.99826     4.17687    0.03124    14.20637
      O    3   -0.48152      1.99975     6.45387    0.02790     8.48152
      C    4   -0.26906      1.99947     4.24495    0.02464     6.26906
      C    5   -0.60172      1.99937     4.59031    0.01204     6.60172
      C    6   -0.60385      1.99937     4.59190    0.01258     6.60385
      C    7   -0.60539      1.99936     4.59382    0.01221     6.60539
      C    8   -0.45529      1.99934     4.41509    0.04086     6.45529
      C    9   -0.26520      1.99944     4.24095    0.02481     6.26520
      C   10    0.28066      1.99862     3.69637    0.02436     5.71934
      C   11   -0.39893      1.99887     4.36832    0.03174     6.39893
      C   12   -0.60806      1.99936     4.59642    0.01228     6.60806
      C   13   -0.60452      1.99936     4.59231    0.01284     6.60452
      C   14   -0.26488      1.99945     4.24094    0.02448     6.26488
      C   15   -0.59897      1.99936     4.58759    0.01202     6.59897
      C   16   -0.60294      1.99936     4.59131    0.01227     6.60294
      C   17   -0.60276      1.99937     4.59096    0.01243     6.60276
      C   18   -0.23355      1.99919     4.21536    0.01900     6.23355
      C   19   -0.25726      1.99902     4.23857    0.01968     6.25726
      C   20   -0.18173      1.99921     4.16427    0.01825     6.18173
      C   21   -0.59922      1.99937     4.58795    0.01190     6.59922
      H   22    0.21046      0.00000     0.78837    0.00116     0.78954
      H   23    0.21961      0.00000     0.77883    0.00156     0.78039
      H   24    0.20987      0.00000     0.78898    0.00114     0.79013
      H   25    0.21332      0.00000     0.78527    0.00140     0.78668
      H   26    0.20104      0.00000     0.79756    0.00140     0.79896
      H   27    0.21248      0.00000     0.78598    0.00155     0.78752
      H   28    0.21335      0.00000     0.78232    0.00432     0.78665
      H   29    0.19923      0.00000     0.79931    0.00146     0.80077
      H   30    0.21145      0.00000     0.78719    0.00136     0.78855
      H   31    0.20881      0.00000     0.78994    0.00125     0.79119
      H   32    0.22136      0.00000     0.77722    0.00142     0.77864
      H   33    0.21252      0.00000     0.78603    0.00144     0.78748
      H   34    0.20026      0.00000     0.79844    0.00131     0.79974
      H   35    0.20324      0.00000     0.79469    0.00207     0.79676
      H   36    0.21208      0.00000     0.78635    0.00157     0.78792
      H   37    0.20513      0.00000     0.79288    0.00200     0.79487
      H   38    0.20112      0.00000     0.79754    0.00134     0.79888
      H   39    0.19525      0.00000     0.80330    0.00146     0.80475
      H   40    0.19598      0.00000     0.80177    0.00226     0.80402
      H   41    0.19969      0.00000     0.79890    0.00141     0.80031
      H   42    0.19674      0.00000     0.80095    0.00231     0.80326
      H   43    0.19383      0.00000     0.80401    0.00216     0.80617
      H   44    0.20318      0.00000     0.79534    0.00148     0.79682
      H   45    0.20347      0.00000     0.79442    0.00211     0.79653
      H   46    0.19459      0.00000     0.80383    0.00158     0.80541
      H   47    0.21713      0.00000     0.78147    0.00140     0.78287
      H   48    0.21126      0.00000     0.78732    0.00143     0.78874
      H   49    0.20530      0.00000     0.79270    0.00200     0.79470
      H   50    0.20139      0.00000     0.79654    0.00207     0.79861
      H   51    0.21422      0.00000     0.78444    0.00135     0.78578
      H   52    0.20137      0.00000     0.79652    0.00211     0.79863
      C   53   -0.18068      1.99910     4.16116    0.02043     6.18068
      H   54    0.21048      0.00000     0.78757    0.00195     0.78952
 =======================================================================
   * Total *    0.00000     59.98242   123.51643    0.50116   184.00000

 Normal termination of Gaussian 16 at Fri Jan 24 20:58:33 2025.
