 Gaussian 16, Revision B.01,
 Gaussian 16:  ES64L-G16RevB.01 20-Dec-2017

 --------------------------------------------
 # nmr=giao b3lyp/def2TZVP pop=nbo scfcyc=200
 --------------------------------------------

 --------------
 MS-70 SPE NoRh
 --------------
 Symbolic Z-matrix:
 Charge =  0 Multiplicity = 1

                         Standard orientation:
 ---------------------------------------------------------------------
 Center     Atomic      Atomic             Coordinates (Angstroms)
 Number     Number       Type             X           Y           Z
 ---------------------------------------------------------------------
      1         15           0       -1.375095   -1.012808   -0.193266
      2         15           0        1.376349   -1.010621   -0.183914
      3          6           0       -2.021155   -0.883661    1.531277
      4          1           0       -1.212315   -1.031706    2.243511
      5          1           0       -2.756643   -1.674829    1.678107
      6          1           0       -2.490339    0.080521    1.722777
      7          6           0        2.030022   -0.854444    1.535235
      8          1           0        2.767598   -1.642798    1.692670
      9          1           0        1.224992   -0.990153    2.253173
     10          1           0        2.499658    0.112272    1.708358
     11          6           0        0.000105    0.276941   -0.416949
     12          1           0        0.001621    0.452722   -1.512989
     13          6           0        2.804324   -0.576563   -1.272155
     14          1           0        3.263917    0.370023   -0.990147
     15          1           0        2.468068   -0.523673   -2.306606
     16          1           0        3.550433   -1.367993   -1.192942
     17          6           0       -2.808668   -0.559220   -1.266534
     18          1           0       -3.564204   -1.342254   -1.184458
     19          1           0       -2.482061   -0.504324   -2.304612
     20          1           0       -3.255358    0.391389   -0.976512
     21          6           0        1.193482    2.321206    0.100074
     22          1           0        1.143195    3.218878    0.715662
     23          1           0        2.096948    1.785909    0.380942
     24          1           0        1.283872    2.631458   -0.953744
     25          6           0       -1.200110    2.314460    0.123765
     26          1           0       -1.316045    2.622196   -0.927891
     27          1           0       -2.094535    1.774658    0.426759
     28          1           0       -1.141192    3.213087    0.737461
     29          7           0        0.000796    1.506248    0.348558
 ---------------------------------------------------------------------

 SCF Done:  E(RB3LYP) =  -1015.78774525     A.U. after   14 cycles

      1  P    Isotropic =   274.0266   Anisotropy =   191.7695

      2  P    Isotropic =   274.4772   Anisotropy =   191.7516

      3  C    Isotropic =   173.0945   Anisotropy =    16.0956

      4  H    Isotropic =    30.5621   Anisotropy =     7.3119

      5  H    Isotropic =    31.0554   Anisotropy =    10.6865

      6  H    Isotropic =    30.5061   Anisotropy =     7.3518

      7  C    Isotropic =   172.9494   Anisotropy =    16.2958

      8  H    Isotropic =    31.0380   Anisotropy =    10.6528

      9  H    Isotropic =    30.5906   Anisotropy =     7.3190

     10  H    Isotropic =    30.5312   Anisotropy =     7.3414

     11  C    Isotropic =   109.0951   Anisotropy =    35.8429

     12  H    Isotropic =    29.7341   Anisotropy =     1.9656

     13  C    Isotropic =   165.4725   Anisotropy =    27.9671

     14  H    Isotropic =    30.3866   Anisotropy =     7.3634

     15  H    Isotropic =    30.6434   Anisotropy =     7.2860

     16  H    Isotropic =    31.0954   Anisotropy =    10.2616

     17  C    Isotropic =   165.3375   Anisotropy =    27.9015

     18  H    Isotropic =    31.1022   Anisotropy =    10.2105

     19  H    Isotropic =    30.6239   Anisotropy =     7.2787

     20  H    Isotropic =    30.3655   Anisotropy =     7.2918

     21  C    Isotropic =   134.0883   Anisotropy =    68.8912

     22  H    Isotropic =    29.6412   Anisotropy =     9.7190

     23  H    Isotropic =    29.3760   Anisotropy =     6.1479

     24  H    Isotropic =    30.1450   Anisotropy =     7.4311

     25  C    Isotropic =   134.2248   Anisotropy =    68.3238

     26  H    Isotropic =    30.1405   Anisotropy =     7.4310

     27  H    Isotropic =    29.3439   Anisotropy =     6.1594

     28  H    Isotropic =    29.6370   Anisotropy =     9.6985

     29  N    Isotropic =   203.5394   Anisotropy =    47.5132

 The electronic state is 1-A.
 Alpha  occ. eigenvalues --  -77.03511 -77.03505 -14.32021 -10.20919 -10.19190
 Alpha  occ. eigenvalues --  -10.19188 -10.16569 -10.16539 -10.16353 -10.16325
 Alpha  occ. eigenvalues --   -6.52090  -6.52088  -4.68256  -4.68254  -4.68202
 Alpha  occ. eigenvalues --   -4.68201  -4.67693  -4.67691  -0.92738  -0.76082
 Alpha  occ. eigenvalues --   -0.74039  -0.70848  -0.70026  -0.69315  -0.69079
 Alpha  occ. eigenvalues --   -0.61505  -0.53240  -0.52323  -0.48695  -0.45723
 Alpha  occ. eigenvalues --   -0.45609  -0.43485  -0.42510  -0.42209  -0.41831
 Alpha  occ. eigenvalues --   -0.41007  -0.40550  -0.40156  -0.39993  -0.39431
 Alpha  occ. eigenvalues --   -0.39162  -0.36935  -0.36767  -0.33676  -0.33231
 Alpha  occ. eigenvalues --   -0.29369  -0.23884  -0.21634  -0.17321
 Alpha virt. eigenvalues --    0.01437   0.02751   0.04116   0.04509   0.05926
 Alpha virt. eigenvalues --    0.06377   0.07012   0.07433   0.07886   0.08357
 Alpha virt. eigenvalues --    0.08739   0.09235   0.10236   0.10488   0.10934

 Mulliken charges:
               1
     1  P    0.147065
     2  P    0.146114
     3  C   -0.401695
     4  H    0.120995
     5  H    0.125171
     6  H    0.106730
     7  C   -0.401033
     8  H    0.124864
     9  H    0.120973
    10  H    0.106563
    11  C   -0.092165
    12  H    0.068779
    13  C   -0.397852
    14  H    0.102146
    15  H    0.120423
    16  H    0.125365
    17  C   -0.398224
    18  H    0.124883
    19  H    0.120315
    20  H    0.102368
    21  C   -0.260050
    22  H    0.115230
    23  H    0.105394
    24  H    0.091219
    25  C   -0.261058
    26  H    0.091459
    27  H    0.105627
    28  H    0.115292
    29  N   -0.174899
 Sum of Mulliken charges =  -0.00000

 Dipole moment (field-independent basis, Debye):
    X=              0.0063    Y=              2.0951    Z=              0.1594  Tot=              2.1011
 Quadrupole moment (field-independent basis, Debye-Ang):
   XX=            -76.8238   YY=            -84.7648   ZZ=            -80.4737
   XY=              0.0020   XZ=             -0.0669   YZ=             -2.1956

 Summary of Natural Population Analysis:

                                       Natural Population
                Natural  -----------------------------------------------
    Atom  No    Charge         Core      Valence    Rydberg      Total
 -----------------------------------------------------------------------
      P    1    0.78874      9.99877     4.17338    0.03910    14.21126
      P    2    0.78811      9.99877     4.17405    0.03907    14.21189
      C    3   -0.91613      1.99944     4.89640    0.02029     6.91613
      H    4    0.22863      0.00000     0.77014    0.00123     0.77137
      H    5    0.22991      0.00000     0.76919    0.00090     0.77009
      H    6    0.20396      0.00000     0.79272    0.00333     0.79604
      C    7   -0.91604      1.99944     4.89630    0.02030     6.91604
      H    8    0.22980      0.00000     0.76930    0.00090     0.77020
      H    9    0.22865      0.00000     0.77012    0.00123     0.77135
      H   10    0.20386      0.00000     0.79280    0.00334     0.79614
      C   11   -0.59042      1.99939     4.55327    0.03776     6.59042
      H   12    0.19296      0.00000     0.80209    0.00495     0.80704
      C   13   -0.91812      1.99945     4.90002    0.01865     6.91812
      H   14    0.20002      0.00000     0.79656    0.00342     0.79998
      H   15    0.22711      0.00000     0.77189    0.00100     0.77289
      H   16    0.22982      0.00000     0.76926    0.00093     0.77018
      C   17   -0.91925      1.99945     4.90111    0.01869     6.91925
      H   18    0.22968      0.00000     0.76939    0.00093     0.77032
      H   19    0.22700      0.00000     0.77202    0.00098     0.77300
      H   20    0.20005      0.00000     0.79656    0.00339     0.79995
      C   21   -0.39788      1.99937     4.38683    0.01168     6.39788
      H   22    0.19565      0.00000     0.80263    0.00172     0.80435
      H   23    0.19374      0.00000     0.80364    0.00262     0.80626
      H   24    0.15669      0.00000     0.83871    0.00459     0.84331
      C   25   -0.39774      1.99937     4.38669    0.01168     6.39774
      H   26    0.15680      0.00000     0.83861    0.00459     0.84320
      H   27    0.19372      0.00000     0.80365    0.00262     0.80628
      H   28    0.19568      0.00000     0.80260    0.00172     0.80432
      N   29   -0.44501      1.99952     5.41397    0.03152     7.44501
 =======================================================================
   * Total *   -0.00000     35.99297    61.71389    0.29314    98.00000

 Normal termination of Gaussian 16 at Fri Jan 24 19:49:16 2025.
