 Gaussian 16, Revision B.01,
 Gaussian 16:  ES64L-G16RevB.01 20-Dec-2017

 --------------------------------------------
 # nmr=giao b3lyp/def2TZVP pop=nbo scfcyc=200
 --------------------------------------------

 --------------
 MS-77 SPE NoRh
 --------------
 Symbolic Z-matrix:
 Charge =  0 Multiplicity = 1

                         Standard orientation:
 ---------------------------------------------------------------------
 Center     Atomic      Atomic             Coordinates (Angstroms)
 Number     Number       Type             X           Y           Z
 ---------------------------------------------------------------------
      1         15           0       -1.407529   -0.050406   -0.816398
      2         15           0        1.355084   -0.110996   -0.824862
      3          6           0       -0.042702   -0.994155    0.138116
      4          6           0       -2.805896    2.405461   -0.334891
      5          6           0       -3.393479    3.394599    0.678312
      6          6           0       -3.774668   -1.764319   -0.261386
      7          6           0       -4.953509   -2.491799   -0.923109
      8          6           0        2.926396    2.239113   -0.442275
      9          6           0        3.493940    3.296678    0.512534
     10          6           0        3.724085   -1.789053   -0.171271
     11          6           0        4.914035   -2.531883   -0.795172
     12          1           0       -0.062882   -2.016745   -0.286826
     13          1           0       -3.615191    2.030365   -0.972572
     14          1           0       -2.108613    2.931822   -0.992528
     15          1           0       -2.590280    3.764532    1.323354
     16          1           0       -4.092758    2.867426    1.333862
     17          1           0       -4.168259   -0.977415    0.389455
     18          1           0       -3.240613   -2.467755    0.380543
     19          1           0       -5.498589   -1.788744   -1.561529
     20          1           0       -4.566777   -3.272332   -1.587116
     21          1           0        2.349995    2.733161   -1.229167
     22          1           0        3.757977    1.726677   -0.937975
     23          1           0        2.665303    3.807345    1.014731
     24          1           0        4.069314    2.800565    1.300253
     25          1           0        3.201146   -2.465618    0.505442
     26          1           0        4.104205   -0.962717    0.436542
     27          1           0        4.540089   -3.349992   -1.418320
     28          1           0        5.449967   -1.853788   -1.467659
     29          6           0       -2.821470   -1.170026   -1.301463
     30          1           0       -2.361230   -1.962311   -1.899930
     31          1           0       -3.391120   -0.560125   -2.009531
     32          6           0       -2.083865    1.238349    0.346333
     33          1           0       -1.234409    1.599195    0.930525
     34          1           0       -2.754062    0.747212    1.053006
     35          6           0        2.033645    1.223599    0.281137
     36          1           0        2.581152    0.759615    1.103629
     37          1           0        1.172220    1.723428    0.726435
     38          6           0        2.761595   -1.265332   -1.242428
     39          1           0        3.330751   -0.703253   -1.989276
     40          1           0        2.301062   -2.094679   -1.784593
     41          6           0        4.375729    4.323779   -0.196751
     42          1           0        4.764365    5.060916    0.508525
     43          1           0        5.231600    3.845816   -0.680219
     44          1           0        3.817703    4.864077   -0.965062
     45          6           0        5.880349   -3.086144    0.251620
     46          1           0        5.383120   -3.798534    0.914313
     47          1           0        6.715746   -3.604415   -0.222461
     48          1           0        6.296112   -2.287824    0.871206
     49          6           0       -5.912843   -3.113042    0.091630
     50          1           0       -6.341758   -2.352921    0.750266
     51          1           0       -6.738292   -3.620066   -0.409325
     52          1           0       -5.405054   -3.849603    0.719820
     53          6           0       -4.103471    4.574639    0.014087
     54          1           0       -4.933439    4.238055   -0.611125
     55          1           0       -4.509689    5.258362    0.761701
     56          1           0       -3.418874    5.145918   -0.617255
     57          6           0       -1.238643   -1.590954    2.172373
     58          1           0       -2.141601   -1.092790    1.834801
     59          1           0       -1.321405   -2.663477    1.932148
     60          1           0       -1.191815   -1.490584    3.256807
     61          6           0        1.139432   -1.593053    2.184658
     62          1           0        1.224696   -2.664580    1.943815
     63          1           0        2.046534   -1.094409    1.859854
     64          1           0        1.079237   -1.494394    3.268647
     65          7           0       -0.045839   -0.976160    1.589907
 ---------------------------------------------------------------------

 SCF Done:  E(RB3LYP) =  -1487.70379451     A.U. after   14 cycles

      1  P    Isotropic =   241.8395   Anisotropy =   174.5324

      2  P    Isotropic =   242.0416   Anisotropy =   176.9655

      3  C    Isotropic =   106.6646   Anisotropy =    42.7749

      4  C    Isotropic =   148.3142   Anisotropy =    34.9652

      5  C    Isotropic =   151.3829   Anisotropy =    27.3617

      6  C    Isotropic =   151.4363   Anisotropy =    28.1830

      7  C    Isotropic =   151.1518   Anisotropy =    28.1446

      8  C    Isotropic =   149.1169   Anisotropy =    33.8306

      9  C    Isotropic =   151.4131   Anisotropy =    27.2861

     10  C    Isotropic =   150.9629   Anisotropy =    29.2182

     11  C    Isotropic =   151.1508   Anisotropy =    28.3630

     12  H    Isotropic =    29.4507   Anisotropy =     3.3501

     13  H    Isotropic =    30.8188   Anisotropy =     4.8704

     14  H    Isotropic =    30.5406   Anisotropy =     4.8101

     15  H    Isotropic =    30.5106   Anisotropy =     4.9888

     16  H    Isotropic =    30.5679   Anisotropy =     5.3379

     17  H    Isotropic =    30.4939   Anisotropy =     6.2439

     18  H    Isotropic =    30.6773   Anisotropy =     6.9621

     19  H    Isotropic =    30.7572   Anisotropy =     6.0350

     20  H    Isotropic =    30.6140   Anisotropy =     6.0895

     21  H    Isotropic =    30.5572   Anisotropy =     4.9575

     22  H    Isotropic =    30.8615   Anisotropy =     4.6846

     23  H    Isotropic =    30.4867   Anisotropy =     5.2491

     24  H    Isotropic =    30.5190   Anisotropy =     5.1765

     25  H    Isotropic =    30.6812   Anisotropy =     6.9726

     26  H    Isotropic =    30.5585   Anisotropy =     6.3276

     27  H    Isotropic =    30.6547   Anisotropy =     6.1023

     28  H    Isotropic =    30.7690   Anisotropy =     5.9073

     29  C    Isotropic =   147.5725   Anisotropy =    42.2860

     30  H    Isotropic =    30.0386   Anisotropy =     4.7443

     31  H    Isotropic =    30.3242   Anisotropy =     5.5026

     32  C    Isotropic =   159.9594   Anisotropy =    36.1029

     33  H    Isotropic =    30.2870   Anisotropy =     8.0886

     34  H    Isotropic =    29.9164   Anisotropy =     4.7120

     35  C    Isotropic =   160.0253   Anisotropy =    36.2857

     36  H    Isotropic =    29.8801   Anisotropy =     4.6345

     37  H    Isotropic =    30.3374   Anisotropy =     8.4937

     38  C    Isotropic =   146.9043   Anisotropy =    44.1628

     39  H    Isotropic =    30.2994   Anisotropy =     5.1571

     40  H    Isotropic =    30.0865   Anisotropy =     4.5491

     41  C    Isotropic =   166.7413   Anisotropy =    29.4422

     42  H    Isotropic =    30.7537   Anisotropy =    10.8958

     43  H    Isotropic =    31.0708   Anisotropy =     8.2001

     44  H    Isotropic =    31.0155   Anisotropy =     8.1503

     45  C    Isotropic =   166.9276   Anisotropy =    28.6499

     46  H    Isotropic =    31.1092   Anisotropy =     7.6367

     47  H    Isotropic =    30.7752   Anisotropy =    11.2392

     48  H    Isotropic =    31.0892   Anisotropy =     7.5022

     49  C    Isotropic =   166.9066   Anisotropy =    28.6115

     50  H    Isotropic =    31.0607   Anisotropy =     7.5612

     51  H    Isotropic =    30.7786   Anisotropy =    11.2279

     52  H    Isotropic =    31.0856   Anisotropy =     7.5941

     53  C    Isotropic =   166.8435   Anisotropy =    29.3562

     54  H    Isotropic =    31.0878   Anisotropy =     8.2853

     55  H    Isotropic =    30.7685   Anisotropy =    10.8824

     56  H    Isotropic =    31.0226   Anisotropy =     8.0677

     57  C    Isotropic =   131.1102   Anisotropy =    66.5080

     58  H    Isotropic =    29.3061   Anisotropy =     6.7665

     59  H    Isotropic =    30.1982   Anisotropy =     7.4790

     60  H    Isotropic =    29.4734   Anisotropy =     9.2220

     61  C    Isotropic =   131.0370   Anisotropy =    66.0524

     62  H    Isotropic =    30.1900   Anisotropy =     7.4714

     63  H    Isotropic =    29.2446   Anisotropy =     6.9879

     64  H    Isotropic =    29.4581   Anisotropy =     9.1456

     65  N    Isotropic =   208.1578   Anisotropy =    29.3693

 The electronic state is 1-A.
 Alpha  occ. eigenvalues --  -77.02865 -77.02843 -14.31730 -10.20861 -10.18766
 Alpha  occ. eigenvalues --  -10.18761 -10.16795 -10.16676 -10.16668 -10.16603
 Alpha  occ. eigenvalues --  -10.16574 -10.16547 -10.16525 -10.16521 -10.16499
 Alpha  occ. eigenvalues --  -10.16475 -10.16465 -10.16400 -10.15877 -10.15845
 Alpha  occ. eigenvalues --  -10.15717 -10.15671  -6.51458  -6.51433  -4.67623
 Alpha  occ. eigenvalues --   -4.67599  -4.67560  -4.67536  -4.67066  -4.67040
 Alpha  occ. eigenvalues --   -0.92428  -0.80281  -0.80168  -0.79542  -0.79518
 Alpha  occ. eigenvalues --   -0.75100  -0.74061  -0.72235  -0.72161  -0.71169
 Alpha  occ. eigenvalues --   -0.70656  -0.65210  -0.64948  -0.63099  -0.62884
 Alpha  occ. eigenvalues --   -0.60579  -0.58525  -0.58473  -0.58111  -0.57970
 Alpha  occ. eigenvalues --   -0.52148  -0.51577  -0.48410  -0.47943  -0.47808
 Alpha  occ. eigenvalues --   -0.47139  -0.47063  -0.45662  -0.45226  -0.43414
 Alpha  occ. eigenvalues --   -0.43128  -0.42888  -0.42775  -0.42650  -0.42309
 Alpha  occ. eigenvalues --   -0.42087  -0.41837  -0.40446  -0.40117  -0.39554
 Alpha  occ. eigenvalues --   -0.39476  -0.38888  -0.38537  -0.37454  -0.37204
 Alpha  occ. eigenvalues --   -0.36795  -0.36543  -0.35584  -0.35504  -0.35329
 Alpha  occ. eigenvalues --   -0.35172  -0.34846  -0.34313  -0.34080  -0.33833
 Alpha  occ. eigenvalues --   -0.33594  -0.33104  -0.33043  -0.32961  -0.32624
 Alpha  occ. eigenvalues --   -0.32506  -0.29958  -0.29899  -0.28190  -0.23466
 Alpha  occ. eigenvalues --   -0.20977  -0.16428
 Alpha virt. eigenvalues --    0.01055   0.02359   0.02483   0.03179   0.04255
 Alpha virt. eigenvalues --    0.04409   0.04715   0.05131   0.05343   0.05579
 Alpha virt. eigenvalues --    0.05849   0.06373   0.06474   0.07036   0.07903

 Mulliken charges:
               1
     1  P    0.160082
     2  P    0.165300
     3  C   -0.102784
     4  C   -0.170299
     5  C   -0.142531
     6  C   -0.206743
     7  C   -0.139122
     8  C   -0.180083
     9  C   -0.143786
    10  C   -0.204963
    11  C   -0.139714
    12  H    0.063068
    13  H    0.083198
    14  H    0.094829
    15  H    0.082674
    16  H    0.081689
    17  H    0.087133
    18  H    0.091275
    19  H    0.084312
    20  H    0.083314
    21  H    0.097989
    22  H    0.085330
    23  H    0.083356
    24  H    0.082034
    25  H    0.090701
    26  H    0.088254
    27  H    0.083197
    28  H    0.084194
    29  C   -0.266424
    30  H    0.107800
    31  H    0.115103
    32  C   -0.280367
    33  H    0.122521
    34  H    0.085654
    35  C   -0.267096
    36  H    0.088219
    37  H    0.112960
    38  C   -0.268216
    39  H    0.116722
    40  H    0.106253
    41  C   -0.325415
    42  H    0.110090
    43  H    0.100373
    44  H    0.103300
    45  C   -0.326148
    46  H    0.100229
    47  H    0.110592
    48  H    0.100317
    49  C   -0.325785
    50  H    0.100366
    51  H    0.110894
    52  H    0.100180
    53  C   -0.325221
    54  H    0.100613
    55  H    0.109769
    56  H    0.102748
    57  C   -0.267468
    58  H    0.120755
    59  H    0.085771
    60  H    0.114476
    61  C   -0.266471
    62  H    0.084603
    63  H    0.119873
    64  H    0.113972
    65  N   -0.167446
 Sum of Mulliken charges =  -0.00000

 Dipole moment (field-independent basis, Debye):
    X=             -0.0290    Y=             -1.0743    Z=              1.6352  Tot=              1.9567
 Quadrupole moment (field-independent basis, Debye-Ang):
   XX=           -157.4418   YY=           -159.4409   ZZ=           -166.6274
   XY=              0.2577   XZ=              0.1639   YZ=              1.7934

 Summary of Natural Population Analysis:

                                       Natural Population
                Natural  -----------------------------------------------
    Atom  No    Charge         Core      Valence    Rydberg      Total
 -----------------------------------------------------------------------
      P    1    0.78839      9.99863     4.17817    0.03481    14.21161
      P    2    0.78942      9.99864     4.17685    0.03509    14.21058
      C    3   -0.57790      1.99938     4.54106    0.03746     6.57790
      C    4   -0.38123      1.99942     4.36614    0.01566     6.38123
      C    5   -0.37557      1.99945     4.36291    0.01321     6.37557
      C    6   -0.39503      1.99942     4.37959    0.01602     6.39503
      C    7   -0.37602      1.99946     4.36310    0.01346     6.37602
      C    8   -0.38247      1.99942     4.36743    0.01562     6.38247
      C    9   -0.37525      1.99946     4.36259    0.01320     6.37525
      C   10   -0.39510      1.99942     4.37964    0.01604     6.39510
      C   11   -0.37622      1.99946     4.36329    0.01347     6.37622
      H   12    0.19098      0.00000     0.80256    0.00646     0.80902
      H   13    0.18555      0.00000     0.81214    0.00231     0.81445
      H   14    0.19689      0.00000     0.80095    0.00216     0.80311
      H   15    0.18882      0.00000     0.80963    0.00155     0.81118
      H   16    0.18783      0.00000     0.81057    0.00160     0.81217
      H   17    0.18433      0.00000     0.81345    0.00221     0.81567
      H   18    0.19058      0.00000     0.80716    0.00226     0.80942
      H   19    0.18794      0.00000     0.81035    0.00172     0.81206
      H   20    0.18833      0.00000     0.80997    0.00170     0.81167
      H   21    0.19810      0.00000     0.79974    0.00216     0.80190
      H   22    0.18561      0.00000     0.81206    0.00233     0.81439
      H   23    0.18910      0.00000     0.80936    0.00154     0.81090
      H   24    0.18805      0.00000     0.81036    0.00159     0.81195
      H   25    0.19058      0.00000     0.80720    0.00222     0.80942
      H   26    0.18421      0.00000     0.81353    0.00226     0.81579
      H   27    0.18831      0.00000     0.80999    0.00170     0.81169
      H   28    0.18770      0.00000     0.81059    0.00171     0.81230
      C   29   -0.68523      1.99939     4.66391    0.02193     6.68523
      H   30    0.21977      0.00000     0.77858    0.00165     0.78023
      H   31    0.22180      0.00000     0.77656    0.00164     0.77820
      C   32   -0.69077      1.99939     4.66837    0.02301     6.69077
      H   33    0.22353      0.00000     0.77392    0.00255     0.77647
      H   34    0.19458      0.00000     0.80148    0.00394     0.80542
      C   35   -0.68737      1.99940     4.66495    0.02303     6.68737
      H   36    0.19489      0.00000     0.80115    0.00396     0.80511
      H   37    0.22118      0.00000     0.77658    0.00224     0.77882
      C   38   -0.68865      1.99938     4.66721    0.02206     6.68865
      H   39    0.22153      0.00000     0.77683    0.00164     0.77847
      H   40    0.21976      0.00000     0.77861    0.00164     0.78024
      C   41   -0.58499      1.99947     4.57943    0.00608     6.58499
      H   42    0.20215      0.00000     0.79667    0.00118     0.79785
      H   43    0.19478      0.00000     0.80377    0.00145     0.80522
      H   44    0.19636      0.00000     0.80218    0.00145     0.80364
      C   45   -0.58552      1.99947     4.57987    0.00618     6.58552
      H   46    0.19439      0.00000     0.80415    0.00146     0.80561
      H   47    0.20227      0.00000     0.79650    0.00123     0.79773
      H   48    0.19441      0.00000     0.80414    0.00145     0.80559
      C   49   -0.58553      1.99947     4.57987    0.00618     6.58553
      H   50    0.19446      0.00000     0.80408    0.00145     0.80554
      H   51    0.20250      0.00000     0.79627    0.00123     0.79750
      H   52    0.19443      0.00000     0.80411    0.00146     0.80557
      C   53   -0.58488      1.99947     4.57933    0.00608     6.58488
      H   54    0.19494      0.00000     0.80361    0.00145     0.80506
      H   55    0.20189      0.00000     0.79693    0.00119     0.79811
      H   56    0.19611      0.00000     0.80243    0.00145     0.80389
      C   57   -0.39726      1.99936     4.38610    0.01180     6.39726
      H   58    0.19968      0.00000     0.79830    0.00202     0.80032
      H   59    0.15340      0.00000     0.84195    0.00465     0.84660
      H   60    0.19454      0.00000     0.80377    0.00169     0.80546
      C   61   -0.39679      1.99936     4.38558    0.01186     6.39679
      H   62    0.15344      0.00000     0.84187    0.00468     0.84656
      H   63    0.19920      0.00000     0.79875    0.00205     0.80080
      H   64    0.19454      0.00000     0.80377    0.00170     0.80546
      N   65   -0.44943      1.99952     5.41798    0.03193     7.44943
 =======================================================================
   * Total *   -0.00000     59.98585   133.52997    0.48418   194.00000

 Normal termination of Gaussian 16 at Fri Jan 24 20:48:08 2025.
