 Gaussian 16, Revision B.01,
 Gaussian 16:  ES64L-G16RevB.01 20-Dec-2017

 --------------------------------------------
 # nmr=giao b3lyp/def2TZVP pop=nbo scfcyc=200
 --------------------------------------------

 --------------
 MS-75 SPE NoRh
 --------------
 Symbolic Z-matrix:
 Charge =  0 Multiplicity = 1

                         Standard orientation:
 ---------------------------------------------------------------------
 Center     Atomic      Atomic             Coordinates (Angstroms)
 Number     Number       Type             X           Y           Z
 ---------------------------------------------------------------------
      1         15           0        1.338816   -1.346367    0.019956
      2         15           0       -1.346356   -1.343419    0.008388
      3          8           0        2.037002   -0.449911    1.189719
      4          8           0        2.491823   -1.643334   -1.094700
      5          8           0       -2.033549   -0.463980    1.198894
      6          8           0       -2.504771   -1.610917   -1.107441
      7          6           0        0.000081   -0.164577   -0.650885
      8          6           0        2.745032   -1.056232    2.307939
      9          6           0        3.153290    0.047034    3.256987
     10          6           0        3.439909   -0.685262   -1.651837
     11          6           0        4.490354   -1.457645   -2.416393
     12          6           0       -2.758215   -1.095296    2.293658
     13          6           0       -3.133548   -0.021556    3.287625
     14          6           0       -3.447221   -0.637284   -1.649197
     15          6           0       -4.508067   -1.391671   -2.417962
     16          1           0        0.001097   -0.361127   -1.744260
     17          1           0        3.618581   -1.591908    1.927074
     18          1           0        2.078687   -1.771177    2.795416
     19          1           0        3.682192   -0.381778    4.111479
     20          1           0        2.279913    0.583684    3.625728
     21          1           0        3.818693    0.758729    2.766762
     22          1           0        3.881970   -0.109166   -0.837055
     23          1           0        2.894739   -0.003700   -2.307278
     24          1           0        5.206109   -0.760534   -2.856440
     25          1           0        5.034467   -2.135968   -1.758234
     26          1           0        4.038181   -2.038013   -3.221931
     27          1           0       -2.112701   -1.850776    2.748128
     28          1           0       -3.646779   -1.589961    1.890802
     29          1           0       -3.675384   -0.470508    4.122694
     30          1           0       -2.243808    0.473093    3.678456
     31          1           0       -3.776971    0.729526    2.828543
     32          1           0       -2.899361    0.046326   -2.298394
     33          1           0       -3.880368   -0.068018   -0.824927
     34          1           0       -5.218720   -0.682415   -2.846390
     35          1           0       -4.066046   -1.966018   -3.231629
     36          1           0       -5.056000   -2.071952   -1.765036
     37          6           0        1.214403    1.934436   -0.752136
     38          6           0       -1.210336    1.940847   -0.723943
     39          6           0        1.262018    3.366496   -0.225966
     40          1           0        1.260480    1.945805   -1.857520
     41          1           0        2.084057    1.394253   -0.384895
     42          6           0       -1.236761    3.373760   -0.195949
     43          1           0       -1.282318    1.954909   -1.827319
     44          1           0       -2.074223    1.406280   -0.336104
     45          6           0        0.009433    4.147569   -0.621493
     46          1           0        2.161129    3.853255   -0.611211
     47          1           0        1.351285    3.336307    0.863988
     48          1           0       -2.143224    3.865006   -0.558572
     49          1           0       -1.300532    3.342090    0.895841
     50          1           0        0.017478    5.141621   -0.169028
     51          1           0       -0.003520    4.295852   -1.707305
     52          7           0        0.005388    1.230643   -0.295861
 ---------------------------------------------------------------------

 SCF Done:  E(RB3LYP) =  -1590.94584327     A.U. after   14 cycles

      1  P    Isotropic =    92.0157   Anisotropy =   223.3069

      2  P    Isotropic =    91.6434   Anisotropy =   223.9541

      3  O    Isotropic =   217.6890   Anisotropy =    60.3955

      4  O    Isotropic =   213.2192   Anisotropy =    60.5502

      5  O    Isotropic =   217.8589   Anisotropy =    60.5889

      6  O    Isotropic =   212.3287   Anisotropy =    60.3533

      7  C    Isotropic =    93.7509   Anisotropy =    39.1739

      8  C    Isotropic =   111.7799   Anisotropy =    77.5134

      9  C    Isotropic =   165.1163   Anisotropy =    26.0289

     10  C    Isotropic =   118.9204   Anisotropy =    58.7557

     11  C    Isotropic =   165.4210   Anisotropy =    28.3095

     12  C    Isotropic =   111.5559   Anisotropy =    77.7465

     13  C    Isotropic =   165.1618   Anisotropy =    25.9214

     14  C    Isotropic =   118.6686   Anisotropy =    59.0849

     15  C    Isotropic =   165.5040   Anisotropy =    28.3346

     16  H    Isotropic =    29.1972   Anisotropy =     3.4575

     17  H    Isotropic =    27.9623   Anisotropy =     7.2541

     18  H    Isotropic =    28.1434   Anisotropy =     6.0892

     19  H    Isotropic =    30.8624   Anisotropy =    10.5451

     20  H    Isotropic =    30.4595   Anisotropy =     6.0559

     21  H    Isotropic =    30.5170   Anisotropy =     6.1836

     22  H    Isotropic =    27.8635   Anisotropy =     4.8943

     23  H    Isotropic =    28.3865   Anisotropy =     5.3243

     24  H    Isotropic =    30.9172   Anisotropy =     9.7543

     25  H    Isotropic =    30.6870   Anisotropy =     7.8915

     26  H    Isotropic =    30.5487   Anisotropy =     7.8431

     27  H    Isotropic =    28.1335   Anisotropy =     6.0595

     28  H    Isotropic =    27.9507   Anisotropy =     7.2333

     29  H    Isotropic =    30.8721   Anisotropy =    10.5461

     30  H    Isotropic =    30.4449   Anisotropy =     6.1234

     31  H    Isotropic =    30.5156   Anisotropy =     6.1871

     32  H    Isotropic =    28.3894   Anisotropy =     5.4017

     33  H    Isotropic =    27.8615   Anisotropy =     4.8722

     34  H    Isotropic =    30.9273   Anisotropy =     9.7592

     35  H    Isotropic =    30.5791   Anisotropy =     7.8394

     36  H    Isotropic =    30.6897   Anisotropy =     7.8851

     37  C    Isotropic =   122.1184   Anisotropy =    40.7644

     38  C    Isotropic =   122.1083   Anisotropy =    40.3874

     39  C    Isotropic =   152.7719   Anisotropy =     6.8992

     40  H    Isotropic =    30.1109   Anisotropy =     5.9019

     41  H    Isotropic =    28.5960   Anisotropy =     7.7553

     42  C    Isotropic =   152.7303   Anisotropy =     6.9592

     43  H    Isotropic =    30.1022   Anisotropy =     5.9403

     44  H    Isotropic =    28.5724   Anisotropy =     7.8085

     45  C    Isotropic =   155.5173   Anisotropy =     8.5278

     46  H    Isotropic =    30.4373   Anisotropy =     9.3588

     47  H    Isotropic =    30.2592   Anisotropy =     6.8367

     48  H    Isotropic =    30.4295   Anisotropy =     9.3468

     49  H    Isotropic =    30.2592   Anisotropy =     6.8110

     50  H    Isotropic =    30.3134   Anisotropy =    10.2003

     51  H    Isotropic =    30.8342   Anisotropy =     8.7066

     52  N    Isotropic =   191.5390   Anisotropy =    13.4128

 The electronic state is 1-A.
 Alpha  occ. eigenvalues --  -77.08804 -77.08794 -19.13100 -19.13094 -19.13081
 Alpha  occ. eigenvalues --  -19.13038 -14.30729 -10.22632 -10.22613 -10.22149
 Alpha  occ. eigenvalues --  -10.22142 -10.19783 -10.18533 -10.18526 -10.16584
 Alpha  occ. eigenvalues --  -10.16564 -10.16354 -10.16347 -10.16200 -10.16082
 Alpha  occ. eigenvalues --  -10.16078  -6.56503  -6.56494  -4.72798  -4.72790
 Alpha  occ. eigenvalues --   -4.72621  -4.72612  -4.72077  -4.72069  -1.03483
 Alpha  occ. eigenvalues --   -1.03336  -1.00288  -1.00261  -0.92223  -0.79750
 Alpha  occ. eigenvalues --   -0.76997  -0.76742  -0.75682  -0.75650  -0.74945
 Alpha  occ. eigenvalues --   -0.70604  -0.64050  -0.63960  -0.62779  -0.62493
 Alpha  occ. eigenvalues --   -0.61713  -0.61446  -0.56527  -0.55810  -0.54599
 Alpha  occ. eigenvalues --   -0.50877  -0.50516  -0.50306  -0.48333  -0.48043
 Alpha  occ. eigenvalues --   -0.47122  -0.47079  -0.46096  -0.45703  -0.44791
 Alpha  occ. eigenvalues --   -0.43098  -0.43017  -0.41773  -0.41352  -0.41327
 Alpha  occ. eigenvalues --   -0.41252  -0.40854  -0.40157  -0.39418  -0.39013
 Alpha  occ. eigenvalues --   -0.38751  -0.38640  -0.37987  -0.37859  -0.37336
 Alpha  occ. eigenvalues --   -0.37274  -0.35722  -0.34896  -0.34757  -0.34036
 Alpha  occ. eigenvalues --   -0.33605  -0.32792  -0.32729  -0.31834  -0.31178
 Alpha  occ. eigenvalues --   -0.30266  -0.29190  -0.29115  -0.27960  -0.23888
 Alpha  occ. eigenvalues --   -0.20694  -0.17849
 Alpha virt. eigenvalues --   -0.00441   0.02542   0.02949   0.03383   0.03774
 Alpha virt. eigenvalues --    0.04166   0.05307   0.05751   0.06099   0.06463
 Alpha virt. eigenvalues --    0.07088   0.07600   0.07710   0.08221   0.08765

 Mulliken charges:
               1
     1  P    0.391824
     2  P    0.392654
     3  O   -0.356655
     4  O   -0.345180
     5  O   -0.357846
     6  O   -0.345320
     7  C   -0.109777
     8  C   -0.024903
     9  C   -0.302517
    10  C   -0.058255
    11  C   -0.289664
    12  C   -0.026514
    13  C   -0.301543
    14  C   -0.057310
    15  C   -0.289760
    16  H    0.057761
    17  H    0.097762
    18  H    0.097399
    19  H    0.102533
    20  H    0.114389
    21  H    0.106220
    22  H    0.100490
    23  H    0.095097
    24  H    0.099446
    25  H    0.108993
    26  H    0.113089
    27  H    0.098183
    28  H    0.098151
    29  H    0.102568
    30  H    0.113936
    31  H    0.106560
    32  H    0.094864
    33  H    0.100124
    34  H    0.099446
    35  H    0.113200
    36  H    0.108921
    37  C   -0.136395
    38  C   -0.137463
    39  C   -0.159936
    40  H    0.052934
    41  H    0.115501
    42  C   -0.158916
    43  H    0.052196
    44  H    0.115823
    45  C   -0.144133
    46  H    0.084575
    47  H    0.081401
    48  H    0.084653
    49  H    0.080957
    50  H    0.089671
    51  H    0.074619
    52  N   -0.143857
 Sum of Mulliken charges =  -0.00000

 Dipole moment (field-independent basis, Debye):
    X=             -0.0103    Y=              2.5504    Z=              0.5771  Tot=              2.6149
 Quadrupole moment (field-independent basis, Debye-Ang):
   XX=           -129.1258   YY=           -156.1451   ZZ=           -136.0475
   XY=             -0.0332   XZ=             -0.1015   YZ=             -5.3627

 Summary of Natural Population Analysis:

                                       Natural Population
                Natural  -----------------------------------------------
    Atom  No    Charge         Core      Valence    Rydberg      Total
 -----------------------------------------------------------------------
      P    1    1.33436      9.99856     3.57388    0.09320    13.66564
      P    2    1.33505      9.99856     3.57323    0.09316    13.66495
      O    3   -0.81089      1.99979     6.79507    0.01603     8.81089
      O    4   -0.79277      1.99982     6.77750    0.01545     8.79277
      O    5   -0.81057      1.99980     6.79480    0.01598     8.81057
      O    6   -0.79392      1.99982     6.77862    0.01548     8.79392
      C    7   -0.68101      1.99939     4.64651    0.03511     6.68101
      C    8   -0.05079      1.99931     4.03205    0.01943     6.05079
      C    9   -0.60520      1.99947     4.59389    0.01185     6.60520
      C   10   -0.06906      1.99930     4.05467    0.01509     6.06906
      C   11   -0.60515      1.99946     4.59413    0.01155     6.60515
      C   12   -0.05155      1.99931     4.03282    0.01942     6.05155
      C   13   -0.60538      1.99947     4.59404    0.01187     6.60538
      C   14   -0.06879      1.99930     4.05444    0.01504     6.06879
      C   15   -0.60508      1.99946     4.59408    0.01153     6.60508
      H   16    0.19635      0.00000     0.79903    0.00461     0.80365
      H   17    0.16562      0.00000     0.83219    0.00219     0.83438
      H   18    0.17144      0.00000     0.82580    0.00276     0.82856
      H   19    0.20637      0.00000     0.79270    0.00093     0.79363
      H   20    0.20992      0.00000     0.78868    0.00140     0.79008
      H   21    0.20511      0.00000     0.79365    0.00125     0.79489
      H   22    0.16709      0.00000     0.83015    0.00276     0.83291
      H   23    0.16563      0.00000     0.83147    0.00291     0.83437
      H   24    0.20441      0.00000     0.79469    0.00090     0.79559
      H   25    0.20688      0.00000     0.79192    0.00121     0.79312
      H   26    0.20891      0.00000     0.78990    0.00120     0.79109
      H   27    0.17204      0.00000     0.82522    0.00274     0.82796
      H   28    0.16560      0.00000     0.83221    0.00218     0.83440
      H   29    0.20657      0.00000     0.79250    0.00093     0.79343
      H   30    0.20989      0.00000     0.78873    0.00138     0.79011
      H   31    0.20539      0.00000     0.79337    0.00124     0.79461
      H   32    0.16581      0.00000     0.83126    0.00293     0.83419
      H   33    0.16693      0.00000     0.83032    0.00274     0.83307
      H   34    0.20432      0.00000     0.79478    0.00090     0.79568
      H   35    0.20890      0.00000     0.78990    0.00120     0.79110
      H   36    0.20678      0.00000     0.79201    0.00120     0.79322
      C   37   -0.21171      1.99934     4.19582    0.01654     6.21171
      C   38   -0.21171      1.99934     4.19589    0.01647     6.21171
      C   39   -0.39037      1.99941     4.37627    0.01468     6.39037
      H   40    0.14118      0.00000     0.85288    0.00594     0.85882
      H   41    0.20871      0.00000     0.78866    0.00264     0.79129
      C   42   -0.39026      1.99941     4.37618    0.01466     6.39026
      H   43    0.14107      0.00000     0.85299    0.00594     0.85893
      H   44    0.20900      0.00000     0.78835    0.00266     0.79100
      C   45   -0.38464      1.99942     4.37210    0.01311     6.38464
      H   46    0.20025      0.00000     0.79838    0.00138     0.79975
      H   47    0.19889      0.00000     0.79902    0.00209     0.80111
      H   48    0.20017      0.00000     0.79845    0.00138     0.79983
      H   49    0.19878      0.00000     0.79913    0.00209     0.80122
      H   50    0.20153      0.00000     0.79716    0.00132     0.79847
      H   51    0.18682      0.00000     0.81122    0.00196     0.81318
      N   52   -0.43694      1.99944     5.40118    0.03632     7.43694
 =======================================================================
   * Total *    0.00000     57.98719   125.43391    0.57890   184.00000

 1\1\GINC-G8NODEC2\SP\RB3LYP\def2TZVP\C14H31N1O4P2\ROOT\24-Jan-2025\0\\
 # nmr=giao b3lyp/def2TZVP pop=nbo scfcyc=200\\MS-75 SPE NoRh\\0,1\P,0,
 0.25,-1.336,-0.124\P,0,0.265,1.349,-0.095\O,0,1.041,-2.056,1.107\O,0,0
 .044,-2.471,-1.277\O,0,1.043,2.014,1.176\O,0,0.098,2.525,-1.212\C,0,1.
 49,0.006,-0.672\C,0,0.339,-2.777,2.159\C,0,1.356,-3.205,3.192\C,0,1.04
 2,-3.416,-1.765\C,0,0.333,-4.451,-2.608\C,0,0.324,2.726,2.224\C,0,1.31
 1,3.081,3.311\C,0,1.118,3.47,-1.655\C,0,0.436,4.546,-2.469\H,0,1.387,0
 .022,-1.778\H,0,-0.166,-3.642,1.721\H,0,-0.412,-2.114,2.594\H,0,0.854,

 Normal termination of Gaussian 16 at Fri Jan 24 20:26:43 2025.
