 Gaussian 16, Revision B.01,
 Gaussian 16:  ES64L-G16RevB.01 20-Dec-2017

 --------------------------------------------
 # nmr=giao b3lyp/def2TZVP pop=nbo scfcyc=200
 --------------------------------------------

 --------------
 MS-76 SPE NoRh
 --------------
 Symbolic Z-matrix:
 Charge =  0 Multiplicity = 1

                         Standard orientation:
 ---------------------------------------------------------------------
 Center     Atomic      Atomic             Coordinates (Angstroms)
 Number     Number       Type             X           Y           Z
 ---------------------------------------------------------------------
      1         15           0        1.339833   -1.344084    0.107605
      2         15           0       -1.347356   -1.340781    0.096233
      3          8           0        2.043873   -0.371359    1.213002
      4          8           0        2.486107   -1.704923   -0.993955
      5          8           0       -2.040678   -0.384960    1.222155
      6          8           0       -2.498481   -1.674350   -1.009241
      7          6           0        0.000096   -0.203984   -0.630074
      8          6           0        2.755702   -0.902921    2.366982
      9          6           0        3.168864    0.259301    3.239434
     10          6           0        3.421323   -0.774828   -1.616876
     11          6           0        4.466115   -1.582743   -2.350955
     12          6           0       -2.768536   -0.943997    2.354108
     13          6           0       -3.153964    0.193317    3.271620
     14          6           0       -3.426793   -0.727755   -1.618714
     15          6           0       -4.481282   -1.517085   -2.359450
     16          1           0        0.001251   -0.454437   -1.712072
     17          1           0        3.626359   -1.464828    2.019241
     18          1           0        2.088222   -1.583280    2.901138
     19          1           0        3.697633   -0.113898    4.118231
     20          1           0        2.296377    0.822392    3.574836
     21          1           0        3.834406    0.935248    2.702872
     22          1           0        3.870301   -0.151834   -0.842412
     23          1           0        2.863083   -0.134295   -2.302423
     24          1           0        5.171973   -0.907515   -2.839265
     25          1           0        5.023313   -2.220020   -1.663887
     26          1           0        4.008038   -2.209558   -3.116899
     27          1           0       -2.122225   -1.663308    2.861644
     28          1           0       -3.651965   -1.468461    1.980956
     29          1           0       -3.696949   -0.200090    4.132948
     30          1           0       -2.268350    0.718843    3.631501
     31          1           0       -3.799198    0.908088    2.760732
     32          1           0       -2.864993   -0.084748   -2.298574
     33          1           0       -3.868026   -0.110096   -0.834861
     34          1           0       -5.181821   -0.829043   -2.837873
     35          1           0       -4.031161   -2.139293   -3.133386
     36          1           0       -5.043125   -2.156830   -1.678054
     37          6           0        1.205133    1.896815   -0.848139
     38          6           0       -1.201674    1.905666   -0.816603
     39          6           0        1.178034    3.364653   -0.442617
     40          1           0        1.273399    1.827135   -1.946976
     41          1           0        2.088825    1.436232   -0.408928
     42          6           0       -1.151752    3.373695   -0.411950
     43          1           0       -1.298476    1.838650   -1.913312
     44          1           0       -2.076569    1.452251   -0.354874
     45          1           0        2.027126    3.889340   -0.879982
     46          1           0        1.237803    3.444146    0.650652
     47          1           0       -2.009249    3.904888   -0.825901
     48          1           0       -1.182018    3.453062    0.682991
     49          7           0        0.005132    1.208122   -0.348209
     50          8           0        0.008595    4.015164   -0.915555
 ---------------------------------------------------------------------

 SCF Done:  E(RB3LYP) =  -1626.85689950     A.U. after   14 cycles

      1  P    Isotropic =    91.9590   Anisotropy =   223.9459

      2  P    Isotropic =    91.5559   Anisotropy =   224.5086

      3  O    Isotropic =   217.2550   Anisotropy =    60.9401

      4  O    Isotropic =   212.9249   Anisotropy =    60.2176

      5  O    Isotropic =   217.7582   Anisotropy =    60.9307

      6  O    Isotropic =   211.9772   Anisotropy =    60.2860

      7  C    Isotropic =    95.2410   Anisotropy =    37.4001

      8  C    Isotropic =   111.6114   Anisotropy =    77.6997

      9  C    Isotropic =   165.1403   Anisotropy =    26.0835

     10  C    Isotropic =   118.8208   Anisotropy =    59.5902

     11  C    Isotropic =   165.5267   Anisotropy =    28.1667

     12  C    Isotropic =   111.4681   Anisotropy =    78.1066

     13  C    Isotropic =   165.1639   Anisotropy =    26.0898

     14  C    Isotropic =   118.5502   Anisotropy =    59.7312

     15  C    Isotropic =   165.4809   Anisotropy =    28.1708

     16  H    Isotropic =    29.2132   Anisotropy =     3.3554

     17  H    Isotropic =    27.9625   Anisotropy =     7.1930

     18  H    Isotropic =    28.1263   Anisotropy =     6.0448

     19  H    Isotropic =    30.8758   Anisotropy =    10.5212

     20  H    Isotropic =    30.4195   Anisotropy =     6.1484

     21  H    Isotropic =    30.5710   Anisotropy =     6.2570

     22  H    Isotropic =    27.8996   Anisotropy =     4.8982

     23  H    Isotropic =    28.3786   Anisotropy =     5.1655

     24  H    Isotropic =    30.9018   Anisotropy =     9.7827

     25  H    Isotropic =    30.6891   Anisotropy =     7.8930

     26  H    Isotropic =    30.5470   Anisotropy =     7.8243

     27  H    Isotropic =    28.1404   Anisotropy =     6.0061

     28  H    Isotropic =    27.9637   Anisotropy =     7.1856

     29  H    Isotropic =    30.8731   Anisotropy =    10.5270

     30  H    Isotropic =    30.4371   Anisotropy =     6.2033

     31  H    Isotropic =    30.5616   Anisotropy =     6.2532

     32  H    Isotropic =    28.3601   Anisotropy =     5.2445

     33  H    Isotropic =    27.8869   Anisotropy =     4.8705

     34  H    Isotropic =    30.8950   Anisotropy =     9.7762

     35  H    Isotropic =    30.5503   Anisotropy =     7.8114

     36  H    Isotropic =    30.6813   Anisotropy =     7.8798

     37  C    Isotropic =   122.6574   Anisotropy =    31.3972

     38  C    Isotropic =   122.7390   Anisotropy =    30.8109

     39  C    Isotropic =   111.4427   Anisotropy =    56.3270

     40  H    Isotropic =    29.8217   Anisotropy =     6.4446

     41  H    Isotropic =    28.8656   Anisotropy =     7.0323

     42  C    Isotropic =   111.4496   Anisotropy =    56.1258

     43  H    Isotropic =    29.7999   Anisotropy =     6.4677

     44  H    Isotropic =    28.8518   Anisotropy =     7.0847

     45  H    Isotropic =    28.2296   Anisotropy =     6.9794

     46  H    Isotropic =    28.2837   Anisotropy =     6.4017

     47  H    Isotropic =    28.2183   Anisotropy =     6.9763

     48  H    Isotropic =    28.2798   Anisotropy =     6.3848

     49  N    Isotropic =   195.9971   Anisotropy =    13.6775

     50  O    Isotropic =   283.7545   Anisotropy =    67.3104

 The electronic state is 1-A.
 Alpha  occ. eigenvalues --  -77.09217 -77.09215 -19.13481 -19.13463 -19.13439
 Alpha  occ. eigenvalues --  -19.13397 -19.12490 -14.31514 -10.22942 -10.22914
 Alpha  occ. eigenvalues --  -10.22463 -10.22456 -10.21223 -10.21221 -10.20248
 Alpha  occ. eigenvalues --  -10.19105 -10.19088 -10.16869 -10.16840 -10.16584
 Alpha  occ. eigenvalues --  -10.16582  -6.56914  -6.56914  -4.73208  -4.73207
 Alpha  occ. eigenvalues --   -4.73034  -4.73032  -4.72490  -4.72490  -1.03872
 Alpha  occ. eigenvalues --   -1.03703  -1.03663  -1.00645  -1.00620  -0.92289
 Alpha  occ. eigenvalues --   -0.77617  -0.77152  -0.76954  -0.75942  -0.75914
 Alpha  occ. eigenvalues --   -0.73245  -0.66737  -0.65409  -0.64160  -0.62836
 Alpha  occ. eigenvalues --   -0.62555  -0.62394  -0.57301  -0.56939  -0.55333
 Alpha  occ. eigenvalues --   -0.51467  -0.51139  -0.50844  -0.48702  -0.48416
 Alpha  occ. eigenvalues --   -0.47670  -0.47402  -0.47341  -0.47093  -0.46349
 Alpha  occ. eigenvalues --   -0.45735  -0.43268  -0.43208  -0.42600  -0.41745
 Alpha  occ. eigenvalues --   -0.41650  -0.41252  -0.41077  -0.39643  -0.39336
 Alpha  occ. eigenvalues --   -0.39186  -0.39031  -0.38971  -0.38103  -0.37697
 Alpha  occ. eigenvalues --   -0.37547  -0.37079  -0.36002  -0.35087  -0.34711
 Alpha  occ. eigenvalues --   -0.34418  -0.33859  -0.32989  -0.31226  -0.30617
 Alpha  occ. eigenvalues --   -0.29545  -0.29477  -0.28364  -0.26542  -0.24023
 Alpha  occ. eigenvalues --   -0.21320  -0.18341
 Alpha virt. eigenvalues --   -0.00856   0.02385   0.02687   0.03106   0.03314
 Alpha virt. eigenvalues --    0.04906   0.05078   0.05552   0.06007   0.06880
 Alpha virt. eigenvalues --    0.07279   0.07404   0.07434   0.08293   0.08493

 Mulliken charges:
               1
     1  P    0.395262
     2  P    0.395585
     3  O   -0.360091
     4  O   -0.344580
     5  O   -0.360488
     6  O   -0.344912
     7  C   -0.116831
     8  C   -0.025715
     9  C   -0.302940
    10  C   -0.055515
    11  C   -0.290208
    12  C   -0.027219
    13  C   -0.302654
    14  C   -0.054249
    15  C   -0.290228
    16  H    0.062907
    17  H    0.098815
    18  H    0.098406
    19  H    0.104014
    20  H    0.114624
    21  H    0.105952
    22  H    0.099615
    23  H    0.094709
    24  H    0.100606
    25  H    0.109651
    26  H    0.113787
    27  H    0.099396
    28  H    0.099447
    29  H    0.104132
    30  H    0.114438
    31  H    0.106299
    32  H    0.094211
    33  H    0.098999
    34  H    0.100635
    35  H    0.113775
    36  H    0.109500
    37  C   -0.109267
    38  C   -0.110318
    39  C   -0.012510
    40  H    0.053622
    41  H    0.112773
    42  C   -0.010936
    43  H    0.052300
    44  H    0.113318
    45  H    0.095632
    46  H    0.071942
    47  H    0.095650
    48  H    0.071219
    49  N   -0.158549
    50  O   -0.324014
 Sum of Mulliken charges =  -0.00000

 Dipole moment (field-independent basis, Debye):
    X=             -0.0026    Y=              1.0838    Z=              1.0419  Tot=              1.5034
 Quadrupole moment (field-independent basis, Debye-Ang):
   XX=           -123.8230   YY=           -164.4753   ZZ=           -134.2669
   XY=             -0.0433   XZ=             -0.1672   YZ=             -0.4292

 Summary of Natural Population Analysis:

                                       Natural Population
                Natural  -----------------------------------------------
    Atom  No    Charge         Core      Valence    Rydberg      Total
 -----------------------------------------------------------------------
      P    1    1.33554      9.99857     3.57270    0.09319    13.66446
      P    2    1.33605      9.99857     3.57216    0.09322    13.66395
      O    3   -0.81214      1.99980     6.79636    0.01599     8.81214
      O    4   -0.79187      1.99982     6.77658    0.01547     8.79187
      O    5   -0.81176      1.99980     6.79601    0.01596     8.81176
      O    6   -0.79268      1.99982     6.77735    0.01552     8.79268
      C    7   -0.68428      1.99939     4.64985    0.03503     6.68428
      C    8   -0.05100      1.99931     4.03226    0.01943     6.05100
      C    9   -0.60552      1.99947     4.59422    0.01184     6.60552
      C   10   -0.06879      1.99930     4.05436    0.01513     6.06879
      C   11   -0.60537      1.99946     4.59437    0.01154     6.60537
      C   12   -0.05167      1.99931     4.03299    0.01937     6.05167
      C   13   -0.60561      1.99947     4.59432    0.01182     6.60561
      C   14   -0.06871      1.99930     4.05428    0.01512     6.06871
      C   15   -0.60540      1.99946     4.59441    0.01154     6.60540
      H   16    0.19840      0.00000     0.79722    0.00438     0.80160
      H   17    0.16619      0.00000     0.83164    0.00217     0.83381
      H   18    0.17183      0.00000     0.82543    0.00274     0.82817
      H   19    0.20739      0.00000     0.79168    0.00092     0.79261
      H   20    0.21013      0.00000     0.78850    0.00137     0.78987
      H   21    0.20487      0.00000     0.79387    0.00126     0.79513
      H   22    0.16680      0.00000     0.83043    0.00277     0.83320
      H   23    0.16520      0.00000     0.83180    0.00299     0.83480
      H   24    0.20517      0.00000     0.79394    0.00089     0.79483
      H   25    0.20724      0.00000     0.79156    0.00120     0.79276
      H   26    0.20935      0.00000     0.78947    0.00119     0.79065
      H   27    0.17249      0.00000     0.82480    0.00271     0.82751
      H   28    0.16630      0.00000     0.83154    0.00217     0.83370
      H   29    0.20754      0.00000     0.79154    0.00092     0.79246
      H   30    0.21007      0.00000     0.78858    0.00136     0.78993
      H   31    0.20508      0.00000     0.79367    0.00125     0.79492
      H   32    0.16531      0.00000     0.83168    0.00301     0.83469
      H   33    0.16653      0.00000     0.83071    0.00276     0.83347
      H   34    0.20514      0.00000     0.79397    0.00089     0.79486
      H   35    0.20935      0.00000     0.78946    0.00119     0.79065
      H   36    0.20712      0.00000     0.79168    0.00120     0.79288
      C   37   -0.24337      1.99934     4.22822    0.01581     6.24337
      C   38   -0.24337      1.99934     4.22829    0.01574     6.24337
      C   39   -0.07341      1.99926     4.05439    0.01976     6.07341
      H   40    0.15289      0.00000     0.84268    0.00443     0.84711
      H   41    0.21336      0.00000     0.78431    0.00233     0.78664
      C   42   -0.07313      1.99926     4.05407    0.01980     6.07313
      H   43    0.15264      0.00000     0.84294    0.00442     0.84736
      H   44    0.21367      0.00000     0.78398    0.00235     0.78633
      H   45    0.18574      0.00000     0.81280    0.00147     0.81426
      H   46    0.15749      0.00000     0.83956    0.00295     0.84251
      H   47    0.18566      0.00000     0.81288    0.00147     0.81434
      H   48    0.15720      0.00000     0.83988    0.00293     0.84280
      N   49   -0.43498      1.99945     5.40059    0.03494     7.43498
      O   50   -0.49466      1.99981     6.48119    0.01366     8.49466
 =======================================================================
   * Total *    0.00000     57.98730   125.43119    0.58152   184.00000

 1\1\GINC-G2NODEC3\SP\RB3LYP\def2TZVP\C13H29N1O5P2\ROOT\24-Jan-2025\0\\
 # nmr=giao b3lyp/def2TZVP pop=nbo scfcyc=200\\MS-76 SPE NoRh\\0,1\P,0,
 0.248,-1.337,-0.124\P,0,0.264,1.35,-0.094\O,0,1.044,-2.063,1.102\O,0,0
 .049,-2.465,-1.284\O,0,1.046,2.021,1.171\O,0,0.102,2.519,-1.219\C,0,1.
 49,0.006,-0.665\C,0,0.345,-2.788,2.154\C,0,1.364,-3.221,3.182\C,0,1.05
 7,-3.397,-1.777\C,0,0.362,-4.426,-2.638\C,0,0.329,2.736,2.219\C,0,1.32
 ,3.101,3.3\C,0,1.132,3.45,-1.668\C,0,0.465,4.52,-2.501\H,0,1.402,0.022
 ,-1.772\H,0,-0.163,-3.65,1.714\H,0,-0.404,-2.124,2.592\H,0,0.863,-3.76

 Normal termination of Gaussian 16 at Fri Jan 24 20:28:01 2025.
