 Gaussian 16, Revision B.01,
 Gaussian 16:  ES64L-G16RevB.01 20-Dec-2017

 --------------------------------------------
 # nmr=giao b3lyp/def2TZVP pop=nbo scfcyc=200
 --------------------------------------------

 --------------
 MS-84 SPE NoRh
 --------------
 Symbolic Z-matrix:
 Charge =  0 Multiplicity = 1

                         Standard orientation:
 ---------------------------------------------------------------------
 Center     Atomic      Atomic             Coordinates (Angstroms)
 Number     Number       Type             X           Y           Z
 ---------------------------------------------------------------------
      1         15           0        1.423270   -0.369521   -0.611097
      2         15           0       -1.294427   -0.227386   -0.603363
      3          6           0        0.051071   -0.656630    0.658744
      4          6           0        4.901481   -1.176765    1.347625
      5          6           0        5.035588   -1.059379   -1.751862
      6          6           0        1.514058    3.322980    1.347985
      7          6           0        4.049331    3.143376   -0.455434
      8          6           0       -4.082238    2.140697   -1.788884
      9          6           0       -2.510570    3.980934    0.168434
     10          1           0        0.006961   -1.767703    0.689817
     11          1           0        5.966081   -1.410199    1.421910
     12          1           0        4.795830   -0.091394    1.402355
     13          1           0        4.404919   -1.615172    2.214881
     14          1           0        6.104898   -1.285806   -1.750889
     15          1           0        4.625821   -1.428927   -2.693886
     16          1           0        4.931309    0.027935   -1.731764
     17          1           0        1.412303    4.411569    1.341892
     18          1           0        0.533337    2.880200    1.527686
     19          1           0        2.162479    3.054497    2.185266
     20          1           0        4.187862    4.228025   -0.446970
     21          1           0        4.636538    2.730133    0.366763
     22          1           0        4.461758    2.766425   -1.393555
     23          1           0       -4.388081    1.117762   -2.013733
     24          1           0       -4.985955    2.754460   -1.767072
     25          1           0       -3.461725    2.507053   -2.610023
     26          1           0       -3.331731    4.697182    0.252746
     27          1           0       -1.937376    4.021490    1.096249
     28          1           0       -1.864428    4.310285   -0.646807
     29          6           0       -4.280661    1.675317    1.273452
     30          1           0       -4.601077    0.641923    1.131754
     31          1           0       -3.769403    1.748900    2.235432
     32          1           0       -5.176613    2.298406    1.329186
     33          6           0        1.235120    3.308176   -1.761460
     34          1           0        1.674954    2.959066   -2.697913
     35          1           0        0.204081    2.955045   -1.713657
     36          1           0        1.219004    4.400846   -1.790755
     37          6           0        4.281008   -3.730294   -0.325114
     38          1           0        3.740826   -4.172889    0.512804
     39          1           0        3.845369   -4.115016   -1.249408
     40          1           0        5.316660   -4.075610   -0.275291
     41         14           0        2.228611    2.719407   -0.277017
     42         14           0        4.208950   -1.857409   -0.261068
     43         14           0       -3.185286    2.258246   -0.137362
     44          6           0       -4.709620   -2.556571   -1.637120
     45          1           0       -5.414346   -1.763699   -1.373036
     46          1           0       -4.328680   -2.348626   -2.639329
     47          1           0       -5.272093   -3.492740   -1.687522
     48          6           0       -4.023906   -3.006181    1.356037
     49          1           0       -4.729218   -2.227086    1.651693
     50          1           0       -4.554191   -3.960694    1.380957
     51          1           0       -3.230113   -3.046488    2.104121
     52          6           0       -2.045677   -3.971046   -0.845828
     53          1           0       -1.557968   -3.716801   -1.788192
     54          1           0       -1.271414   -4.074015   -0.081678
     55          1           0       -2.518017   -4.949176   -0.967057
     56         14           0       -3.336978   -2.691451   -0.361922
     57          8           0       -2.586955   -1.142607   -0.290119
     58          8           0       -1.785550    1.253068   -0.208979
     59          8           0        2.185587    0.996193   -0.236623
     60          8           0        2.520934   -1.506391   -0.325051
     61          7           0        0.079753   -0.045554    1.962500
     62          6           0       -1.109876   -0.364239    2.752092
     63          1           0       -1.178541   -1.437945    2.992914
     64          1           0       -1.073837    0.192056    3.689003
     65          1           0       -2.011324   -0.072964    2.219014
     66          6           0        1.296035   -0.363178    2.712778
     67          1           0        1.268978    0.164442    3.665618
     68          1           0        1.396686   -1.441608    2.918291
     69          1           0        2.175410   -0.029064    2.168255
 ---------------------------------------------------------------------

 SCF Done:  E(RB3LYP) =  -2794.77679581     A.U. after   14 cycles

      1  P    Isotropic =    98.9778   Anisotropy =   228.5946

      2  P    Isotropic =    93.4755   Anisotropy =   238.3186

      3  C    Isotropic =    86.8041   Anisotropy =    30.6800

      4  C    Isotropic =   180.3459   Anisotropy =     9.6860

      5  C    Isotropic =   182.4900   Anisotropy =    10.0430

      6  C    Isotropic =   182.1473   Anisotropy =     9.1194

      7  C    Isotropic =   181.2169   Anisotropy =    12.8328

      8  C    Isotropic =   182.4794   Anisotropy =    10.6164

      9  C    Isotropic =   181.8619   Anisotropy =    10.7402

     10  H    Isotropic =    30.0280   Anisotropy =     5.6077

     11  H    Isotropic =    32.0236   Anisotropy =    10.2591

     12  H    Isotropic =    31.5551   Anisotropy =     7.3631

     13  H    Isotropic =    31.6311   Anisotropy =     6.3119

     14  H    Isotropic =    32.1100   Anisotropy =     9.9236

     15  H    Isotropic =    31.5255   Anisotropy =     7.8859

     16  H    Isotropic =    31.4164   Anisotropy =     8.8791

     17  H    Isotropic =    32.1285   Anisotropy =     9.2055

     18  H    Isotropic =    30.8740   Anisotropy =     9.4701

     19  H    Isotropic =    31.6471   Anisotropy =     6.6285

     20  H    Isotropic =    31.9270   Anisotropy =     9.8822

     21  H    Isotropic =    31.5864   Anisotropy =     6.9707

     22  H    Isotropic =    31.5436   Anisotropy =     7.5547

     23  H    Isotropic =    31.3991   Anisotropy =     8.5964

     24  H    Isotropic =    32.0923   Anisotropy =     9.9102

     25  H    Isotropic =    31.5167   Anisotropy =     7.7321

     26  H    Isotropic =    32.0667   Anisotropy =    10.2145

     27  H    Isotropic =    31.5191   Anisotropy =     7.0028

     28  H    Isotropic =    31.5903   Anisotropy =     7.7338

     29  C    Isotropic =   180.0278   Anisotropy =    10.3891

     30  H    Isotropic =    31.4735   Anisotropy =     8.2767

     31  H    Isotropic =    31.4343   Anisotropy =     6.0770

     32  H    Isotropic =    31.9647   Anisotropy =    10.2893

     33  C    Isotropic =   182.3098   Anisotropy =     8.9495

     34  H    Isotropic =    31.5511   Anisotropy =     7.9346

     35  H    Isotropic =    31.2793   Anisotropy =    10.6421

     36  H    Isotropic =    32.1338   Anisotropy =     8.8597

     37  C    Isotropic =   182.2567   Anisotropy =    12.7579

     38  H    Isotropic =    31.6435   Anisotropy =     7.3343

     39  H    Isotropic =    31.5772   Anisotropy =     7.8816

     40  H    Isotropic =    32.0972   Anisotropy =    10.0882

     41  Si   Isotropic =   293.2438   Anisotropy =    19.4060

     42  Si   Isotropic =   293.6685   Anisotropy =    22.8783

     43  Si   Isotropic =   292.6891   Anisotropy =    24.0828

     44  C    Isotropic =   182.0589   Anisotropy =    12.0813

     45  H    Isotropic =    31.5865   Anisotropy =     7.1341

     46  H    Isotropic =    31.4594   Anisotropy =     7.3760

     47  H    Isotropic =    32.0227   Anisotropy =    10.2047

     48  C    Isotropic =   180.9693   Anisotropy =    10.9851

     49  H    Isotropic =    31.6342   Anisotropy =     6.7411

     50  H    Isotropic =    32.0526   Anisotropy =    10.3646

     51  H    Isotropic =    31.5636   Anisotropy =     7.0603

     52  C    Isotropic =   182.2222   Anisotropy =     8.8694

     53  H    Isotropic =    31.4135   Anisotropy =     7.1118

     54  H    Isotropic =    31.4557   Anisotropy =     7.5181

     55  H    Isotropic =    32.0078   Anisotropy =    10.0839

     56  Si   Isotropic =   295.7739   Anisotropy =    19.5081

     57  O    Isotropic =   197.1144   Anisotropy =   139.4908

     58  O    Isotropic =   210.4339   Anisotropy =   148.5759

     59  O    Isotropic =   206.3793   Anisotropy =   143.2411

     60  O    Isotropic =   198.2702   Anisotropy =   142.3992

     61  N    Isotropic =   208.1129   Anisotropy =    33.4235

     62  C    Isotropic =   134.3100   Anisotropy =    67.1067

     63  H    Isotropic =    30.2517   Anisotropy =     6.8798

     64  H    Isotropic =    29.7183   Anisotropy =     8.3366

     65  H    Isotropic =    29.1281   Anisotropy =     8.0074

     66  C    Isotropic =   135.3803   Anisotropy =    66.5887

     67  H    Isotropic =    29.8298   Anisotropy =     8.2404

     68  H    Isotropic =    30.1939   Anisotropy =     6.8366

     69  H    Isotropic =    29.0834   Anisotropy =     8.1037

 The electronic state is 1-A.
 Alpha  occ. eigenvalues --  -77.08647 -77.08390 -66.12040 -66.11804 -66.11571
 Alpha  occ. eigenvalues --  -66.11507 -19.11069 -19.10848 -19.10838 -19.10473
 Alpha  occ. eigenvalues --  -14.30685 -10.17919 -10.17844 -10.17760 -10.15000
 Alpha  occ. eigenvalues --  -10.14956 -10.14869 -10.14810 -10.14757 -10.14701
 Alpha  occ. eigenvalues --  -10.14655 -10.14615 -10.14572 -10.14480 -10.14178
 Alpha  occ. eigenvalues --  -10.13999  -6.56187  -6.55936  -5.27701  -5.27480
 Alpha  occ. eigenvalues --   -5.27241  -5.27175  -4.72517  -4.72326  -4.72263
 Alpha  occ. eigenvalues --   -4.72075  -4.71734  -4.71490  -3.63738  -3.63513
 Alpha  occ. eigenvalues --   -3.63408  -3.63399  -3.63275  -3.63223  -3.63187
 Alpha  occ. eigenvalues --   -3.63180  -3.62948  -3.62943  -3.62884  -3.62857
 Alpha  occ. eigenvalues --   -1.00586  -1.00270  -0.96434  -0.96173  -0.91342
 Alpha  occ. eigenvalues --   -0.72434  -0.71769  -0.71575  -0.71189  -0.70710
 Alpha  occ. eigenvalues --   -0.69872  -0.68509  -0.68442  -0.68369  -0.68195
 Alpha  occ. eigenvalues --   -0.68186  -0.68056  -0.67976  -0.67648  -0.62168
 Alpha  occ. eigenvalues --   -0.60305  -0.56354  -0.52581  -0.52071  -0.48312
 Alpha  occ. eigenvalues --   -0.46468  -0.45668  -0.43899  -0.43559  -0.43045
 Alpha  occ. eigenvalues --   -0.42726  -0.42250  -0.41948  -0.41740  -0.41569
 Alpha  occ. eigenvalues --   -0.41464  -0.41354  -0.41258  -0.41050  -0.40901
 Alpha  occ. eigenvalues --   -0.40678  -0.40508  -0.40364  -0.40087  -0.39886
 Alpha  occ. eigenvalues --   -0.39860  -0.39645  -0.39448  -0.39337  -0.39313
 Alpha  occ. eigenvalues --   -0.39027  -0.38830  -0.38712  -0.38598  -0.38469
 Alpha  occ. eigenvalues --   -0.38464  -0.38047  -0.37899  -0.37839  -0.37564
 Alpha  occ. eigenvalues --   -0.37289  -0.35732  -0.35327  -0.34545  -0.34078
 Alpha  occ. eigenvalues --   -0.33854  -0.33427  -0.31458  -0.30534  -0.30111
 Alpha  occ. eigenvalues --   -0.29966  -0.29540  -0.29289  -0.28986  -0.28887
 Alpha  occ. eigenvalues --   -0.28116  -0.22508  -0.19512  -0.15818
 Alpha virt. eigenvalues --    0.00568   0.01255   0.02189   0.02686   0.03745
 Alpha virt. eigenvalues --    0.04184   0.04400   0.05034   0.05337   0.05911
 Alpha virt. eigenvalues --    0.06236   0.06444   0.06603   0.06843   0.07128

 Mulliken charges:
               1
     1  P    0.378526
     2  P    0.386624
     3  C   -0.068204
     4  C   -0.469950
     5  C   -0.464693
     6  C   -0.448351
     7  C   -0.467396
     8  C   -0.460798
     9  C   -0.463865
    10  H    0.050096
    11  H    0.116261
    12  H    0.125873
    13  H    0.125261
    14  H    0.111659
    15  H    0.125645
    16  H    0.129360
    17  H    0.110421
    18  H    0.146730
    19  H    0.112037
    20  H    0.116153
    21  H    0.118006
    22  H    0.120668
    23  H    0.132244
    24  H    0.111816
    25  H    0.124414
    26  H    0.113582
    27  H    0.124562
    28  H    0.124885
    29  C   -0.472777
    30  H    0.125128
    31  H    0.126553
    32  H    0.118054
    33  C   -0.458326
    34  H    0.121797
    35  H    0.139274
    36  H    0.107809
    37  C   -0.458210
    38  H    0.117988
    39  H    0.123041
    40  H    0.107924
    41  Si   0.539004
    42  Si   0.558038
    43  Si   0.552717
    44  C   -0.457700
    45  H    0.118366
    46  H    0.128382
    47  H    0.115248
    48  C   -0.446931
    49  H    0.120294
    50  H    0.112928
    51  H    0.121330
    52  C   -0.464368
    53  H    0.135943
    54  H    0.120581
    55  H    0.114503
    56  Si   0.531321
    57  O   -0.422253
    58  O   -0.419114
    59  O   -0.419777
    60  O   -0.414850
    61  N   -0.190721
    62  C   -0.287036
    63  H    0.077882
    64  H    0.108036
    65  H    0.148315
    66  C   -0.265254
    67  H    0.105155
    68  H    0.079478
    69  H    0.140664
 Sum of Mulliken charges =  -0.00000

 Dipole moment (field-independent basis, Debye):
    X=             -0.5873    Y=              0.0729    Z=              1.4670  Tot=              1.5819
 Quadrupole moment (field-independent basis, Debye-Ang):
   XX=           -192.2685   YY=           -197.1118   ZZ=           -212.1819
   XY=              0.7516   XZ=              0.3950   YZ=             -1.0286

 Summary of Natural Population Analysis:

                                       Natural Population
                Natural  -----------------------------------------------
    Atom  No    Charge         Core      Valence    Rydberg      Total
 -----------------------------------------------------------------------
      P    1    1.39592      9.99853     3.50284    0.10271    13.60408
      P    2    1.38878      9.99856     3.51114    0.10152    13.61122
      C    3   -0.72224      1.99941     4.68549    0.03734     6.72224
      C    4   -1.12664      1.99942     5.10630    0.02092     7.12664
      C    5   -1.12408      1.99942     5.10412    0.02054     7.12408
      C    6   -1.13040      1.99941     5.10976    0.02123     7.13040
      C    7   -1.12050      1.99942     5.10089    0.02018     7.12050
      C    8   -1.12518      1.99942     5.10505    0.02071     7.12518
      C    9   -1.12097      1.99942     5.10131    0.02024     7.12097
      H   10    0.19323      0.00000     0.80261    0.00416     0.80677
      H   11    0.22709      0.00000     0.77210    0.00082     0.77291
      H   12    0.23600      0.00000     0.76295    0.00105     0.76400
      H   13    0.23392      0.00000     0.76518    0.00089     0.76608
      H   14    0.22607      0.00000     0.77321    0.00072     0.77393
      H   15    0.23692      0.00000     0.76228    0.00080     0.76308
      H   16    0.23669      0.00000     0.76236    0.00095     0.76331
      H   17    0.22442      0.00000     0.77474    0.00084     0.77558
      H   18    0.25346      0.00000     0.74503    0.00151     0.74654
      H   19    0.23109      0.00000     0.76806    0.00085     0.76891
      H   20    0.22834      0.00000     0.77093    0.00073     0.77166
      H   21    0.23169      0.00000     0.76733    0.00098     0.76831
      H   22    0.23277      0.00000     0.76625    0.00098     0.76723
      H   23    0.23788      0.00000     0.76125    0.00087     0.76212
      H   24    0.22640      0.00000     0.77287    0.00073     0.77360
      H   25    0.23614      0.00000     0.76305    0.00082     0.76386
      H   26    0.22756      0.00000     0.77170    0.00074     0.77244
      H   27    0.23682      0.00000     0.76220    0.00098     0.76318
      H   28    0.23574      0.00000     0.76333    0.00093     0.76426
      C   29   -1.12802      1.99942     5.10763    0.02097     7.12802
      H   30    0.23757      0.00000     0.76138    0.00105     0.76243
      H   31    0.23394      0.00000     0.76514    0.00091     0.76606
      H   32    0.22777      0.00000     0.77143    0.00079     0.77223
      C   33   -1.12739      1.99942     5.10691    0.02106     7.12739
      H   34    0.23612      0.00000     0.76306    0.00082     0.76388
      H   35    0.24439      0.00000     0.75461    0.00100     0.75561
      H   36    0.22525      0.00000     0.77398    0.00077     0.77475
      C   37   -1.11805      1.99942     5.09873    0.01990     7.11805
      H   38    0.23447      0.00000     0.76469    0.00084     0.76553
      H   39    0.23685      0.00000     0.76239    0.00077     0.76315
      H   40    0.22591      0.00000     0.77334    0.00075     0.77409
     Si   41    1.91817      9.99796     2.05282    0.03104    12.08183
     Si   42    1.91078      9.99799     2.05984    0.03139    12.08922
     Si   43    1.91372      9.99798     2.05627    0.03203    12.08628
      C   44   -1.12281      1.99942     5.10311    0.02028     7.12281
      H   45    0.23274      0.00000     0.76637    0.00089     0.76726
      H   46    0.23815      0.00000     0.76107    0.00078     0.76185
      H   47    0.22808      0.00000     0.77119    0.00073     0.77192
      C   48   -1.12184      1.99942     5.10184    0.02058     7.12184
      H   49    0.23325      0.00000     0.76578    0.00097     0.76675
      H   50    0.22706      0.00000     0.77211    0.00084     0.77294
      H   51    0.23470      0.00000     0.76412    0.00118     0.76530
      C   52   -1.12816      1.99942     5.10781    0.02093     7.12816
      H   53    0.24226      0.00000     0.75681    0.00094     0.75774
      H   54    0.23377      0.00000     0.76504    0.00118     0.76623
      H   55    0.22890      0.00000     0.77035    0.00076     0.77110
     Si   56    1.91487      9.99798     2.05566    0.03149    12.08513
      O   57   -1.18057      1.99975     7.16963    0.01119     9.18057
      O   58   -1.16402      1.99976     7.15054    0.01372     9.16402
      O   59   -1.17671      1.99975     7.16508    0.01188     9.17671
      O   60   -1.16366      1.99976     7.15161    0.01229     9.16366
      N   61   -0.42638      1.99950     5.39530    0.03158     7.42638
      C   62   -0.39676      1.99938     4.38609    0.01130     6.39676
      H   63    0.14947      0.00000     0.84547    0.00506     0.85053
      H   64    0.18903      0.00000     0.80904    0.00194     0.81097
      H   65    0.20292      0.00000     0.79436    0.00272     0.79708
      C   66   -0.39887      1.99937     4.38840    0.01110     6.39887
      H   67    0.18885      0.00000     0.80924    0.00191     0.81115
      H   68    0.15295      0.00000     0.84213    0.00492     0.84705
      H   69    0.20438      0.00000     0.79267    0.00295     0.79562
 =======================================================================
   * Total *    0.00000     99.97873   157.24735    0.77392   258.00000

 Normal termination of Gaussian 16 at Fri Jan 24 21:23:14 2025.
