 Gaussian 16, Revision B.01,
 Gaussian 16:  ES64L-G16RevB.01 20-Dec-2017

 --------------------------------------------
 # nmr=giao b3lyp/def2TZVP pop=nbo scfcyc=200
 --------------------------------------------

 --------------
 MS-88 SPE NoRh
 --------------
 Symbolic Z-matrix:
 Charge =  0 Multiplicity = 1

                         Standard orientation:
 ---------------------------------------------------------------------
 Center     Atomic      Atomic             Coordinates (Angstroms)
 Number     Number       Type             X           Y           Z
 ---------------------------------------------------------------------
      1         15           0        1.246462   -0.046373   -0.630938
      2         15           0       -1.406113   -1.085028   -0.582623
      3          8           0       -0.540010    0.287145    1.608854
      4          6           0       -2.112387   -2.795383   -0.115446
      5          6           0       -1.006047   -3.826853   -0.384084
      6          6           0       -2.522743   -2.819095    1.362038
      7          6           0       -3.327879   -3.089653   -1.008399
      8          6           0       -0.048991   -0.641971    0.648408
      9          6           0       -1.790499    0.756616    1.299870
     10          6           0       -2.433402    0.212949    0.186254
     11          6           0       -4.299923    1.690058    0.595321
     12          6           0       -2.377515    1.740303    2.084894
     13          6           0       -3.635346    2.190962    1.714459
     14          1           0       -5.275633    2.076981    0.340000
     15          1           0       -1.858885    2.133125    2.948587
     16          1           0       -4.118202    2.958607    2.305856
     17          1           0       -0.659494   -3.796622   -1.418877
     18          1           0        0.359722   -1.494715    1.189480
     19          1           0       -0.142301   -3.688214    0.269751
     20          1           0       -3.314837   -2.101092    1.576518
     21          1           0       -4.128086   -2.366907   -0.858615
     22          1           0       -1.396064   -4.829228   -0.191572
     23          1           0       -1.684203   -2.612324    2.030151
     24          1           0       -2.899140   -3.814077    1.612660
     25          1           0       -3.065677   -3.094149   -2.067787
     26          1           0       -3.715856   -4.081808   -0.763767
     27          6           0       -3.697702    0.697113   -0.178563
     28          6           0        1.746140    1.707535   -0.163491
     29          6           0        3.056027    2.138757   -0.853809
     30          6           0        0.624192    2.717136   -0.466692
     31          1           0        1.909410    1.681798    0.919317
     32          6           0        3.454263    3.565582   -0.447130
     33          1           0        2.928225    2.098262   -1.940791
     34          1           0        3.869226    1.456644   -0.608282
     35          6           0        1.029155    4.140133   -0.056129
     36          1           0        0.403965    2.698478   -1.538641
     37          1           0       -0.297092    2.441047    0.044600
     38          6           0        2.336283    4.573166   -0.723401
     39          1           0        4.366035    3.849043   -0.978452
     40          1           0        3.699901    3.577169    0.620434
     41          1           0        0.222622    4.832019   -0.310262
     42          1           0        1.143797    4.182115    1.032458
     43          1           0        2.629854    5.565629   -0.373651
     44          1           0        2.182900    4.658077   -1.804904
     45          6           0        2.655103   -1.226640   -0.179458
     46          6           0        3.715403   -1.437764   -1.273674
     47          6           0        3.296172   -0.911984    1.184303
     48          1           0        2.115125   -2.177815   -0.085859
     49          6           0        4.731243   -2.510908   -0.853951
     50          1           0        4.244609   -0.502334   -1.475892
     51          1           0        3.232924   -1.739254   -2.204698
     52          6           0        4.308585   -1.995742    1.583274
     53          1           0        3.811682    0.050861    1.135325
     54          1           0        2.531950   -0.816505    1.960603
     55          6           0        5.372060   -2.197277    0.499967
     56          1           0        5.498192   -2.604390   -1.626567
     57          1           0        4.224306   -3.481048   -0.798948
     58          1           0        4.774672   -1.723597    2.532303
     59          1           0        3.779632   -2.940076    1.755935
     60          1           0        6.053739   -3.000495    0.787997
     61          1           0        5.980605   -1.290198    0.415092
     62          8           0       -4.257894    0.140113   -1.285090
     63          6           0       -5.564419    0.567572   -1.687519
     64          1           0       -5.570083    1.630216   -1.939345
     65          1           0       -5.805513   -0.016575   -2.572242
     66          1           0       -6.300675    0.366635   -0.906875
 ---------------------------------------------------------------------

 SCF Done:  E(RB3LYP) =  -1771.03495959     A.U. after   14 cycles

      1  P    Isotropic =   206.0512   Anisotropy =   124.5213

      2  P    Isotropic =   205.3265   Anisotropy =   128.6995

      3  O    Isotropic =   171.7522   Anisotropy =   140.7163

      4  C    Isotropic =   141.3339   Anisotropy =    17.3908

      5  C    Isotropic =   155.3218   Anisotropy =    40.0983

      6  C    Isotropic =   155.5776   Anisotropy =    40.3634

      7  C    Isotropic =   154.7101   Anisotropy =    42.6149

      8  C    Isotropic =    98.0569   Anisotropy =    74.2701

      9  C    Isotropic =     9.1601   Anisotropy =   107.2707

     10  C    Isotropic =    67.1739   Anisotropy =   110.8206

     11  C    Isotropic =    78.9678   Anisotropy =   143.9370

     12  C    Isotropic =    75.7248   Anisotropy =   138.3163

     13  C    Isotropic =    46.8604   Anisotropy =   182.9484

     14  H    Isotropic =    25.5040   Anisotropy =     6.2731

     15  H    Isotropic =    25.2869   Anisotropy =     6.3225

     16  H    Isotropic =    24.5593   Anisotropy =     4.3303

     17  H    Isotropic =    30.6551   Anisotropy =     7.3059

     18  H    Isotropic =    27.1216   Anisotropy =     4.9074

     19  H    Isotropic =    31.0795   Anisotropy =     7.9923

     20  H    Isotropic =    31.2639   Anisotropy =     4.6839

     21  H    Isotropic =    30.6092   Anisotropy =     9.3821

     22  H    Isotropic =    31.1863   Anisotropy =     9.3491

     23  H    Isotropic =    30.9855   Anisotropy =     5.8105

     24  H    Isotropic =    31.2674   Anisotropy =    10.2469

     25  H    Isotropic =    30.6220   Anisotropy =     7.8100

     26  H    Isotropic =    31.3018   Anisotropy =     9.7677

     27  C    Isotropic =    13.3898   Anisotropy =   134.1531

     28  C    Isotropic =   146.8220   Anisotropy =    20.9410

     29  C    Isotropic =   150.6585   Anisotropy =     8.9072

     30  C    Isotropic =   149.3714   Anisotropy =    12.5556

     31  H    Isotropic =    29.6834   Anisotropy =     3.3805

     32  C    Isotropic =   151.8753   Anisotropy =     7.1701

     33  H    Isotropic =    30.9222   Anisotropy =     5.1233

     34  H    Isotropic =    30.3918   Anisotropy =     9.5181

     35  C    Isotropic =   152.3675   Anisotropy =     8.0173

     36  H    Isotropic =    31.0927   Anisotropy =     4.4899

     37  H    Isotropic =    30.9166   Anisotropy =    14.8198

     38  C    Isotropic =   153.0975   Anisotropy =     3.6510

     39  H    Isotropic =    30.2249   Anisotropy =    10.1037

     40  H    Isotropic =    30.5927   Anisotropy =     7.2490

     41  H    Isotropic =    30.5278   Anisotropy =     8.8392

     42  H    Isotropic =    30.7486   Anisotropy =     6.5442

     43  H    Isotropic =    30.3439   Anisotropy =    10.7421

     44  H    Isotropic =    30.7605   Anisotropy =     8.4932

     45  C    Isotropic =   137.5542   Anisotropy =    25.2943

     46  C    Isotropic =   148.0536   Anisotropy =    15.7574

     47  C    Isotropic =   152.1323   Anisotropy =    10.6924

     48  H    Isotropic =    30.7790   Anisotropy =     6.9614

     49  C    Isotropic =   150.3936   Anisotropy =     6.9882

     50  H    Isotropic =    30.5838   Anisotropy =     5.9688

     51  H    Isotropic =    29.9729   Anisotropy =     6.6593

     52  C    Isotropic =   150.1418   Anisotropy =     8.4470

     53  H    Isotropic =    30.4171   Anisotropy =     6.6467

     54  H    Isotropic =    29.6610   Anisotropy =     6.1189

     55  C    Isotropic =   152.9593   Anisotropy =     3.1259

     56  H    Isotropic =    30.1112   Anisotropy =    10.1916

     57  H    Isotropic =    30.6233   Anisotropy =     7.7802

     58  H    Isotropic =    30.0361   Anisotropy =     9.5248

     59  H    Isotropic =    30.6585   Anisotropy =     7.2284

     60  H    Isotropic =    30.2313   Anisotropy =    10.6636

     61  H    Isotropic =    30.6984   Anisotropy =     8.1205

     62  O    Isotropic =   210.7700   Anisotropy =    97.1294

     63  C    Isotropic =   126.2428   Anisotropy =    78.5564

     64  H    Isotropic =    28.2108   Anisotropy =     9.2250

     65  H    Isotropic =    27.9138   Anisotropy =     8.9665

     66  H    Isotropic =    28.2594   Anisotropy =     9.1431

 The electronic state is 1-A.
 Alpha  occ. eigenvalues --  -77.04000 -77.03208 -19.16362 -19.16320 -10.24252
 Alpha  occ. eigenvalues --  -10.23558 -10.23091 -10.22971 -10.18609 -10.18096
 Alpha  occ. eigenvalues --  -10.17588 -10.17278 -10.17027 -10.17019 -10.16767
 Alpha  occ. eigenvalues --  -10.16502 -10.16404 -10.16382 -10.16333 -10.16304
 Alpha  occ. eigenvalues --  -10.16276 -10.16244 -10.16070 -10.15837 -10.15763
 Alpha  occ. eigenvalues --  -10.15705 -10.15604 -10.15569  -6.52581  -6.51802
 Alpha  occ. eigenvalues --   -4.68763  -4.68658  -4.68206  -4.67978  -4.67880
 Alpha  occ. eigenvalues --   -4.67428  -1.07355  -1.07083  -0.85551  -0.83377
 Alpha  occ. eigenvalues --   -0.82612  -0.81217  -0.77018  -0.75906  -0.74792
 Alpha  occ. eigenvalues --   -0.74206  -0.73775  -0.73461  -0.72130  -0.69983
 Alpha  occ. eigenvalues --   -0.68846  -0.68407  -0.63614  -0.61625  -0.60982
 Alpha  occ. eigenvalues --   -0.60595  -0.60247  -0.59799  -0.58339  -0.55863
 Alpha  occ. eigenvalues --   -0.55140  -0.54600  -0.53075  -0.51095  -0.50535
 Alpha  occ. eigenvalues --   -0.48281  -0.47998  -0.47819  -0.47221  -0.46741
 Alpha  occ. eigenvalues --   -0.45823  -0.44705  -0.44157  -0.44040  -0.43888
 Alpha  occ. eigenvalues --   -0.43848  -0.43682  -0.43528  -0.43430  -0.42815
 Alpha  occ. eigenvalues --   -0.40612  -0.40065  -0.39555  -0.39086  -0.38690
 Alpha  occ. eigenvalues --   -0.38353  -0.38116  -0.37985  -0.37631  -0.37333
 Alpha  occ. eigenvalues --   -0.36995  -0.36759  -0.36045  -0.35545  -0.34778
 Alpha  occ. eigenvalues --   -0.34629  -0.34513  -0.34199  -0.33895  -0.33623
 Alpha  occ. eigenvalues --   -0.33531  -0.32373  -0.32123  -0.31765  -0.31385
 Alpha  occ. eigenvalues --   -0.31035  -0.30460  -0.30001  -0.27725  -0.27504
 Alpha  occ. eigenvalues --   -0.25818  -0.22658  -0.20874  -0.18398
 Alpha virt. eigenvalues --   -0.02436   0.00455   0.01341   0.02031   0.02795
 Alpha virt. eigenvalues --    0.03460   0.03986   0.04154   0.04781   0.05099
 Alpha virt. eigenvalues --    0.05476   0.06044   0.06137   0.06733   0.07342

 Mulliken charges:
               1
     1  P    0.117902
     2  P    0.111396
     3  O   -0.282201
     4  C    0.071036
     5  C   -0.367534
     6  C   -0.360938
     7  C   -0.357986
     8  C   -0.025592
     9  C    0.206363
    10  C   -0.008776
    11  C   -0.289544
    12  C   -0.311803
    13  C   -0.061782
    14  H    0.113032
    15  H    0.103497
    16  H    0.108948
    17  H    0.127581
    18  H    0.097893
    19  H    0.099011
    20  H    0.126469
    21  H    0.123644
    22  H    0.108657
    23  H    0.110649
    24  H    0.098295
    25  H    0.114029
    26  H    0.100349
    27  C    0.257443
    28  C   -0.049822
    29  C   -0.209688
    30  C   -0.235086
    31  H    0.075060
    32  C   -0.156238
    33  H    0.091542
    34  H    0.088626
    35  C   -0.167919
    36  H    0.088460
    37  H    0.136530
    38  C   -0.150178
    39  H    0.090560
    40  H    0.078573
    41  H    0.092255
    42  H    0.077250
    43  H    0.088971
    44  H    0.076689
    45  C   -0.117385
    46  C   -0.195168
    47  C   -0.216475
    48  H    0.063551
    49  C   -0.162027
    50  H    0.090583
    51  H    0.101680
    52  C   -0.164197
    53  H    0.091269
    54  H    0.110015
    55  C   -0.152391
    56  H    0.092741
    57  H    0.079638
    58  H    0.091286
    59  H    0.078555
    60  H    0.092589
    61  H    0.075735
    62  O   -0.284162
    63  C   -0.212510
    64  H    0.127768
    65  H    0.138404
    66  H    0.124878
 Sum of Mulliken charges =  -0.00000

 Dipole moment (field-independent basis, Debye):
    X=             -1.1985    Y=              0.0284    Z=              0.6277  Tot=              1.3532
 Quadrupole moment (field-independent basis, Debye-Ang):
   XX=           -167.8818   YY=           -183.8490   ZZ=           -193.5799
   XY=             -4.3511   XZ=              4.6032   YZ=              0.0290

 Summary of Natural Population Analysis:

                                       Natural Population
                Natural  -----------------------------------------------
    Atom  No    Charge         Core      Valence    Rydberg      Total
 -----------------------------------------------------------------------
      P    1    0.77357      9.99850     4.19652    0.03141    14.22643
      P    2    0.80289      9.99833     4.16759    0.03119    14.19711
      O    3   -0.47232      1.99975     6.44644    0.02614     8.47232
      C    4   -0.27494      1.99947     4.25074    0.02473     6.27494
      C    5   -0.60422      1.99937     4.59275    0.01210     6.60422
      C    6   -0.60246      1.99937     4.59106    0.01204     6.60246
      C    7   -0.60252      1.99936     4.59093    0.01222     6.60252
      C    8   -0.45153      1.99937     4.41410    0.03806     6.45153
      C    9    0.30508      1.99865     3.67113    0.02514     5.69492
      C   10   -0.44736      1.99877     4.41792    0.03066     6.44736
      C   11   -0.32677      1.99906     4.30855    0.01916     6.32677
      C   12   -0.28744      1.99902     4.26818    0.02024     6.28744
      C   13   -0.16134      1.99923     4.14294    0.01918     6.16134
      H   14    0.21349      0.00000     0.78495    0.00155     0.78651
      H   15    0.22231      0.00000     0.77638    0.00131     0.77769
      H   16    0.20875      0.00000     0.79011    0.00114     0.79125
      H   17    0.21330      0.00000     0.78528    0.00142     0.78670
      H   18    0.20977      0.00000     0.78722    0.00301     0.79023
      H   19    0.19749      0.00000     0.80103    0.00148     0.80251
      H   20    0.21104      0.00000     0.78771    0.00126     0.78896
      H   21    0.21652      0.00000     0.78225    0.00123     0.78348
      H   22    0.20626      0.00000     0.79172    0.00202     0.79374
      H   23    0.20111      0.00000     0.79754    0.00135     0.79889
      H   24    0.19499      0.00000     0.80269    0.00232     0.80501
      H   25    0.21059      0.00000     0.78805    0.00137     0.78941
      H   26    0.19840      0.00000     0.79955    0.00205     0.80160
      C   27    0.31310      1.99867     3.66348    0.02475     5.68690
      C   28   -0.48599      1.99938     4.46168    0.02493     6.48599
      C   29   -0.39034      1.99938     4.37697    0.01399     6.39034
      C   30   -0.39218      1.99937     4.37862    0.01419     6.39218
      H   31    0.20316      0.00000     0.79338    0.00346     0.79684
      C   32   -0.37946      1.99942     4.36664    0.01339     6.37946
      H   33    0.19319      0.00000     0.80433    0.00247     0.80681
      H   34    0.19714      0.00000     0.80077    0.00209     0.80286
      C   35   -0.37947      1.99942     4.36675    0.01330     6.37947
      H   36    0.19283      0.00000     0.80490    0.00227     0.80717
      H   37    0.21271      0.00000     0.78549    0.00180     0.78729
      C   38   -0.38559      1.99942     4.37297    0.01319     6.38559
      H   39    0.20004      0.00000     0.79854    0.00142     0.79996
      H   40    0.18667      0.00000     0.81149    0.00185     0.81333
      H   41    0.20194      0.00000     0.79669    0.00137     0.79806
      H   42    0.18733      0.00000     0.81084    0.00184     0.81267
      H   43    0.19984      0.00000     0.79879    0.00137     0.80016
      H   44    0.18783      0.00000     0.81032    0.00185     0.81217
      C   45   -0.46872      1.99938     4.44446    0.02488     6.46872
      C   46   -0.39255      1.99937     4.37791    0.01527     6.39255
      C   47   -0.39871      1.99938     4.38474    0.01459     6.39871
      H   48    0.20339      0.00000     0.79326    0.00335     0.79661
      C   49   -0.38145      1.99943     4.36846    0.01356     6.38145
      H   50    0.18930      0.00000     0.80858    0.00211     0.81070
      H   51    0.21192      0.00000     0.78621    0.00187     0.78808
      C   52   -0.38235      1.99943     4.36943    0.01349     6.38235
      H   53    0.18883      0.00000     0.80889    0.00228     0.81117
      H   54    0.20121      0.00000     0.79700    0.00179     0.79879
      C   55   -0.38684      1.99942     4.37407    0.01335     6.38684
      H   56    0.20249      0.00000     0.79616    0.00135     0.79751
      H   57    0.18654      0.00000     0.81164    0.00182     0.81346
      H   58    0.20045      0.00000     0.79810    0.00146     0.79955
      H   59    0.18521      0.00000     0.81294    0.00185     0.81479
      H   60    0.20161      0.00000     0.79706    0.00133     0.79839
      H   61    0.18705      0.00000     0.81111    0.00183     0.81295
      O   62   -0.45645      1.99976     6.43976    0.01694     8.45645
      C   63   -0.25007      1.99926     4.23728    0.01353     6.25007
      H   64    0.17412      0.00000     0.82359    0.00229     0.82588
      H   65    0.19564      0.00000     0.80309    0.00127     0.80436
      H   66    0.17198      0.00000     0.82571    0.00231     0.82802
 =======================================================================
   * Total *    0.00000     71.97875   155.40541    0.61584   228.00000

 Normal termination of Gaussian 16 at Fri Jan 24 21:59:26 2025.
