 Gaussian 16, Revision B.01,
 Gaussian 16:  ES64L-G16RevB.01 20-Dec-2017

 --------------------------------------------
 # nmr=giao b3lyp/def2TZVP pop=nbo scfcyc=200
 --------------------------------------------

 --------------
 MS-81 SPE NoRh
 --------------
 Symbolic Z-matrix:
 Charge =  0 Multiplicity = 1

                         Standard orientation:
 ---------------------------------------------------------------------
 Center     Atomic      Atomic             Coordinates (Angstroms)
 Number     Number       Type             X           Y           Z
 ---------------------------------------------------------------------
      1         15           0       -1.926873   -0.058152   -0.620678
      2         15           0        0.759734    0.981926   -0.513710
      3          8           0       -0.096657   -0.479558    1.615460
      4          8           0        3.492276   -0.373935   -1.436930
      5          6           0        1.592330    2.581032    0.133376
      6          6           0        0.610808    3.744145   -0.070613
      7          6           0        1.943977    2.438070    1.619597
      8          6           0        2.871015    2.827554   -0.684512
      9          6           0       -0.601835    0.469745    0.679708
     10          6           0       -2.201282   -1.967705   -0.531234
     11          6           0        1.127202   -0.977905    1.244237
     12          6           0        1.744422   -0.416651    0.125388
     13          6           0       -2.565431   -2.473738    0.873923
     14          6           0       -0.894954   -2.632633   -1.002705
     15          6           0       -3.471029    0.958259   -0.045004
     16          6           0       -4.711050    0.608353   -0.885916
     17          6           0       -3.798651    0.757457    1.443294
     18          6           0       -3.126765    2.439753   -0.287674
     19          6           0        2.964705   -0.942807   -0.320553
     20          6           0        3.558158   -1.988396    0.388294
     21          6           0        1.707730   -2.009499    1.970350
     22          6           0        4.750718   -0.852810   -1.925877
     23          6           0        2.926832   -2.498749    1.522801
     24          6           0       -3.312539   -2.373659   -1.516792
     25          1           0        4.499421   -2.410364    0.070851
     26          1           0        1.212222   -2.415813    2.841229
     27          1           0        3.402288   -3.306764    2.063740
     28          1           0        0.273177    3.825264   -1.105077
     29          1           0       -5.139230   -0.352263   -0.608799
     30          1           0       -4.510564    0.597827   -1.957405
     31          1           0       -1.008183    1.303982    1.246334
     32          1           0       -0.267959    3.657615    0.568991
     33          1           0        2.659335    1.635143    1.795671
     34          1           0        3.590447    2.017852   -0.571196
     35          1           0       -1.853115   -2.152055    1.631103
     36          1           0       -0.075299   -2.499207   -0.301823
     37          1           0       -2.956420    0.975447    2.100755
     38          1           0        4.687061   -1.905226   -2.211383
     39          1           0       -3.326653   -3.464595   -1.581482
     40          1           0       -3.143090   -1.994327   -2.524463
     41          1           0        4.972893   -0.250802   -2.803044
     42          1           0        5.538712   -0.716361   -1.181470
     43          1           0        1.108706    4.681094    0.193726
     44          1           0        1.064977    2.255747    2.240528
     45          1           0       -3.563789   -2.159940    1.176648
     46          1           0       -4.605548    1.442847    1.717883
     47          1           0       -4.300909   -2.059157   -1.193434
     48          1           0        2.398779    3.369844    1.967249
     49          1           0       -2.567655   -3.567563    0.857371
     50          1           0       -4.142912   -0.251218    1.661463
     51          1           0       -3.999773    3.047432   -0.034800
     52          1           0       -2.305900    2.790161    0.338201
     53          1           0       -2.865634    2.638445   -1.327604
     54          1           0        2.666127    2.950223   -1.749023
     55          1           0        3.340266    3.749258   -0.333576
     56          1           0       -1.071077   -3.707903   -1.097004
     57          1           0       -0.576527   -2.257478   -1.977418
     58          1           0       -5.478196    1.365284   -0.705702
 ---------------------------------------------------------------------

 SCF Done:  E(RB3LYP) =  -1616.12625386     A.U. after   27 cycles

      1  P    Isotropic =   165.7116   Anisotropy =   132.8950

      2  P    Isotropic =   212.0276   Anisotropy =   115.0470

      3  O    Isotropic =   168.3125   Anisotropy =   140.2128

      4  O    Isotropic =   210.4008   Anisotropy =    97.5437

      5  C    Isotropic =   139.2027   Anisotropy =    20.0592

      6  C    Isotropic =   154.0364   Anisotropy =    40.0128

      7  C    Isotropic =   155.6851   Anisotropy =    40.7999

      8  C    Isotropic =   154.9064   Anisotropy =    41.8880

      9  C    Isotropic =    97.9168   Anisotropy =    75.1209

     10  C    Isotropic =   137.3799   Anisotropy =    23.5009

     11  C    Isotropic =     8.6077   Anisotropy =   109.3704

     12  C    Isotropic =    65.6073   Anisotropy =   115.4264

     13  C    Isotropic =   153.8987   Anisotropy =    37.7551

     14  C    Isotropic =   150.3505   Anisotropy =    42.9069

     15  C    Isotropic =   138.2022   Anisotropy =    21.7104

     16  C    Isotropic =   152.0996   Anisotropy =    39.7361

     17  C    Isotropic =   154.4290   Anisotropy =    38.8539

     18  C    Isotropic =   149.3184   Anisotropy =    43.1961

     19  C    Isotropic =    13.2261   Anisotropy =   134.8434

     20  C    Isotropic =    78.7912   Anisotropy =   144.4214

     21  C    Isotropic =    75.2037   Anisotropy =   138.4998

     22  C    Isotropic =   126.2060   Anisotropy =    78.4958

     23  C    Isotropic =    46.5501   Anisotropy =   183.6766

     24  C    Isotropic =   150.4702   Anisotropy =    45.4571

     25  H    Isotropic =    25.4852   Anisotropy =     6.2594

     26  H    Isotropic =    25.2127   Anisotropy =     6.4683

     27  H    Isotropic =    24.5185   Anisotropy =     4.1882

     28  H    Isotropic =    30.6021   Anisotropy =     7.1365

     29  H    Isotropic =    30.6650   Anisotropy =     7.4014

     30  H    Isotropic =    30.6192   Anisotropy =     7.5495

     31  H    Isotropic =    26.4884   Anisotropy =     5.8395

     32  H    Isotropic =    30.9102   Anisotropy =     8.0270

     33  H    Isotropic =    31.3192   Anisotropy =     4.3390

     34  H    Isotropic =    30.7988   Anisotropy =     9.0647

     35  H    Isotropic =    29.7876   Anisotropy =     5.4645

     36  H    Isotropic =    31.5280   Anisotropy =    14.4998

     37  H    Isotropic =    30.1363   Anisotropy =     4.7273

     38  H    Isotropic =    28.2160   Anisotropy =     9.2470

     39  H    Isotropic =    31.3698   Anisotropy =     9.2157

     40  H    Isotropic =    30.6975   Anisotropy =     7.7938

     41  H    Isotropic =    27.9129   Anisotropy =     9.0319

     42  H    Isotropic =    28.2360   Anisotropy =     9.1351

     43  H    Isotropic =    31.1478   Anisotropy =     9.3849

     44  H    Isotropic =    30.9260   Anisotropy =     5.8170

     45  H    Isotropic =    30.5376   Anisotropy =     6.4459

     46  H    Isotropic =    30.9312   Anisotropy =     9.5454

     47  H    Isotropic =    30.6936   Anisotropy =     7.5345

     48  H    Isotropic =    31.3021   Anisotropy =    10.2220

     49  H    Isotropic =    31.1998   Anisotropy =     9.4402

     50  H    Isotropic =    30.2401   Anisotropy =     6.8002

     51  H    Isotropic =    31.3212   Anisotropy =     8.7733

     52  H    Isotropic =    30.6973   Anisotropy =     8.6933

     53  H    Isotropic =    30.6343   Anisotropy =     7.4986

     54  H    Isotropic =    30.6660   Anisotropy =     7.9591

     55  H    Isotropic =    31.4416   Anisotropy =     9.7840

     56  H    Isotropic =    31.8010   Anisotropy =     8.0986

     57  H    Isotropic =    30.9929   Anisotropy =     5.8925

     58  H    Isotropic =    31.1587   Anisotropy =     9.3135

 The electronic state is 1-A.
 Alpha  occ. eigenvalues --  -77.04087 -77.03603 -19.16434 -19.16419 -10.24366
 Alpha  occ. eigenvalues --  -10.23640 -10.23274 -10.23148 -10.19164 -10.18981
 Alpha  occ. eigenvalues --  -10.18655 -10.18255 -10.17295 -10.17162 -10.16914
 Alpha  occ. eigenvalues --  -10.16210 -10.16189 -10.16074 -10.15828 -10.15688
 Alpha  occ. eigenvalues --  -10.15649 -10.15545 -10.15211 -10.15099  -6.52656
 Alpha  occ. eigenvalues --   -6.52124  -4.68835  -4.68735  -4.68302  -4.68287
 Alpha  occ. eigenvalues --   -4.68200  -4.67749  -1.07437  -1.07153  -0.85674
 Alpha  occ. eigenvalues --   -0.81710  -0.81148  -0.80159  -0.76983  -0.75282
 Alpha  occ. eigenvalues --   -0.72519  -0.70224  -0.69017  -0.68976  -0.68700
 Alpha  occ. eigenvalues --   -0.68412  -0.68033  -0.67982  -0.62908  -0.61255
 Alpha  occ. eigenvalues --   -0.59371  -0.58151  -0.54711  -0.54541  -0.52004
 Alpha  occ. eigenvalues --   -0.50966  -0.50462  -0.48330  -0.48032  -0.47602
 Alpha  occ. eigenvalues --   -0.47278  -0.45183  -0.45111  -0.44659  -0.43961
 Alpha  occ. eigenvalues --   -0.43886  -0.43643  -0.43295  -0.42882  -0.42376
 Alpha  occ. eigenvalues --   -0.40966  -0.40349  -0.39866  -0.39370  -0.39083
 Alpha  occ. eigenvalues --   -0.38736  -0.38609  -0.38083  -0.37869  -0.37804
 Alpha  occ. eigenvalues --   -0.37466  -0.36936  -0.36707  -0.35735  -0.35187
 Alpha  occ. eigenvalues --   -0.34598  -0.34003  -0.33661  -0.33543  -0.33338
 Alpha  occ. eigenvalues --   -0.32936  -0.32611  -0.32089  -0.31372  -0.28348
 Alpha  occ. eigenvalues --   -0.28103  -0.25638  -0.22768  -0.21034  -0.18560
 Alpha virt. eigenvalues --   -0.02563   0.00300   0.01453   0.02371   0.03295
 Alpha virt. eigenvalues --    0.03546   0.04131   0.04744   0.05020   0.05751
 Alpha virt. eigenvalues --    0.06412   0.07123   0.07399   0.07576   0.07652

 Mulliken charges:
               1
     1  P    0.062237
     2  P    0.101986
     3  O   -0.291246
     4  O   -0.281049
     5  C    0.078663
     6  C   -0.362968
     7  C   -0.367216
     8  C   -0.359001
     9  C   -0.004448
    10  C    0.119637
    11  C    0.209308
    12  C   -0.036386
    13  C   -0.364350
    14  C   -0.398982
    15  C    0.065641
    16  C   -0.371802
    17  C   -0.339153
    18  C   -0.339949
    19  C    0.283486
    20  C   -0.299812
    21  C   -0.309577
    22  C   -0.211950
    23  C   -0.060155
    24  C   -0.356838
    25  H    0.113667
    26  H    0.106008
    27  H    0.109999
    28  H    0.126301
    29  H    0.104490
    30  H    0.124844
    31  H    0.091647
    32  H    0.099855
    33  H    0.128041
    34  H    0.123343
    35  H    0.144407
    36  H    0.157096
    37  H    0.110853
    38  H    0.127312
    39  H    0.106039
    40  H    0.119725
    41  H    0.138497
    42  H    0.124422
    43  H    0.108357
    44  H    0.111460
    45  H    0.091047
    46  H    0.098351
    47  H    0.102200
    48  H    0.098970
    49  H    0.093976
    50  H    0.108541
    51  H    0.106065
    52  H    0.089937
    53  H    0.125693
    54  H    0.113650
    55  H    0.101197
    56  H    0.100345
    57  H    0.120768
    58  H    0.106822
 Sum of Mulliken charges =  -0.00000

 Dipole moment (field-independent basis, Debye):
    X=              1.4703    Y=             -0.3110    Z=              0.3243  Tot=              1.5374
 Quadrupole moment (field-independent basis, Debye-Ang):
   XX=           -148.3748   YY=           -160.9475   ZZ=           -169.9275
   XY=             -5.1659   XZ=             -5.2673   YZ=              1.4234

 Summary of Natural Population Analysis:

                                       Natural Population
                Natural  -----------------------------------------------
    Atom  No    Charge         Core      Valence    Rydberg      Total
 -----------------------------------------------------------------------
      P    1    0.74362      9.99842     4.22970    0.02825    14.25638
      P    2    0.80403      9.99830     4.16660    0.03107    14.19597
      O    3   -0.48136      1.99975     6.45376    0.02785     8.48136
      O    4   -0.45562      1.99976     6.43887    0.01699     8.45562
      C    5   -0.26911      1.99947     4.24526    0.02439     6.26911
      C    6   -0.60220      1.99937     4.59074    0.01209     6.60220
      C    7   -0.60329      1.99937     4.59133    0.01259     6.60329
      C    8   -0.60220      1.99936     4.59070    0.01214     6.60220
      C    9   -0.45855      1.99933     4.41838    0.04084     6.45855
      C   10   -0.26537      1.99944     4.24112    0.02482     6.26537
      C   11    0.30666      1.99865     3.67033    0.02436     5.69334
      C   12   -0.44727      1.99877     4.41802    0.03048     6.44727
      C   13   -0.60799      1.99936     4.59632    0.01230     6.60799
      C   14   -0.60523      1.99936     4.59314    0.01273     6.60523
      C   15   -0.26477      1.99945     4.24081    0.02450     6.26477
      C   16   -0.59907      1.99936     4.58768    0.01203     6.59907
      C   17   -0.60307      1.99936     4.59142    0.01229     6.60307
      C   18   -0.60249      1.99937     4.59068    0.01245     6.60249
      C   19    0.31233      1.99866     3.66409    0.02491     5.68767
      C   20   -0.32691      1.99906     4.30879    0.01906     6.32691
      C   21   -0.28939      1.99901     4.27029    0.02009     6.28939
      C   22   -0.25017      1.99926     4.23741    0.01349     6.25017
      C   23   -0.15933      1.99923     4.14162    0.01848     6.15933
      C   24   -0.59940      1.99937     4.58810    0.01194     6.59940
      H   25    0.21402      0.00000     0.78444    0.00154     0.78598
      H   26    0.22074      0.00000     0.77778    0.00148     0.77926
      H   27    0.20914      0.00000     0.78970    0.00116     0.79086
      H   28    0.21322      0.00000     0.78534    0.00144     0.78678
      H   29    0.20021      0.00000     0.79837    0.00142     0.79979
      H   30    0.21237      0.00000     0.78607    0.00156     0.78763
      H   31    0.21296      0.00000     0.78273    0.00431     0.78704
      H   32    0.19738      0.00000     0.80117    0.00145     0.80262
      H   33    0.21007      0.00000     0.78855    0.00138     0.78993
      H   34    0.21517      0.00000     0.78366    0.00117     0.78483
      H   35    0.22115      0.00000     0.77741    0.00144     0.77885
      H   36    0.21347      0.00000     0.78496    0.00157     0.78653
      H   37    0.20006      0.00000     0.79864    0.00131     0.79994
      H   38    0.17405      0.00000     0.82367    0.00227     0.82595
      H   39    0.20223      0.00000     0.79568    0.00208     0.79777
      H   40    0.21179      0.00000     0.78666    0.00155     0.78821
      H   41    0.19599      0.00000     0.80275    0.00126     0.80401
      H   42    0.17185      0.00000     0.82584    0.00231     0.82815
      H   43    0.20506      0.00000     0.79291    0.00204     0.79494
      H   44    0.20101      0.00000     0.79760    0.00138     0.79899
      H   45    0.19460      0.00000     0.80394    0.00146     0.80540
      H   46    0.19533      0.00000     0.80238    0.00228     0.80467
      H   47    0.20056      0.00000     0.79806    0.00139     0.79944
      H   48    0.19559      0.00000     0.80205    0.00236     0.80441
      H   49    0.19377      0.00000     0.80406    0.00217     0.80623
      H   50    0.20379      0.00000     0.79474    0.00147     0.79621
      H   51    0.20230      0.00000     0.79558    0.00212     0.79770
      H   52    0.19562      0.00000     0.80283    0.00155     0.80438
      H   53    0.21676      0.00000     0.78185    0.00139     0.78324
      H   54    0.21069      0.00000     0.78796    0.00135     0.78931
      H   55    0.19900      0.00000     0.79889    0.00211     0.80100
      H   56    0.20059      0.00000     0.79733    0.00208     0.79941
      H   57    0.21440      0.00000     0.78423    0.00136     0.78560
      H   58    0.20120      0.00000     0.79667    0.00213     0.79880
 =======================================================================
   * Total *   -0.00000     63.98083   135.47968    0.53949   200.00000

 Normal termination of Gaussian 16 at Fri Jan 24 21:26:58 2025.
