 Gaussian 16, Revision B.01,
 Gaussian 16:  ES64L-G16RevB.01 20-Dec-2017

 --------------------------------------------
 # nmr=giao b3lyp/def2TZVP pop=nbo scfcyc=200
 --------------------------------------------

 --------------
 MS-85 SPE NoRh
 --------------
 Symbolic Z-matrix:
 Charge =  0 Multiplicity = 1

                         Standard orientation:
 ---------------------------------------------------------------------
 Center     Atomic      Atomic             Coordinates (Angstroms)
 Number     Number       Type             X           Y           Z
 ---------------------------------------------------------------------
      1         15           0        0.961759   -0.247479   -0.704359
      2         15           0       -1.807393   -0.899012   -0.937445
      3          8           0       -0.987806    0.066855    1.463978
      4          6           0       -2.908613   -2.426347   -0.608492
      5          6           0       -2.096923   -3.675569   -0.980753
      6          6           0       -3.324150   -2.484952    0.866993
      7          6           0       -4.160141   -2.311820   -1.494725
      8          6           0       -0.514187   -0.771218    0.415411
      9          6           0       -2.087340    0.797193    1.080110
     10          6           0       -2.657320    0.523989   -0.166780
     11          6           0       -4.279636    2.257053    0.225722
     12          6           0       -2.612651    1.770546    1.919327
     13          6           0       -3.713547    2.495433    1.478105
     14          1           0       -5.130246    2.839532   -0.103453
     15          1           0       -2.163929    1.953746    2.886456
     16          1           0       -4.132336    3.261380    2.119260
     17          1           0       -1.762204   -3.655804   -2.018675
     18          1           0       -0.250385   -1.734241    0.848875
     19          1           0       -1.217885   -3.797294   -0.343857
     20          1           0       -3.907724   -1.612805    1.164535
     21          1           0       -4.764694   -1.443590   -1.231411
     22          1           0       -2.720372   -4.563041   -0.845621
     23          1           0       -2.467902   -2.570864    1.538007
     24          1           0       -3.948874   -3.368674    1.024448
     25          1           0       -3.918834   -2.256351   -2.557780
     26          1           0       -4.783457   -3.198134   -1.349611
     27          6           0       -3.753019    1.269959   -0.599196
     28          1           0       -4.198160    1.082357   -1.567665
     29          6           0        1.643174    1.480763   -0.313275
     30          6           0        2.370500    2.042654   -1.552276
     31          6           0        0.633679    2.509973    0.219492
     32          1           0        2.383815    1.299142    0.471370
     33          6           0        3.068438    3.371934   -1.235450
     34          1           0        1.631693    2.208779   -2.341560
     35          1           0        3.099191    1.328142   -1.940272
     36          6           0        1.320557    3.852408    0.514304
     37          1           0       -0.162962    2.661255   -0.515903
     38          1           0        0.168997    2.143441    1.130676
     39          6           0        2.077605    4.404020   -0.694350
     40          1           0        3.559598    3.745797   -2.138021
     41          1           0        3.862016    3.201717   -0.499019
     42          1           0        0.568900    4.569133    0.854564
     43          1           0        2.018516    3.719672    1.348146
     44          1           0        2.599363    5.326420   -0.425844
     45          1           0        1.364014    4.668867   -1.483101
     46          6           0        2.306113   -1.435817   -0.102737
     47          6           0        3.644261   -1.274090   -0.845672
     48          6           0        2.539508   -1.392707    1.420587
     49          1           0        1.895427   -2.419683   -0.361292
     50          6           0        4.643677   -2.361177   -0.420083
     51          1           0        4.072741   -0.294937   -0.615861
     52          1           0        3.502483   -1.308860   -1.927093
     53          6           0        3.540748   -2.476614    1.851794
     54          1           0        2.933711   -0.412441    1.703623
     55          1           0        1.605215   -1.520156    1.971313
     56          6           0        4.866017   -2.359635    1.094586
     57          1           0        5.589809   -2.208361   -0.944157
     58          1           0        4.267527   -3.340106   -0.735373
     59          1           0        3.708499   -2.404054    2.928483
     60          1           0        3.101608   -3.464455    1.672021
     61          1           0        5.533237   -3.176408    1.377256
     62          1           0        5.370046   -1.432486    1.385920
 ---------------------------------------------------------------------

 SCF Done:  E(RB3LYP) =  -1656.46124129     A.U. after   14 cycles

      1  P    Isotropic =   204.8877   Anisotropy =   169.4105

      2  P    Isotropic =   209.7761   Anisotropy =   101.3956

      3  O    Isotropic =   164.9101   Anisotropy =   126.9476

      4  C    Isotropic =   142.1010   Anisotropy =    15.0405

      5  C    Isotropic =   155.5977   Anisotropy =    40.6882

      6  C    Isotropic =   156.6453   Anisotropy =    40.3692

      7  C    Isotropic =   157.8443   Anisotropy =    40.2491

      8  C    Isotropic =    96.8848   Anisotropy =    69.0341

      9  C    Isotropic =    10.5139   Anisotropy =   115.9820

     10  C    Isotropic =    53.2403   Anisotropy =   151.0666

     11  C    Isotropic =    57.7141   Anisotropy =   172.1196

     12  C    Isotropic =    67.6150   Anisotropy =   150.4633

     13  C    Isotropic =    47.8832   Anisotropy =   184.5061

     14  H    Isotropic =    24.7190   Anisotropy =     4.2145

     15  H    Isotropic =    24.9622   Anisotropy =     6.7980

     16  H    Isotropic =    24.4456   Anisotropy =     4.5254

     17  H    Isotropic =    30.6495   Anisotropy =     7.9405

     18  H    Isotropic =    26.8355   Anisotropy =     5.7074

     19  H    Isotropic =    30.9860   Anisotropy =     7.4081

     20  H    Isotropic =    31.5619   Anisotropy =     4.5123

     21  H    Isotropic =    31.0349   Anisotropy =     8.0211

     22  H    Isotropic =    31.1390   Anisotropy =     9.6845

     23  H    Isotropic =    31.0672   Anisotropy =     5.9481

     24  H    Isotropic =    31.4133   Anisotropy =    10.4615

     25  H    Isotropic =    30.7744   Anisotropy =     8.9621

     26  H    Isotropic =    31.3992   Anisotropy =    10.1659

     27  C    Isotropic =    47.0763   Anisotropy =   182.1073

     28  H    Isotropic =    24.2079   Anisotropy =     7.7634

     29  C    Isotropic =   144.7839   Anisotropy =    23.2900

     30  C    Isotropic =   144.2879   Anisotropy =    20.4623

     31  C    Isotropic =   152.2229   Anisotropy =     5.3620

     32  H    Isotropic =    29.8828   Anisotropy =     6.7818

     33  C    Isotropic =   151.5606   Anisotropy =     7.2301

     34  H    Isotropic =    30.7796   Anisotropy =     4.9802

     35  H    Isotropic =    30.5540   Anisotropy =     6.4555

     36  C    Isotropic =   151.4698   Anisotropy =     9.1655

     37  H    Isotropic =    31.5851   Anisotropy =     9.3328

     38  H    Isotropic =    30.0620   Anisotropy =    11.2997

     39  C    Isotropic =   153.1120   Anisotropy =     3.6737

     40  H    Isotropic =    30.3077   Anisotropy =    10.3605

     41  H    Isotropic =    30.6633   Anisotropy =     7.4730

     42  H    Isotropic =    30.4441   Anisotropy =     8.4768

     43  H    Isotropic =    30.7720   Anisotropy =     7.1417

     44  H    Isotropic =    30.3964   Anisotropy =    10.7672

     45  H    Isotropic =    30.8527   Anisotropy =     7.8923

     46  C    Isotropic =   137.5359   Anisotropy =    23.1220

     47  C    Isotropic =   149.6808   Anisotropy =     8.3828

     48  C    Isotropic =   151.3785   Anisotropy =     9.2933

     49  H    Isotropic =    30.3810   Anisotropy =     5.0428

     50  C    Isotropic =   150.6360   Anisotropy =     7.6332

     51  H    Isotropic =    30.9262   Anisotropy =     6.6367

     52  H    Isotropic =    30.1344   Anisotropy =     6.6542

     53  C    Isotropic =   150.7329   Anisotropy =     9.0083

     54  H    Isotropic =    30.2723   Anisotropy =     5.2506

     55  H    Isotropic =    29.6365   Anisotropy =     7.5363

     56  C    Isotropic =   152.6289   Anisotropy =     3.3199

     57  H    Isotropic =    30.0939   Anisotropy =    10.0567

     58  H    Isotropic =    30.6339   Anisotropy =     8.3031

     59  H    Isotropic =    29.9825   Anisotropy =     9.4541

     60  H    Isotropic =    30.5774   Anisotropy =     7.6217

     61  H    Isotropic =    30.1849   Anisotropy =    10.5909

     62  H    Isotropic =    30.6319   Anisotropy =     8.0537

 The electronic state is 1-A.
 Alpha  occ. eigenvalues --  -77.04277 -77.03668 -19.16610 -10.23625 -10.23525
 Alpha  occ. eigenvalues --  -10.19027 -10.18305 -10.18113 -10.17857 -10.17826
 Alpha  occ. eigenvalues --  -10.17663 -10.17490 -10.17297 -10.16889 -10.16674
 Alpha  occ. eigenvalues --  -10.16573 -10.16552 -10.16484 -10.16439 -10.16352
 Alpha  occ. eigenvalues --  -10.16225 -10.16117 -10.15949 -10.15930 -10.15912
 Alpha  occ. eigenvalues --  -10.15831  -6.52886  -6.52238  -4.69054  -4.68965
 Alpha  occ. eigenvalues --   -4.68523  -4.68420  -4.68312  -4.67864  -1.07544
 Alpha  occ. eigenvalues --   -0.85920  -0.83627  -0.82808  -0.81581  -0.76799
 Alpha  occ. eigenvalues --   -0.75665  -0.74919  -0.74429  -0.73855  -0.73611
 Alpha  occ. eigenvalues --   -0.71569  -0.69228  -0.68788  -0.63914  -0.62466
 Alpha  occ. eigenvalues --   -0.61240  -0.60561  -0.60295  -0.59564  -0.58999
 Alpha  occ. eigenvalues --   -0.56131  -0.55469  -0.54608  -0.53135  -0.49998
 Alpha  occ. eigenvalues --   -0.48941  -0.48156  -0.47597  -0.46860  -0.45796
 Alpha  occ. eigenvalues --   -0.44763  -0.44536  -0.44300  -0.44290  -0.44047
 Alpha  occ. eigenvalues --   -0.43936  -0.43698  -0.43334  -0.42953  -0.41238
 Alpha  occ. eigenvalues --   -0.40306  -0.39588  -0.38991  -0.38775  -0.38568
 Alpha  occ. eigenvalues --   -0.38211  -0.37676  -0.37290  -0.37200  -0.37021
 Alpha  occ. eigenvalues --   -0.36478  -0.35884  -0.34940  -0.34806  -0.34651
 Alpha  occ. eigenvalues --   -0.34345  -0.34116  -0.33972  -0.33840  -0.32552
 Alpha  occ. eigenvalues --   -0.31730  -0.31638  -0.31348  -0.30800  -0.30108
 Alpha  occ. eigenvalues --   -0.27929  -0.27727  -0.27055  -0.24377  -0.21315
 Alpha  occ. eigenvalues --   -0.18901
 Alpha virt. eigenvalues --   -0.03116  -0.00699   0.00641   0.01882   0.02654
 Alpha virt. eigenvalues --    0.02924   0.04082   0.04467   0.05002   0.05288
 Alpha virt. eigenvalues --    0.05827   0.06100   0.06704   0.06749   0.07355

 Mulliken charges:
               1
     1  P    0.118644
     2  P    0.101019
     3  O   -0.295837
     4  C    0.079542
     5  C   -0.358671
     6  C   -0.365043
     7  C   -0.381540
     8  C    0.004373
     9  C    0.243870
    10  C   -0.011210
    11  C   -0.128082
    12  C   -0.268279
    13  C   -0.070340
    14  H    0.105949
    15  H    0.111162
    16  H    0.109634
    17  H    0.126722
    18  H    0.099537
    19  H    0.100997
    20  H    0.132966
    21  H    0.119743
    22  H    0.107672
    23  H    0.110021
    24  H    0.100358
    25  H    0.120869
    26  H    0.107460
    27  C   -0.199622
    28  H    0.122170
    29  C   -0.052772
    30  C   -0.201288
    31  C   -0.246010
    32  H    0.054086
    33  C   -0.165109
    34  H    0.087656
    35  H    0.108819
    36  C   -0.157665
    37  H    0.093137
    38  H    0.122264
    39  C   -0.151913
    40  H    0.092436
    41  H    0.075980
    42  H    0.093107
    43  H    0.077397
    44  H    0.089260
    45  H    0.078265
    46  C   -0.105773
    47  C   -0.225326
    48  C   -0.205958
    49  H    0.070674
    50  C   -0.155622
    51  H    0.089156
    52  H    0.106512
    53  C   -0.160709
    54  H    0.087433
    55  H    0.102675
    56  C   -0.160861
    57  H    0.093118
    58  H    0.082077
    59  H    0.092689
    60  H    0.078162
    61  H    0.092501
    62  H    0.077516
 Sum of Mulliken charges =  -0.00000

 Dipole moment (field-independent basis, Debye):
    X=              0.2663    Y=             -0.4115    Z=              1.0532  Tot=              1.1617
 Quadrupole moment (field-independent basis, Debye-Ang):
   XX=           -169.5007   YY=           -171.3345   ZZ=           -181.7480
   XY=             -1.8431   XZ=              1.7080   YZ=              1.1719

 Summary of Natural Population Analysis:

                                       Natural Population
                Natural  -----------------------------------------------
    Atom  No    Charge         Core      Valence    Rydberg      Total
 -----------------------------------------------------------------------
      P    1    0.75949      9.99854     4.21141    0.03057    14.24051
      P    2    0.79284      9.99828     4.17806    0.03081    14.20716
      O    3   -0.47703      1.99975     6.45093    0.02634     8.47703
      C    4   -0.27000      1.99947     4.24564    0.02489     6.27000
      C    5   -0.60309      1.99937     4.59163    0.01209     6.60309
      C    6   -0.60398      1.99937     4.59200    0.01261     6.60398
      C    7   -0.60518      1.99936     4.59361    0.01220     6.60518
      C    8   -0.45268      1.99935     4.41540    0.03793     6.45268
      C    9    0.28674      1.99862     3.68991    0.02474     5.71326
      C   10   -0.40161      1.99888     4.37083    0.03189     6.40161
      C   11   -0.23439      1.99919     4.21610    0.01909     6.23439
      C   12   -0.25687      1.99903     4.23805    0.01979     6.25687
      C   13   -0.18268      1.99921     4.16456    0.01890     6.18268
      H   14    0.21006      0.00000     0.78876    0.00118     0.78994
      H   15    0.22087      0.00000     0.77771    0.00142     0.77913
      H   16    0.20937      0.00000     0.78951    0.00112     0.79063
      H   17    0.21337      0.00000     0.78527    0.00136     0.78663
      H   18    0.21492      0.00000     0.78199    0.00308     0.78508
      H   19    0.19938      0.00000     0.79925    0.00137     0.80062
      H   20    0.21119      0.00000     0.78746    0.00135     0.78881
      H   21    0.20886      0.00000     0.78988    0.00126     0.79114
      H   22    0.20535      0.00000     0.79268    0.00198     0.79465
      H   23    0.20171      0.00000     0.79690    0.00139     0.79829
      H   24    0.19628      0.00000     0.80140    0.00232     0.80372
      H   25    0.21071      0.00000     0.78789    0.00141     0.78929
      H   26    0.20461      0.00000     0.79340    0.00200     0.79539
      C   27   -0.17939      1.99910     4.15982    0.02048     6.17939
      H   28    0.21036      0.00000     0.78768    0.00196     0.78964
      C   29   -0.47202      1.99936     4.44780    0.02486     6.47202
      C   30   -0.39159      1.99938     4.37702    0.01519     6.39159
      C   31   -0.39772      1.99938     4.38357    0.01477     6.39772
      H   32    0.19579      0.00000     0.80038    0.00383     0.80421
      C   33   -0.38231      1.99942     4.36938    0.01351     6.38231
      H   34    0.19550      0.00000     0.80226    0.00223     0.80450
      H   35    0.20554      0.00000     0.79271    0.00175     0.79446
      C   36   -0.37911      1.99942     4.36540    0.01429     6.37911
      H   37    0.19323      0.00000     0.80382    0.00295     0.80677
      H   38    0.21548      0.00000     0.78235    0.00217     0.78452
      C   39   -0.38633      1.99942     4.37353    0.01337     6.38633
      H   40    0.20193      0.00000     0.79670    0.00137     0.79807
      H   41    0.18557      0.00000     0.81255    0.00188     0.81443
      H   42    0.20201      0.00000     0.79651    0.00148     0.79799
      H   43    0.18539      0.00000     0.81275    0.00186     0.81461
      H   44    0.20000      0.00000     0.79864    0.00135     0.80000
      H   45    0.18862      0.00000     0.80956    0.00182     0.81138
      C   46   -0.46605      1.99939     4.44218    0.02448     6.46605
      C   47   -0.39489      1.99938     4.37991    0.01560     6.39489
      C   48   -0.39566      1.99938     4.38196    0.01432     6.39566
      H   49    0.20511      0.00000     0.79209    0.00280     0.79489
      C   50   -0.38035      1.99943     4.36732    0.01360     6.38035
      H   51    0.18758      0.00000     0.81001    0.00241     0.81242
      H   52    0.21120      0.00000     0.78679    0.00201     0.78880
      C   53   -0.38230      1.99943     4.36941    0.01347     6.38230
      H   54    0.18703      0.00000     0.81074    0.00223     0.81297
      H   55    0.19945      0.00000     0.79876    0.00179     0.80055
      C   56   -0.38668      1.99942     4.37389    0.01336     6.38668
      H   57    0.20228      0.00000     0.79636    0.00136     0.79772
      H   58    0.18781      0.00000     0.81039    0.00180     0.81219
      H   59    0.20118      0.00000     0.79738    0.00144     0.79882
      H   60    0.18568      0.00000     0.81251    0.00182     0.81432
      H   61    0.20203      0.00000     0.79663    0.00133     0.79797
      H   62    0.18737      0.00000     0.81079    0.00184     0.81263
 =======================================================================
   * Total *    0.00000     67.98033   143.43982    0.57985   212.00000

 Normal termination of Gaussian 16 at Fri Jan 24 21:41:37 2025.
