 Gaussian 16, Revision B.01,
 Gaussian 16:  ES64L-G16RevB.01 20-Dec-2017

 --------------------------------------------
 # nmr=giao b3lyp/def2TZVP pop=nbo scfcyc=200
 --------------------------------------------

 --------------
 MS-93 SPE NoRh
 --------------
 Symbolic Z-matrix:
 Charge =  0 Multiplicity = 1

                         Standard orientation:
 ---------------------------------------------------------------------
 Center     Atomic      Atomic             Coordinates (Angstroms)
 Number     Number       Type             X           Y           Z
 ---------------------------------------------------------------------
      1         15           0        2.822301    0.227748   -0.673711
      2         15           0        0.170336   -0.954372   -0.569041
      3          8           0        1.484367   -0.579160    1.782685
      4          6           0       -0.434127   -2.778477   -0.562848
      5          6           0        0.601236   -3.614899   -1.329482
      6          6           0       -0.574425   -3.300029    0.872748
      7          6           0       -1.790871   -2.855942   -1.275984
      8          6           0        1.758520   -0.920677    0.430650
      9          6           0        3.002712    1.967448    0.139442
     10          6           0        0.203986   -0.106947    1.948237
     11          6           0       -0.661992   -0.099093    0.842451
     12          6           0        3.757550    1.939176    1.477196
     13          6           0        1.591673    2.541110    0.357252
     14          6           0        4.506973   -0.730578   -0.724165
     15          6           0        5.602426    0.106664   -1.402944
     16          6           0        4.987980   -1.150532    0.675500
     17          6           0        4.274163   -2.003776   -1.560089
     18          6           0       -2.315374    0.944935    2.240507
     19          6           0       -0.178177    0.356987    3.195843
     20          6           0       -1.456363    0.879670    3.331578
     21          6           0        3.727363    2.904249   -0.844517
     22          1           0       -3.299139    1.378511    2.357603
     23          1           0        0.517243    0.318842    4.023689
     24          1           0       -1.781257    1.254235    4.294152
     25          1           0        0.801626   -3.219094   -2.326577
     26          1           0        5.935447    0.933278   -0.778134
     27          1           0        5.293041    0.508418   -2.369486
     28          1           0        2.250181   -1.891861    0.426038
     29          1           0        1.549720   -3.691499   -0.796175
     30          1           0       -1.331776   -2.751599    1.431232
     31          1           0       -2.558999   -2.312363   -0.732139
     32          1           0        3.338692    1.213343    2.173155
     33          1           0        1.067292    2.069277    1.182183
     34          1           0        4.255156   -1.752652    1.213639
     35          1           0        3.824393    3.884152   -0.368910
     36          1           0        3.154061    3.047821   -1.759769
     37          1           0        0.218137   -4.632372   -1.444392
     38          1           0        0.364344   -3.255236    1.427764
     39          1           0        4.818561    1.731866    1.347860
     40          1           0        5.885716   -1.763701    0.562804
     41          1           0        4.728625    2.574326   -1.109462
     42          1           0       -0.880501   -4.350179    0.837992
     43          1           0        3.678866    2.927532    1.938646
     44          1           0        5.249134   -0.302611    1.302576
     45          1           0        5.219906   -2.545471   -1.641372
     46          1           0        3.558180   -2.684435   -1.099719
     47          1           0        3.924294   -1.783442   -2.567179
     48          1           0       -1.751918   -2.477803   -2.297629
     49          1           0       -2.101514   -3.903506   -1.329000
     50          1           0        1.691880    3.602095    0.601114
     51          1           0        0.966642    2.460363   -0.534180
     52          1           0        6.470990   -0.532366   -1.580680
     53          6           0       -1.939043    0.468589    0.981156
     54          6           0       -2.924817    0.637912   -0.129015
     55          6           0       -4.045083   -0.206094   -0.231607
     56          6           0       -2.866049    1.767154   -0.961805
     57          6           0       -5.040380    0.029299   -1.181244
     58          6           0       -3.862810    2.014271   -1.908375
     59          6           0       -4.933987    1.137882   -2.010145
     60          1           0       -5.893466   -0.626364   -1.267799
     61          1           0       -3.817337    2.883152   -2.547896
     62          1           0       -5.707854    1.328100   -2.742718
     63          8           0       -4.081842   -1.241994    0.653643
     64          8           0       -1.797926    2.597130   -0.771161
     65          6           0       -5.259693   -2.046481    0.728171
     66          1           0       -5.421891   -2.605132   -0.197950
     67          1           0       -5.087479   -2.743987    1.544577
     68          1           0       -6.140003   -1.438235    0.948184
     69          6           0       -1.897909    3.943987   -1.230625
     70          1           0       -1.027308    4.458764   -0.832328
     71          1           0       -1.882228    4.006113   -2.322434
     72          1           0       -2.806699    4.420432   -0.854638
 ---------------------------------------------------------------------

 SCF Done:  E(RB3LYP) =  -1961.82230818     A.U. after   14 cycles

      1  P    Isotropic =   171.7903   Anisotropy =   119.0949

      2  P    Isotropic =   207.8120   Anisotropy =   103.6775

      3  O    Isotropic =   173.3912   Anisotropy =   125.8530

      4  C    Isotropic =   139.6066   Anisotropy =    19.8319

      5  C    Isotropic =   153.8804   Anisotropy =    40.4682

      6  C    Isotropic =   156.0503   Anisotropy =    38.9508

      7  C    Isotropic =   156.9871   Anisotropy =    42.4985

      8  C    Isotropic =    99.1856   Anisotropy =    71.7562

      9  C    Isotropic =   138.4113   Anisotropy =    21.5800

     10  C    Isotropic =     8.6531   Anisotropy =   113.4663

     11  C    Isotropic =    48.4920   Anisotropy =   147.0167

     12  C    Isotropic =   152.9419   Anisotropy =    34.5613

     13  C    Isotropic =   150.1886   Anisotropy =    43.9704

     14  C    Isotropic =   138.5911   Anisotropy =    21.8454

     15  C    Isotropic =   152.7262   Anisotropy =    36.8778

     16  C    Isotropic =   154.2095   Anisotropy =    39.4883

     17  C    Isotropic =   149.5819   Anisotropy =    44.1611

     18  C    Isotropic =    53.1381   Anisotropy =   156.5697

     19  C    Isotropic =    69.6376   Anisotropy =   146.4110

     20  C    Isotropic =    49.0018   Anisotropy =   181.2803

     21  C    Isotropic =   150.6352   Anisotropy =    46.6937

     22  H    Isotropic =    25.2535   Anisotropy =     8.6713

     23  H    Isotropic =    24.9224   Anisotropy =     6.3556

     24  H    Isotropic =    24.5028   Anisotropy =     3.6717

     25  H    Isotropic =    30.7939   Anisotropy =     7.4339

     26  H    Isotropic =    30.6744   Anisotropy =     7.0641

     27  H    Isotropic =    30.6415   Anisotropy =     7.6723

     28  H    Isotropic =    26.5058   Anisotropy =     5.8486

     29  H    Isotropic =    30.9061   Anisotropy =     8.4342

     30  H    Isotropic =    31.2351   Anisotropy =     3.8478

     31  H    Isotropic =    30.6996   Anisotropy =    14.3505

     32  H    Isotropic =    29.9819   Anisotropy =     4.5319

     33  H    Isotropic =    31.4154   Anisotropy =    14.0485

     34  H    Isotropic =    30.1363   Anisotropy =     4.6292

     35  H    Isotropic =    31.4295   Anisotropy =     9.2319

     36  H    Isotropic =    30.7586   Anisotropy =     7.8337

     37  H    Isotropic =    31.2624   Anisotropy =     9.5471

     38  H    Isotropic =    30.9685   Anisotropy =     5.6567

     39  H    Isotropic =    30.4889   Anisotropy =     6.7433

     40  H    Isotropic =    31.0181   Anisotropy =     9.7745

     41  H    Isotropic =    30.5053   Anisotropy =     7.8089

     42  H    Isotropic =    31.3943   Anisotropy =    10.0612

     43  H    Isotropic =    31.1786   Anisotropy =     9.2812

     44  H    Isotropic =    30.1135   Anisotropy =     6.1617

     45  H    Isotropic =    31.3561   Anisotropy =     9.0600

     46  H    Isotropic =    30.6788   Anisotropy =     8.3321

     47  H    Isotropic =    30.7731   Anisotropy =     7.4762

     48  H    Isotropic =    31.2357   Anisotropy =     6.4749

     49  H    Isotropic =    31.6940   Anisotropy =     9.2094

     50  H    Isotropic =    31.6901   Anisotropy =     6.8576

     51  H    Isotropic =    30.6523   Anisotropy =     9.6043

     52  H    Isotropic =    31.1398   Anisotropy =     9.6073

     53  C    Isotropic =    34.0183   Anisotropy =   181.8755

     54  C    Isotropic =    53.4247   Anisotropy =   130.9230

     55  C    Isotropic =    16.4557   Anisotropy =   137.9660

     56  C    Isotropic =    15.0825   Anisotropy =   136.1291

     57  C    Isotropic =    78.4442   Anisotropy =   147.8504

     58  C    Isotropic =    76.4463   Anisotropy =   149.8281

     59  C    Isotropic =    49.1251   Anisotropy =   183.2243

     60  H    Isotropic =    25.3457   Anisotropy =     7.1574

     61  H    Isotropic =    25.2007   Anisotropy =     7.6029

     62  H    Isotropic =    24.4000   Anisotropy =     4.3614

     63  O    Isotropic =   216.3754   Anisotropy =    99.3412

     64  O    Isotropic =   220.9590   Anisotropy =   103.4655

     65  C    Isotropic =   126.5693   Anisotropy =    77.9004

     66  H    Isotropic =    28.2335   Anisotropy =     9.1268

     67  H    Isotropic =    28.1005   Anisotropy =     9.3141

     68  H    Isotropic =    28.3976   Anisotropy =    10.1750

     69  C    Isotropic =   125.7342   Anisotropy =    79.8642

     70  H    Isotropic =    28.1822   Anisotropy =     7.8741

     71  H    Isotropic =    27.9443   Anisotropy =     9.2460

     72  H    Isotropic =    28.6919   Anisotropy =     9.7962

 The electronic state is 1-A.
 Alpha  occ. eigenvalues --  -77.03798 -77.03257 -19.16115 -19.15855 -19.15498
 Alpha  occ. eigenvalues --  -10.23812 -10.23673 -10.22963 -10.22874 -10.22750
 Alpha  occ. eigenvalues --  -10.22434 -10.18904 -10.18796 -10.18755 -10.18335
 Alpha  occ. eigenvalues --  -10.17925 -10.17906 -10.17369 -10.17288 -10.16887
 Alpha  occ. eigenvalues --  -10.16786 -10.16707 -10.16319 -10.15957 -10.15931
 Alpha  occ. eigenvalues --  -10.15855 -10.15454 -10.15396 -10.15096 -10.15072
 Alpha  occ. eigenvalues --  -10.15066 -10.14783  -6.52349  -6.51789  -4.68525
 Alpha  occ. eigenvalues --   -4.68427  -4.67989  -4.67962  -4.67870  -4.67419
 Alpha  occ. eigenvalues --   -1.07042  -1.06873  -1.06359  -0.86463  -0.84644
 Alpha  occ. eigenvalues --   -0.81466  -0.80796  -0.79925  -0.78430  -0.75737
 Alpha  occ. eigenvalues --   -0.74608  -0.74317  -0.71383  -0.70797  -0.69032
 Alpha  occ. eigenvalues --   -0.68726  -0.68649  -0.68412  -0.67959  -0.67839
 Alpha  occ. eigenvalues --   -0.67678  -0.63609  -0.61537  -0.60340  -0.59016
 Alpha  occ. eigenvalues --   -0.58343  -0.57261  -0.54554  -0.54396  -0.53087
 Alpha  occ. eigenvalues --   -0.51306  -0.50547  -0.49811  -0.49126  -0.48960
 Alpha  occ. eigenvalues --   -0.47928  -0.47240  -0.47130  -0.47028  -0.46480
 Alpha  occ. eigenvalues --   -0.44946  -0.44745  -0.44335  -0.44270  -0.43586
 Alpha  occ. eigenvalues --   -0.43351  -0.43204  -0.42844  -0.42618  -0.42144
 Alpha  occ. eigenvalues --   -0.41410  -0.40645  -0.40360  -0.39857  -0.39491
 Alpha  occ. eigenvalues --   -0.38792  -0.38674  -0.38499  -0.38262  -0.37929
 Alpha  occ. eigenvalues --   -0.37799  -0.37722  -0.37514  -0.36790  -0.36480
 Alpha  occ. eigenvalues --   -0.36136  -0.35785  -0.35487  -0.34843  -0.34127
 Alpha  occ. eigenvalues --   -0.33808  -0.33485  -0.33226  -0.33181  -0.32999
 Alpha  occ. eigenvalues --   -0.32677  -0.32349  -0.32167  -0.30903  -0.30536
 Alpha  occ. eigenvalues --   -0.28109  -0.27590  -0.26010  -0.23836  -0.22836
 Alpha  occ. eigenvalues --   -0.22568  -0.20536  -0.18515
 Alpha virt. eigenvalues --   -0.02479  -0.01256  -0.00036   0.00945   0.01659
 Alpha virt. eigenvalues --    0.02786   0.03342   0.03669   0.03995   0.04307
 Alpha virt. eigenvalues --    0.05078   0.05481   0.05762   0.06331   0.07116

 Mulliken charges:
               1
     1  P    0.053985
     2  P    0.082620
     3  O   -0.294670
     4  C    0.097225
     5  C   -0.365700
     6  C   -0.377194
     7  C   -0.379822
     8  C    0.009232
     9  C    0.155087
    10  C    0.198068
    11  C   -0.084809
    12  C   -0.386292
    13  C   -0.443253
    14  C    0.067811
    15  C   -0.394789
    16  C   -0.339687
    17  C   -0.343292
    18  C   -0.243898
    19  C   -0.271849
    20  C   -0.069264
    21  C   -0.363444
    22  H    0.097334
    23  H    0.105063
    24  H    0.102944
    25  H    0.128416
    26  H    0.110380
    27  H    0.128575
    28  H    0.082331
    29  H    0.097861
    30  H    0.139497
    31  H    0.145237
    32  H    0.145573
    33  H    0.162122
    34  H    0.113193
    35  H    0.102732
    36  H    0.118203
    37  H    0.107550
    38  H    0.113514
    39  H    0.097358
    40  H    0.095812
    41  H    0.115392
    42  H    0.094862
    43  H    0.097530
    44  H    0.113907
    45  H    0.105167
    46  H    0.094993
    47  H    0.122673
    48  H    0.114869
    49  H    0.095231
    50  H    0.097623
    51  H    0.138746
    52  H    0.107232
    53  C    0.309810
    54  C   -0.135251
    55  C    0.282201
    56  C    0.314882
    57  C   -0.273283
    58  C   -0.276196
    59  C   -0.099500
    60  H    0.110790
    61  H    0.108423
    62  H    0.107612
    63  O   -0.295424
    64  O   -0.292472
    65  C   -0.220600
    66  H    0.125749
    67  H    0.137142
    68  H    0.127311
    69  C   -0.211593
    70  H    0.137888
    71  H    0.120915
    72  H    0.123609
 Sum of Mulliken charges =  -0.00000

 Dipole moment (field-independent basis, Debye):
    X=             -2.1749    Y=              0.3054    Z=              0.1061  Tot=              2.1988
 Quadrupole moment (field-independent basis, Debye-Ang):
   XX=           -191.5360   YY=           -198.3837   ZZ=           -213.8332
   XY=              1.6226   XZ=              1.2045   YZ=             -2.0945

 Summary of Natural Population Analysis:

                                       Natural Population
                Natural  -----------------------------------------------
    Atom  No    Charge         Core      Valence    Rydberg      Total
 -----------------------------------------------------------------------
      P    1    0.74687      9.99840     4.22686    0.02788    14.25313
      P    2    0.79256      9.99826     4.17981    0.02936    14.20744
      O    3   -0.48615      1.99975     6.45845    0.02796     8.48615
      C    4   -0.26174      1.99946     4.23777    0.02451     6.26174
      C    5   -0.60287      1.99936     4.59133    0.01217     6.60287
      C    6   -0.60593      1.99937     4.59409    0.01247     6.60593
      C    7   -0.60803      1.99935     4.59552    0.01315     6.60803
      C    8   -0.46702      1.99933     4.42624    0.04145     6.46702
      C    9   -0.26535      1.99944     4.24108    0.02484     6.26535
      C   10    0.28675      1.99864     3.69088    0.02372     5.71325
      C   11   -0.36912      1.99877     4.34032    0.03003     6.36912
      C   12   -0.60752      1.99936     4.59595    0.01221     6.60752
      C   13   -0.60719      1.99936     4.59436    0.01347     6.60719
      C   14   -0.26307      1.99945     4.23912    0.02450     6.26307
      C   15   -0.60210      1.99936     4.59064    0.01210     6.60210
      C   16   -0.60504      1.99936     4.59325    0.01243     6.60504
      C   17   -0.60153      1.99937     4.58980    0.01236     6.60153
      C   18   -0.21388      1.99907     4.19661    0.01820     6.21388
      C   19   -0.26322      1.99900     4.24493    0.01929     6.26322
      C   20   -0.17700      1.99920     4.16021    0.01759     6.17700
      C   21   -0.60056      1.99937     4.58902    0.01218     6.60056
      H   22    0.20748      0.00000     0.79124    0.00128     0.79252
      H   23    0.21813      0.00000     0.78038    0.00149     0.78187
      H   24    0.20838      0.00000     0.79047    0.00115     0.79162
      H   25    0.21309      0.00000     0.78552    0.00139     0.78691
      H   26    0.20059      0.00000     0.79792    0.00149     0.79941
      H   27    0.21106      0.00000     0.78743    0.00151     0.78894
      H   28    0.21475      0.00000     0.78104    0.00422     0.78525
      H   29    0.19585      0.00000     0.80270    0.00145     0.80415
      H   30    0.21609      0.00000     0.78252    0.00140     0.78391
      H   31    0.21969      0.00000     0.77850    0.00181     0.78031
      H   32    0.21804      0.00000     0.78050    0.00145     0.78196
      H   33    0.21559      0.00000     0.78265    0.00177     0.78441
      H   34    0.20087      0.00000     0.79778    0.00135     0.79913
      H   35    0.19990      0.00000     0.79802    0.00208     0.80010
      H   36    0.21127      0.00000     0.78740    0.00133     0.78873
      H   37    0.20547      0.00000     0.79249    0.00204     0.79453
      H   38    0.20168      0.00000     0.79690    0.00142     0.79832
      H   39    0.19495      0.00000     0.80351    0.00154     0.80505
      H   40    0.19385      0.00000     0.80382    0.00234     0.80615
      H   41    0.20461      0.00000     0.79411    0.00128     0.79539
      H   42    0.19396      0.00000     0.80372    0.00231     0.80604
      H   43    0.19499      0.00000     0.80281    0.00220     0.80501
      H   44    0.20651      0.00000     0.79212    0.00138     0.79349
      H   45    0.20112      0.00000     0.79674    0.00214     0.79888
      H   46    0.19670      0.00000     0.80184    0.00146     0.80330
      H   47    0.21478      0.00000     0.78383    0.00139     0.78522
      H   48    0.21051      0.00000     0.78817    0.00131     0.78949
      H   49    0.19702      0.00000     0.80089    0.00210     0.80298
      H   50    0.19780      0.00000     0.80006    0.00214     0.80220
      H   51    0.22017      0.00000     0.77811    0.00172     0.77983
      H   52    0.20127      0.00000     0.79652    0.00221     0.79873
      C   53    0.00673      1.99896     3.96869    0.02562     5.99327
      C   54   -0.14130      1.99882     4.11788    0.02460     6.14130
      C   55    0.31653      1.99869     3.66131    0.02347     5.68347
      C   56    0.32502      1.99868     3.65516    0.02114     5.67498
      C   57   -0.32197      1.99906     4.30366    0.01925     6.32197
      C   58   -0.31452      1.99906     4.29637    0.01909     6.31452
      C   59   -0.16424      1.99922     4.14551    0.01952     6.16424
      H   60    0.21323      0.00000     0.78516    0.00161     0.78677
      H   61    0.21352      0.00000     0.78485    0.00162     0.78648
      H   62    0.20757      0.00000     0.79123    0.00120     0.79243
      O   63   -0.46480      1.99976     6.44776    0.01728     8.46480
      O   64   -0.46132      1.99975     6.43604    0.02553     8.46132
      C   65   -0.24911      1.99926     4.23593    0.01391     6.24911
      H   66    0.17083      0.00000     0.82681    0.00236     0.82917
      H   67    0.19581      0.00000     0.80290    0.00128     0.80419
      H   68    0.17370      0.00000     0.82400    0.00231     0.82630
      C   69   -0.24582      1.99926     4.23385    0.01271     6.24582
      H   70    0.19468      0.00000     0.80389    0.00143     0.80532
      H   71    0.16792      0.00000     0.82992    0.00216     0.83208
      H   72    0.17254      0.00000     0.82516    0.00230     0.82746
 =======================================================================
   * Total *   -0.00000     79.97356   175.31204    0.71440   256.00000

 Normal termination of Gaussian 16 at Fri Jan 24 22:35:09 2025.
