 Gaussian 16, Revision B.01,
 Gaussian 16:  ES64L-G16RevB.01 20-Dec-2017

 --------------------------------------------
 # nmr=giao b3lyp/def2TZVP pop=nbo scfcyc=200
 --------------------------------------------

 --------------
 MS-90 SPE NoRh
 --------------
 Symbolic Z-matrix:
 Charge =  0 Multiplicity = 1

                         Standard orientation:
 ---------------------------------------------------------------------
 Center     Atomic      Atomic             Coordinates (Angstroms)
 Number     Number       Type             X           Y           Z
 ---------------------------------------------------------------------
      1         15           0       -1.383175   -0.295955   -0.744628
      2          6           0       -2.023884    1.388214   -0.378383
      3          6           0       -1.437663    2.231142    0.569969
      4          6           0       -1.923400    3.523096    0.745926
      5          6           0       -2.990044    3.985369   -0.014374
      6          6           0       -3.577126    3.150228   -0.961947
      7          6           0       -3.094395    1.862661   -1.149162
      8          1           0       -3.566607    1.223981   -1.885888
      9          1           0       -4.410442    3.502477   -1.556469
     10          1           0       -3.366893    4.990699    0.129473
     11          1           0       -1.465069    4.167648    1.485625
     12          1           0       -0.611222    1.882473    1.173760
     13          6           0       -2.775531   -1.473139   -0.458304
     14          6           0       -2.623216   -2.786779   -0.916405
     15          6           0       -3.623977   -3.728231   -0.701563
     16          6           0       -4.794279   -3.362695   -0.044111
     17          6           0       -4.957786   -2.055131    0.401996
     18          6           0       -3.953937   -1.113835    0.199859
     19          1           0       -4.096119   -0.101539    0.557111
     20          1           0       -5.867377   -1.765730    0.913463
     21          1           0       -5.576769   -4.092450    0.115809
     22          1           0       -3.493815   -4.742460   -1.056626
     23          1           0       -1.721709   -3.073776   -1.445475
     24          6           0        0.020088   -0.787330    0.448704
     25         15           0        1.398516   -0.273502   -0.768653
     26          6           0        1.940630    1.439722   -0.384900
     27          6           0        1.787344    2.417181   -1.373561
     28          6           0        2.180558    3.730317   -1.135628
     29          6           0        2.727304    4.079408    0.093196
     30          6           0        2.880829    3.114651    1.084789
     31          6           0        2.491643    1.801412    0.851070
     32          1           0        2.621654    1.068612    1.633302
     33          1           0        3.306293    3.384566    2.043669
     34          1           0        3.036147    5.100913    0.279100
     35          1           0        2.058830    4.476348   -1.910029
     36          1           0        1.349938    2.148126   -2.325987
     37          6           0        2.860743   -1.370665   -0.521233
     38          6           0        4.159158   -0.855903   -0.466576
     39          6           0        5.249398   -1.714973   -0.360289
     40          6           0        5.057196   -3.090492   -0.308783
     41          6           0        3.766594   -3.610941   -0.376270
     42          6           0        2.676171   -2.758146   -0.493215
     43          1           0        1.682223   -3.183228   -0.564797
     44          1           0        3.610473   -4.681388   -0.345126
     45          1           0        5.906574   -3.755730   -0.221858
     46          1           0        6.249917   -1.303929   -0.315740
     47          1           0        4.327206    0.212258   -0.502771
     48          1           0       -0.003670   -1.886283    0.313930
     49          6           0       -1.206215   -0.608682    2.551118
     50          1           0       -1.532162   -1.659078    2.562389
     51          1           0       -1.081249   -0.277614    3.581884
     52          1           0       -1.992177   -0.004542    2.103312
     53          6           0        1.134501   -1.119239    2.558279
     54          1           0        2.095841   -0.967011    2.072725
     55          1           0        1.199318   -0.731855    3.574368
     56          1           0        0.956274   -2.205050    2.612078
     57          7           0        0.064323   -0.415416    1.845254
 ---------------------------------------------------------------------

 SCF Done:  E(RB3LYP) =  -1782.99082450     A.U. after   14 cycles

      1  P    Isotropic =   231.7822   Anisotropy =    59.6040

      2  C    Isotropic =    37.9714   Anisotropy =   184.5068

      3  C    Isotropic =    44.9905   Anisotropy =   192.1902

      4  C    Isotropic =    49.9671   Anisotropy =   185.8701

      5  C    Isotropic =    52.3329   Anisotropy =   182.2689

      6  C    Isotropic =    51.3071   Anisotropy =   182.4611

      7  C    Isotropic =    46.7722   Anisotropy =   185.2354

      8  H    Isotropic =    24.3801   Anisotropy =    10.3655

      9  H    Isotropic =    24.4657   Anisotropy =     4.7452

     10  H    Isotropic =    24.6799   Anisotropy =     4.3391

     11  H    Isotropic =    24.9622   Anisotropy =     7.6069

     12  H    Isotropic =    24.3221   Anisotropy =     7.5723

     13  C    Isotropic =    30.0305   Anisotropy =   202.6821

     14  C    Isotropic =    44.0358   Anisotropy =   181.8495

     15  C    Isotropic =    49.6038   Anisotropy =   183.0094

     16  C    Isotropic =    50.9633   Anisotropy =   184.1861

     17  C    Isotropic =    49.8668   Anisotropy =   182.6063

     18  C    Isotropic =    47.6741   Anisotropy =   186.9937

     19  H    Isotropic =    24.4097   Anisotropy =    12.5237

     20  H    Isotropic =    24.5399   Anisotropy =     6.5610

     21  H    Isotropic =    24.4466   Anisotropy =     4.1610

     22  H    Isotropic =    24.1802   Anisotropy =     5.6234

     23  H    Isotropic =    23.7296   Anisotropy =    10.0480

     24  C    Isotropic =    97.3758   Anisotropy =    28.4561

     25  P    Isotropic =   236.2896   Anisotropy =    68.8389

     26  C    Isotropic =    41.2889   Anisotropy =   198.0579

     27  C    Isotropic =    37.3888   Anisotropy =   186.1610

     28  C    Isotropic =    49.6051   Anisotropy =   186.5901

     29  C    Isotropic =    47.8808   Anisotropy =   191.2384

     30  C    Isotropic =    50.2267   Anisotropy =   183.7767

     31  C    Isotropic =    38.1640   Anisotropy =   192.2639

     32  H    Isotropic =    23.7046   Anisotropy =    10.3965

     33  H    Isotropic =    24.1467   Anisotropy =     6.0211

     34  H    Isotropic =    24.1880   Anisotropy =     3.6456

     35  H    Isotropic =    24.4134   Anisotropy =     4.8617

     36  H    Isotropic =    23.9641   Anisotropy =     7.6386

     37  C    Isotropic =    29.0133   Anisotropy =   199.1636

     38  C    Isotropic =    51.8382   Anisotropy =   180.0690

     39  C    Isotropic =    49.4800   Anisotropy =   182.9456

     40  C    Isotropic =    53.5364   Anisotropy =   178.5846

     41  C    Isotropic =    50.1061   Anisotropy =   182.5183

     42  C    Isotropic =    50.2856   Anisotropy =   183.9367

     43  H    Isotropic =    23.9764   Anisotropy =    10.8018

     44  H    Isotropic =    24.2841   Anisotropy =     6.1051

     45  H    Isotropic =    24.6138   Anisotropy =     4.1520

     46  H    Isotropic =    24.5777   Anisotropy =     6.5327

     47  H    Isotropic =    24.9418   Anisotropy =    13.6220

     48  H    Isotropic =    28.0127   Anisotropy =     4.7800

     49  C    Isotropic =   134.7704   Anisotropy =    62.4403

     50  H    Isotropic =    30.5576   Anisotropy =     6.4386

     51  H    Isotropic =    29.8969   Anisotropy =     9.6894

     52  H    Isotropic =    29.3810   Anisotropy =     4.9802

     53  C    Isotropic =   133.7736   Anisotropy =    65.3713

     54  H    Isotropic =    29.3397   Anisotropy =     5.4488

     55  H    Isotropic =    29.6977   Anisotropy =    10.0697

     56  H    Isotropic =    30.3647   Anisotropy =     6.6845

     57  N    Isotropic =   201.3820   Anisotropy =    39.0874

 The electronic state is 1-A.
 Alpha  occ. eigenvalues --  -77.05260 -77.04834 -14.32290 -10.22256 -10.19116
 Alpha  occ. eigenvalues --  -10.18833 -10.18588 -10.18562 -10.18543 -10.18431
 Alpha  occ. eigenvalues --  -10.18247 -10.18126 -10.18103 -10.18038 -10.17947
 Alpha  occ. eigenvalues --  -10.17908 -10.17887 -10.17828 -10.17777 -10.17719
 Alpha  occ. eigenvalues --  -10.17691 -10.17653 -10.17573 -10.17523 -10.17447
 Alpha  occ. eigenvalues --  -10.17383 -10.17312 -10.17310 -10.17243 -10.17158
 Alpha  occ. eigenvalues --   -6.53798  -6.53400  -4.69959  -4.69911  -4.69550
 Alpha  occ. eigenvalues --   -4.69515  -4.69441  -4.69043  -0.93062  -0.86346
 Alpha  occ. eigenvalues --   -0.86205  -0.85661  -0.85637  -0.77361  -0.76467
 Alpha  occ. eigenvalues --   -0.75339  -0.75225  -0.74929  -0.74822  -0.74542
 Alpha  occ. eigenvalues --   -0.74498  -0.72457  -0.70929  -0.64433  -0.63971
 Alpha  occ. eigenvalues --   -0.61260  -0.61156  -0.60932  -0.60616  -0.60031
 Alpha  occ. eigenvalues --   -0.60002  -0.59820  -0.56184  -0.54902  -0.52379
 Alpha  occ. eigenvalues --   -0.52108  -0.50746  -0.50221  -0.48420  -0.46989
 Alpha  occ. eigenvalues --   -0.46450  -0.45930  -0.45847  -0.45531  -0.45470
 Alpha  occ. eigenvalues --   -0.45237  -0.45157  -0.44378  -0.43995  -0.42892
 Alpha  occ. eigenvalues --   -0.42771  -0.42489  -0.42258  -0.42092  -0.40805
 Alpha  occ. eigenvalues --   -0.39900  -0.39632  -0.38977  -0.38218  -0.37996
 Alpha  occ. eigenvalues --   -0.37653  -0.37458  -0.36894  -0.36591  -0.35483
 Alpha  occ. eigenvalues --   -0.35113  -0.35087  -0.34841  -0.34644  -0.32698
 Alpha  occ. eigenvalues --   -0.32357  -0.31337  -0.28293  -0.26869  -0.26751
 Alpha  occ. eigenvalues --   -0.26401  -0.26202  -0.25890  -0.25729  -0.25484
 Alpha  occ. eigenvalues --   -0.23320  -0.21880  -0.18211
 Alpha virt. eigenvalues --   -0.03728  -0.03067  -0.02700  -0.02130  -0.01850
 Alpha virt. eigenvalues --   -0.01464  -0.01186  -0.00842   0.02300   0.02896
 Alpha virt. eigenvalues --    0.04712   0.04871   0.05222   0.05429   0.06093

 Mulliken charges:
               1
     1  P    0.150894
     2  C    0.045467
     3  C   -0.141328
     4  C   -0.145067
     5  C   -0.107521
     6  C   -0.098249
     7  C   -0.225227
     8  H    0.116243
     9  H    0.108197
    10  H    0.106376
    11  H    0.104747
    12  H    0.180401
    13  C    0.066243
    14  C   -0.206328
    15  C   -0.110486
    16  C   -0.102112
    17  C   -0.122745
    18  C   -0.174772
    19  H    0.144285
    20  H    0.108051
    21  H    0.109483
    22  H    0.108760
    23  H    0.117857
    24  C   -0.117104
    25  P    0.150743
    26  C    0.017773
    27  C   -0.106732
    28  C   -0.118190
    29  C   -0.092764
    30  C   -0.107385
    31  C   -0.159837
    32  H    0.107848
    33  H    0.108181
    34  H    0.111138
    35  H    0.110096
    36  H    0.120137
    37  C    0.029641
    38  C   -0.154158
    39  C   -0.129217
    40  C   -0.106169
    41  C   -0.120038
    42  C   -0.188417
    43  H    0.103266
    44  H    0.105512
    45  H    0.106224
    46  H    0.105951
    47  H    0.142723
    48  H    0.087096
    49  C   -0.268469
    50  H    0.103744
    51  H    0.115223
    52  H    0.136346
    53  C   -0.284930
    54  H    0.141656
    55  H    0.119651
    56  H    0.094800
    57  N   -0.197510
 Sum of Mulliken charges =  -0.00000

 Dipole moment (field-independent basis, Debye):
    X=             -0.2406    Y=              0.3101    Z=              2.2747  Tot=              2.3083
 Quadrupole moment (field-independent basis, Debye-Ang):
   XX=           -183.0519   YY=           -174.7280   ZZ=           -194.9074
   XY=              2.9035   XZ=              3.0591   YZ=             -0.5074

 Summary of Natural Population Analysis:

                                       Natural Population
                Natural  -----------------------------------------------
    Atom  No    Charge         Core      Valence    Rydberg      Total
 -----------------------------------------------------------------------
      P    1    0.84406      9.99802     4.12586    0.03206    14.15594
      C    2   -0.33986      1.99899     4.30944    0.03143     6.33986
      C    3   -0.21679      1.99907     4.19644    0.02128     6.21679
      C    4   -0.19794      1.99918     4.17936    0.01940     6.19794
      C    5   -0.21019      1.99919     4.19159    0.01941     6.21019
      C    6   -0.20225      1.99918     4.18452    0.01854     6.20225
      C    7   -0.20456      1.99909     4.18578    0.01969     6.20456
      H    8    0.21219      0.00000     0.78603    0.00179     0.78781
      H    9    0.20846      0.00000     0.79029    0.00125     0.79154
      H   10    0.20705      0.00000     0.79178    0.00117     0.79295
      H   11    0.20799      0.00000     0.79071    0.00130     0.79201
      H   12    0.23129      0.00000     0.76554    0.00317     0.76871
      C   13   -0.32384      1.99897     4.29388    0.03099     6.32384
      C   14   -0.20481      1.99909     4.18534    0.02038     6.20481
      C   15   -0.20109      1.99918     4.18305    0.01885     6.20109
      C   16   -0.20664      1.99919     4.18809    0.01935     6.20664
      C   17   -0.20069      1.99919     4.18242    0.01908     6.20069
      C   18   -0.20529      1.99907     4.18625    0.01997     6.20529
      H   19    0.21472      0.00000     0.78302    0.00226     0.78528
      H   20    0.20772      0.00000     0.79093    0.00135     0.79228
      H   21    0.20819      0.00000     0.79063    0.00118     0.79181
      H   22    0.20892      0.00000     0.78978    0.00130     0.79108
      H   23    0.20922      0.00000     0.78892    0.00185     0.79078
      C   24   -0.56383      1.99933     4.52367    0.04084     6.56383
      P   25    0.82712      9.99802     4.14216    0.03270    14.17288
      C   26   -0.34548      1.99899     4.31259    0.03390     6.34548
      C   27   -0.17796      1.99911     4.15881    0.02005     6.17796
      C   28   -0.20653      1.99918     4.18803    0.01932     6.20653
      C   29   -0.19258      1.99919     4.17443    0.01896     6.19258
      C   30   -0.21071      1.99918     4.19264    0.01889     6.21071
      C   31   -0.18649      1.99908     4.16724    0.02017     6.18649
      H   32    0.21034      0.00000     0.78720    0.00246     0.78966
      H   33    0.20797      0.00000     0.79065    0.00139     0.79203
      H   34    0.20853      0.00000     0.79029    0.00119     0.79147
      H   35    0.21107      0.00000     0.78766    0.00126     0.78893
      H   36    0.22179      0.00000     0.77674    0.00147     0.77821
      C   37   -0.32336      1.99899     4.29255    0.03181     6.32336
      C   38   -0.21722      1.99908     4.19845    0.01969     6.21722
      C   39   -0.19470      1.99919     4.17679    0.01872     6.19470
      C   40   -0.21857      1.99919     4.19979    0.01959     6.21857
      C   41   -0.19561      1.99919     4.17777    0.01865     6.19561
      C   42   -0.21492      1.99908     4.19611    0.01973     6.21492
      H   43    0.20106      0.00000     0.79700    0.00194     0.79894
      H   44    0.20734      0.00000     0.79140    0.00127     0.79266
      H   45    0.20738      0.00000     0.79145    0.00117     0.79262
      H   46    0.20724      0.00000     0.79148    0.00128     0.79276
      H   47    0.21542      0.00000     0.78280    0.00178     0.78458
      H   48    0.20576      0.00000     0.78899    0.00525     0.79424
      C   49   -0.40204      1.99936     4.38867    0.01401     6.40204
      H   50    0.16582      0.00000     0.83034    0.00385     0.83418
      H   51    0.19546      0.00000     0.80312    0.00143     0.80454
      H   52    0.20705      0.00000     0.79144    0.00151     0.79295
      C   53   -0.40048      1.99936     4.38961    0.01151     6.40048
      H   54    0.20483      0.00000     0.79348    0.00169     0.79517
      H   55    0.19619      0.00000     0.80215    0.00166     0.80381
      H   56    0.16267      0.00000     0.83306    0.00427     0.83733
      N   57   -0.45842      1.99950     5.42708    0.03184     7.45842
 =======================================================================
   * Total *   -0.00000     75.97241   149.29526    0.73233   226.00000

 Normal termination of Gaussian 16 at Fri Jan 24 22:13:32 2025.
