 Gaussian 16, Revision B.01,
 Gaussian 16:  ES64L-G16RevB.01 20-Dec-2017

 --------------------------------------------
 # nmr=giao b3lyp/def2TZVP pop=nbo scfcyc=200
 --------------------------------------------

 --------------
 MS-91 SPE NoRh
 --------------
 Symbolic Z-matrix:
 Charge =  0 Multiplicity = 1

                         Standard orientation:
 ---------------------------------------------------------------------
 Center     Atomic      Atomic             Coordinates (Angstroms)
 Number     Number       Type             X           Y           Z
 ---------------------------------------------------------------------
      1         15           0        1.388244    0.397507   -1.269973
      2         15           0       -1.312805    0.731150   -1.106784
      3          6           0       -0.008209   -0.382527   -0.253048
      4          6           0        5.020496   -1.906914   -2.217062
      5          6           0        2.603435   -3.530238   -1.102534
      6          6           0        3.351634    2.973921    1.792761
      7          6           0        4.533327    2.600827   -1.065474
      8          6           0       -4.221409    3.142973    0.086381
      9          6           0       -1.857375    3.869245    1.977188
     10          1           0       -0.161755   -1.372952   -0.687828
     11          1           0        5.747238   -2.678420   -1.950052
     12          1           0        4.690266   -2.101304   -3.239000
     13          1           0        5.536521   -0.945282   -2.203524
     14          1           0        3.249021   -4.373958   -0.846103
     15          1           0        1.768307   -3.533464   -0.398527
     16          1           0        2.212261   -3.707475   -2.107812
     17          1           0        3.963803    3.857656    1.984659
     18          1           0        2.435949    3.073914    2.380384
     19          1           0        3.898163    2.103374    2.160305
     20          1           0        5.152623    3.499122   -1.006851
     21          1           0        5.133560    1.763894   -0.704630
     22          1           0        4.310940    2.425924   -2.120897
     23          1           0       -4.697584    2.347969   -0.490014
     24          1           0       -4.976370    3.568311    0.752357
     25          1           0       -3.910674    3.929545   -0.605179
     26          1           0       -2.514439    4.341266    2.711499
     27          1           0       -0.984366    3.489072    2.510004
     28          1           0       -1.524798    4.643719    1.281946
     29          6           0       -3.261556    1.100185    2.236422
     30          1           0       -3.761543    0.292062    1.700952
     31          1           0       -2.397053    0.677173    2.750897
     32          1           0       -3.952694    1.475530    2.995566
     33          6           0        1.919272    4.246405   -0.664076
     34          1           0        1.640370    4.107339   -1.709715
     35          1           0        1.001507    4.339170   -0.079981
     36          1           0        2.466052    5.189873   -0.584099
     37          6           0        4.089904   -1.511665    0.738056
     38          1           0        4.611276   -0.554236    0.793064
     39          1           0        3.230870   -1.477748    1.410666
     40          1           0        4.770172   -2.280757    1.112580
     41         14           0        2.973486    2.822610   -0.038288
     42         14           0        3.575061   -1.925526   -1.021877
     43         14           0       -2.763517    2.490765    1.078753
     44          6           0       -4.942789   -0.464210   -2.976632
     45          1           0       -5.520192    0.286815   -2.434029
     46          1           0       -4.470030    0.025228   -3.829640
     47          1           0       -5.648524   -1.199977   -3.370648
     48          6           0       -4.543512   -2.130686   -0.389680
     49          1           0       -5.192656   -1.431003    0.139388
     50          1           0       -5.164640   -2.962102   -0.732560
     51          1           0       -3.819365   -2.525467    0.326339
     52          6           0       -2.590929   -2.499852   -2.792422
     53          1           0       -2.010913   -1.989222   -3.563546
     54          1           0       -1.894244   -3.020352   -2.132048
     55          1           0       -3.199719   -3.261840   -3.285413
     56         14           0       -3.699224   -1.305307   -1.847346
     57          8           0       -2.714416   -0.067196   -1.173209
     58          8           0       -1.595749    1.906629   -0.052992
     59          8           0        2.037162    1.377126   -0.152185
     60          8           0        2.524138   -0.682142   -1.611637
     61          7           0        0.113078   -0.441734    1.153460
     62          1           0        0.607139    0.332839    1.569510
     63          6           0       -0.021398   -1.582232    1.952039
     64          6           0        0.482949   -1.551830    3.260664
     65          6           0       -0.661026   -2.746039    1.508453
     66          6           0        0.355674   -2.653945    4.093721
     67          1           0        0.978906   -0.657416    3.621965
     68          6           0       -0.773447   -3.849397    2.350611
     69          1           0       -1.091148   -2.795576    0.517933
     70          6           0       -0.268837   -3.815606    3.644764
     71          1           0        0.753555   -2.605549    5.099351
     72          1           0       -1.271303   -4.739927    1.987006
     73          1           0       -0.365229   -4.674886    4.294860
 ---------------------------------------------------------------------

 SCF Done:  E(RB3LYP) =  -2947.27958877     A.U. after   14 cycles

      1  P    Isotropic =   114.9877   Anisotropy =   203.9056

      2  P    Isotropic =    88.0743   Anisotropy =   237.6318

      3  C    Isotropic =   106.5796   Anisotropy =    26.1874

      4  C    Isotropic =   182.3402   Anisotropy =    13.1422

      5  C    Isotropic =   183.6847   Anisotropy =     9.8391

      6  C    Isotropic =   181.9256   Anisotropy =    11.1675

      7  C    Isotropic =   182.3863   Anisotropy =    10.1898

      8  C    Isotropic =   181.8124   Anisotropy =    11.8344

      9  C    Isotropic =   182.0802   Anisotropy =    11.4170

     10  H    Isotropic =    28.6417   Anisotropy =     3.4589

     11  H    Isotropic =    32.1536   Anisotropy =    10.0349

     12  H    Isotropic =    31.6261   Anisotropy =     8.4675

     13  H    Isotropic =    31.7003   Anisotropy =     7.7349

     14  H    Isotropic =    32.3728   Anisotropy =     9.7517

     15  H    Isotropic =    31.6761   Anisotropy =    11.4561

     16  H    Isotropic =    31.8565   Anisotropy =     7.8062

     17  H    Isotropic =    31.9284   Anisotropy =    10.3958

     18  H    Isotropic =    31.5022   Anisotropy =     7.2610

     19  H    Isotropic =    31.5007   Anisotropy =     6.9421

     20  H    Isotropic =    31.9779   Anisotropy =    10.4191

     21  H    Isotropic =    31.6259   Anisotropy =     7.2753

     22  H    Isotropic =    31.3197   Anisotropy =     6.8453

     23  H    Isotropic =    31.4941   Anisotropy =     8.6133

     24  H    Isotropic =    32.0708   Anisotropy =    10.0650

     25  H    Isotropic =    31.5445   Anisotropy =     7.9284

     26  H    Isotropic =    32.0399   Anisotropy =    10.1416

     27  H    Isotropic =    31.6387   Anisotropy =     7.3303

     28  H    Isotropic =    31.5428   Anisotropy =     7.5623

     29  C    Isotropic =   180.8536   Anisotropy =     9.4046

     30  H    Isotropic =    31.6625   Anisotropy =     8.4814

     31  H    Isotropic =    31.5965   Anisotropy =     8.9141

     32  H    Isotropic =    32.1500   Anisotropy =    10.2435

     33  C    Isotropic =   182.9316   Anisotropy =    10.0975

     34  H    Isotropic =    31.3511   Anisotropy =     6.9522

     35  H    Isotropic =    31.5983   Anisotropy =     9.7798

     36  H    Isotropic =    32.0753   Anisotropy =    10.1717

     37  C    Isotropic =   181.5384   Anisotropy =     8.7009

     38  H    Isotropic =    31.7215   Anisotropy =     7.4720

     39  H    Isotropic =    31.6629   Anisotropy =    10.0523

     40  H    Isotropic =    32.1967   Anisotropy =     9.8808

     41  Si   Isotropic =   289.2927   Anisotropy =    21.1621

     42  Si   Isotropic =   291.0668   Anisotropy =    18.4720

     43  Si   Isotropic =   291.2324   Anisotropy =    20.6956

     44  C    Isotropic =   182.2606   Anisotropy =    12.3942

     45  H    Isotropic =    31.5787   Anisotropy =     7.4923

     46  H    Isotropic =    31.4318   Anisotropy =     7.8869

     47  H    Isotropic =    32.0178   Anisotropy =    10.0766

     48  C    Isotropic =   181.7314   Anisotropy =     9.2890

     49  H    Isotropic =    31.6760   Anisotropy =     6.7747

     50  H    Isotropic =    32.0268   Anisotropy =    10.2323

     51  H    Isotropic =    31.4241   Anisotropy =     8.7967

     52  C    Isotropic =   181.8500   Anisotropy =     9.3640

     53  H    Isotropic =    31.3091   Anisotropy =     7.0254

     54  H    Isotropic =    31.3450   Anisotropy =     7.8029

     55  H    Isotropic =    31.8532   Anisotropy =    10.1082

     56  Si   Isotropic =   295.9273   Anisotropy =    19.5832

     57  O    Isotropic =   202.2201   Anisotropy =   141.3293

     58  O    Isotropic =   212.9190   Anisotropy =   142.3713

     59  O    Isotropic =   202.2105   Anisotropy =   147.8219

     60  O    Isotropic =   192.4190   Anisotropy =   131.1065

     61  N    Isotropic =   183.9584   Anisotropy =    90.2141

     62  H    Isotropic =    27.8563   Anisotropy =     8.9240

     63  C    Isotropic =    28.3332   Anisotropy =   171.6671

     64  C    Isotropic =    64.6515   Anisotropy =   137.0991

     65  C    Isotropic =    71.0540   Anisotropy =   152.5251

     66  C    Isotropic =    48.3299   Anisotropy =   182.5132

     67  H    Isotropic =    25.1068   Anisotropy =     7.8677

     68  C    Isotropic =    47.7824   Anisotropy =   184.3164

     69  H    Isotropic =    25.2496   Anisotropy =     6.7429

     70  C    Isotropic =    63.7898   Anisotropy =   161.9418

     71  H    Isotropic =    24.6030   Anisotropy =     5.2575

     72  H    Isotropic =    24.4930   Anisotropy =     6.4265

     73  H    Isotropic =    25.1664   Anisotropy =     3.2686

 The electronic state is 1-A.
 Alpha  occ. eigenvalues --  -77.08803 -77.08795 -66.12245 -66.12074 -66.11682
 Alpha  occ. eigenvalues --  -66.11656 -19.11535 -19.11289 -19.11236 -19.11125
 Alpha  occ. eigenvalues --  -14.32482 -10.21308 -10.19091 -10.16988 -10.16939
 Alpha  occ. eigenvalues --  -10.16469 -10.16392 -10.15738 -10.15271 -10.15263
 Alpha  occ. eigenvalues --  -10.15068 -10.15049 -10.15010 -10.14878 -10.14856
 Alpha  occ. eigenvalues --  -10.14811 -10.14712 -10.14663 -10.14650 -10.14355
 Alpha  occ. eigenvalues --   -6.56370  -6.56336  -5.27903  -5.27766  -5.27412
 Alpha  occ. eigenvalues --   -5.27354  -4.72689  -4.72668  -4.72503  -4.72469
 Alpha  occ. eigenvalues --   -4.71934  -4.71891  -3.63942  -3.63801  -3.63613
 Alpha  occ. eigenvalues --   -3.63596  -3.63473  -3.63460  -3.63442  -3.63389
 Alpha  occ. eigenvalues --   -3.63115  -3.63108  -3.63062  -3.63043  -1.00874
 Alpha  occ. eigenvalues --   -1.00608  -0.96836  -0.96620  -0.93214  -0.84078
 Alpha  occ. eigenvalues --   -0.74743  -0.74130  -0.72080  -0.72001  -0.71627
 Alpha  occ. eigenvalues --   -0.71531  -0.68978  -0.68725  -0.68683  -0.68575
 Alpha  occ. eigenvalues --   -0.68388  -0.68351  -0.68291  -0.68247  -0.68025
 Alpha  occ. eigenvalues --   -0.61446  -0.60558  -0.60080  -0.57598  -0.53773
 Alpha  occ. eigenvalues --   -0.52597  -0.52359  -0.50301  -0.47757  -0.45117
 Alpha  occ. eigenvalues --   -0.44679  -0.43837  -0.43579  -0.43326  -0.43021
 Alpha  occ. eigenvalues --   -0.42909  -0.42259  -0.42177  -0.42112  -0.41731
 Alpha  occ. eigenvalues --   -0.41591  -0.41543  -0.41475  -0.41348  -0.41214
 Alpha  occ. eigenvalues --   -0.41042  -0.40814  -0.40605  -0.40447  -0.40217
 Alpha  occ. eigenvalues --   -0.40032  -0.39869  -0.39697  -0.39581  -0.39445
 Alpha  occ. eigenvalues --   -0.39204  -0.39167  -0.39000  -0.38796  -0.38780
 Alpha  occ. eigenvalues --   -0.38649  -0.38422  -0.37955  -0.37655  -0.37506
 Alpha  occ. eigenvalues --   -0.35801  -0.35658  -0.35113  -0.34550  -0.34150
 Alpha  occ. eigenvalues --   -0.33912  -0.33718  -0.33523  -0.30739  -0.30717
 Alpha  occ. eigenvalues --   -0.30360  -0.30280  -0.29975  -0.29511  -0.29273
 Alpha  occ. eigenvalues --   -0.28867  -0.27736  -0.25227  -0.21527  -0.20801
 Alpha  occ. eigenvalues --   -0.15490
 Alpha virt. eigenvalues --   -0.01084   0.00105   0.00608   0.01037   0.01926
 Alpha virt. eigenvalues --    0.02189   0.03308   0.03894   0.04015   0.04548
 Alpha virt. eigenvalues --    0.05193   0.05825   0.05971   0.06243   0.06359

 Mulliken charges:
               1
     1  P    0.388258
     2  P    0.412658
     3  C   -0.054387
     4  C   -0.461731
     5  C   -0.477485
     6  C   -0.458394
     7  C   -0.458619
     8  C   -0.457450
     9  C   -0.469191
    10  H    0.080694
    11  H    0.109547
    12  H    0.124100
    13  H    0.122492
    14  H    0.113344
    15  H    0.145577
    16  H    0.119632
    17  H    0.114757
    18  H    0.118269
    19  H    0.124688
    20  H    0.118016
    21  H    0.116080
    22  H    0.133842
    23  H    0.124795
    24  H    0.110537
    25  H    0.122741
    26  H    0.115255
    27  H    0.113481
    28  H    0.122415
    29  C   -0.446045
    30  H    0.132104
    31  H    0.133054
    32  H    0.110661
    33  C   -0.457917
    34  H    0.133116
    35  H    0.129245
    36  H    0.110040
    37  C   -0.462045
    38  H    0.112401
    39  H    0.146264
    40  H    0.115282
    41  Si   0.559069
    42  Si   0.560156
    43  Si   0.536189
    44  C   -0.462136
    45  H    0.120159
    46  H    0.128260
    47  H    0.111404
    48  C   -0.458669
    49  H    0.119153
    50  H    0.115673
    51  H    0.135588
    52  C   -0.473416
    53  H    0.134472
    54  H    0.123834
    55  H    0.117059
    56  Si   0.544269
    57  O   -0.422640
    58  O   -0.417026
    59  O   -0.463878
    60  O   -0.411098
    61  N   -0.286993
    62  H    0.204318
    63  C    0.295616
    64  C   -0.276250
    65  C   -0.300204
    66  C   -0.058535
    67  H    0.093432
    68  C   -0.082175
    69  H    0.109789
    70  C   -0.164153
    71  H    0.101967
    72  H    0.099034
    73  H    0.097654
 Sum of Mulliken charges =  -0.00000

 Dipole moment (field-independent basis, Debye):
    X=              0.2248    Y=             -0.0274    Z=              1.0169  Tot=              1.0418
 Quadrupole moment (field-independent basis, Debye-Ang):
   XX=           -213.4680   YY=           -220.6034   ZZ=           -234.1826
   XY=              3.7891   XZ=              4.5707   YZ=             10.4540

 Summary of Natural Population Analysis:

                                       Natural Population
                Natural  -----------------------------------------------
    Atom  No    Charge         Core      Valence    Rydberg      Total
 -----------------------------------------------------------------------
      P    1    1.36851      9.99862     3.53146    0.10140    13.63149
      P    2    1.37727      9.99864     3.52161    0.10247    13.62273
      C    3   -0.69383      1.99942     4.66035    0.03405     6.69383
      C    4   -1.11851      1.99942     5.09915    0.01994     7.11851
      C    5   -1.12624      1.99942     5.10634    0.02048     7.12624
      C    6   -1.12071      1.99942     5.10091    0.02038     7.12071
      C    7   -1.12563      1.99942     5.10557    0.02064     7.12563
      C    8   -1.12241      1.99942     5.10259    0.02040     7.12241
      C    9   -1.11750      1.99942     5.09803    0.02005     7.11750
      H   10    0.22922      0.00000     0.76878    0.00200     0.77078
      H   11    0.22712      0.00000     0.77216    0.00072     0.77288
      H   12    0.23753      0.00000     0.76171    0.00076     0.76247
      H   13    0.23497      0.00000     0.76417    0.00085     0.76503
      H   14    0.22931      0.00000     0.76995    0.00074     0.77069
      H   15    0.24043      0.00000     0.75838    0.00119     0.75957
      H   16    0.23443      0.00000     0.76476    0.00081     0.76557
      H   17    0.22907      0.00000     0.77011    0.00082     0.77093
      H   18    0.23283      0.00000     0.76624    0.00094     0.76717
      H   19    0.23482      0.00000     0.76427    0.00091     0.76518
      H   20    0.22920      0.00000     0.77008    0.00072     0.77080
      H   21    0.23040      0.00000     0.76852    0.00108     0.76960
      H   22    0.24166      0.00000     0.75750    0.00084     0.75834
      H   23    0.23599      0.00000     0.76302    0.00098     0.76401
      H   24    0.22642      0.00000     0.77285    0.00073     0.77358
      H   25    0.23588      0.00000     0.76334    0.00078     0.76412
      H   26    0.22746      0.00000     0.77179    0.00075     0.77254
      H   27    0.23112      0.00000     0.76792    0.00096     0.76888
      H   28    0.23452      0.00000     0.76452    0.00096     0.76548
      C   29   -1.12741      1.99941     5.10681    0.02119     7.12741
      H   30    0.23948      0.00000     0.75958    0.00094     0.76052
      H   31    0.24216      0.00000     0.75692    0.00092     0.75784
      H   32    0.22590      0.00000     0.77325    0.00086     0.77410
      C   33   -1.12498      1.99942     5.10482    0.02075     7.12498
      H   34    0.24331      0.00000     0.75580    0.00089     0.75669
      H   35    0.23848      0.00000     0.76059    0.00093     0.76152
      H   36    0.22665      0.00000     0.77262    0.00072     0.77335
      C   37   -1.12501      1.99941     5.10441    0.02119     7.12501
      H   38    0.23002      0.00000     0.76887    0.00111     0.76998
      H   39    0.24277      0.00000     0.75623    0.00100     0.75723
      H   40    0.22879      0.00000     0.77040    0.00082     0.77121
     Si   41    1.91506      9.99804     2.05453    0.03237    12.08494
     Si   42    1.89876      9.99801     2.07321    0.03002    12.10124
     Si   43    1.90519      9.99800     2.06503    0.03178    12.09481
      C   44   -1.12100      1.99942     5.10143    0.02014     7.12100
      H   45    0.23384      0.00000     0.76518    0.00097     0.76616
      H   46    0.23861      0.00000     0.76063    0.00076     0.76139
      H   47    0.22797      0.00000     0.77130    0.00073     0.77203
      C   48   -1.12421      1.99942     5.10401    0.02079     7.12421
      H   49    0.23368      0.00000     0.76538    0.00094     0.76632
      H   50    0.22776      0.00000     0.77140    0.00084     0.77224
      H   51    0.23952      0.00000     0.75935    0.00113     0.76048
      C   52   -1.12572      1.99942     5.10587    0.02043     7.12572
      H   53    0.24070      0.00000     0.75839    0.00091     0.75930
      H   54    0.22912      0.00000     0.76997    0.00092     0.77088
      H   55    0.23061      0.00000     0.76865    0.00074     0.76939
     Si   56    1.91334      9.99797     2.05776    0.03092    12.08666
      O   57   -1.17801      1.99975     7.16708    0.01118     9.17801
      O   58   -1.15485      1.99977     7.14201    0.01307     9.15485
      O   59   -1.17694      1.99977     7.16398    0.01320     9.17694
      O   60   -1.15265      1.99977     7.14061    0.01226     9.15265
      N   61   -0.57970      1.99942     5.55035    0.02993     7.57970
      H   62    0.39158      0.00000     0.60524    0.00319     0.60842
      C   63    0.16105      1.99896     3.81829    0.02170     5.83895
      C   64   -0.26209      1.99908     4.24332    0.01969     6.26209
      C   65   -0.28760      1.99906     4.26873    0.01981     6.28760
      C   66   -0.18092      1.99920     4.16299    0.01873     6.18092
      H   67    0.19840      0.00000     0.79989    0.00171     0.80160
      C   68   -0.17770      1.99920     4.15976    0.01873     6.17770
      H   69    0.20096      0.00000     0.79685    0.00219     0.79904
      C   70   -0.26396      1.99918     4.24398    0.02080     6.26396
      H   71    0.20515      0.00000     0.79364    0.00122     0.79485
      H   72    0.20413      0.00000     0.79463    0.00123     0.79587
      H   73    0.20641      0.00000     0.79243    0.00116     0.79359
 =======================================================================
   * Total *   -0.00000    107.97490   173.17225    0.85285   282.00000

 Normal termination of Gaussian 16 at Fri Jan 24 22:05:35 2025.
