 Gaussian 16, Revision B.01,
 Gaussian 16:  ES64L-G16RevB.01 20-Dec-2017

 --------------------------------------------
 # nmr=giao b3lyp/def2TZVP pop=nbo scfcyc=200
 --------------------------------------------

 ---------------
 phPAMP SPE NoRh
 ---------------
 Symbolic Z-matrix:
 Charge =  0 Multiplicity = 1

                         Standard orientation:
 ---------------------------------------------------------------------
 Center     Atomic      Atomic             Coordinates (Angstroms)
 Number     Number       Type             X           Y           Z
 ---------------------------------------------------------------------
      1         15           0       -1.074898    0.424793    0.396360
      2         15           0        1.716471    0.177286    0.583206
      3          8           0       -3.598090   -0.521173    1.465320
      4          6           0       -1.944912   -1.120325   -0.092331
      5          6           0       -3.168389   -1.424997    0.541100
      6          6           0       -3.860489   -2.586441    0.208492
      7          1           0       -4.804129   -2.818369    0.680322
      8          6           0       -3.329632   -3.463411   -0.733285
      9          1           0       -3.873606   -4.366182   -0.980670
     10          6           0       -2.116133   -3.189363   -1.347336
     11          1           0       -1.701584   -3.873689   -2.075808
     12          6           0       -1.432804   -2.022504   -1.023430
     13          1           0       -0.488385   -1.824449   -1.510459
     14          6           0       -4.905273   -0.665081    2.025997
     15          1           0       -5.045038    0.198072    2.671671
     16          1           0       -4.982990   -1.578709    2.619203
     17          1           0       -5.667587   -0.663186    1.245741
     18          6           0       -2.164649    1.819490   -0.121482
     19          6           0       -2.000244    3.064766    0.490254
     20          1           0       -1.283784    3.179547    1.294531
     21          6           0       -2.753670    4.156047    0.071339
     22          1           0       -2.621216    5.117826    0.551159
     23          6           0       -3.678917    4.010197   -0.956195
     24          1           0       -4.269012    4.858759   -1.279975
     25          6           0       -3.846513    2.772010   -1.568693
     26          1           0       -4.565075    2.655238   -2.369562
     27          6           0       -3.092729    1.678279   -1.155684
     28          1           0       -3.232117    0.719086   -1.638858
     29          6           0        0.433013    0.587786   -0.712990
     30          1           0        0.465802   -0.003139   -1.626551
     31          1           0        0.508234    1.639553   -0.985850
     32          6           0        3.176419    1.268824    0.315893
     33          6           0        2.992679    2.628666    0.041507
     34          6           0        4.474255    0.779632    0.495793
     35          6           0        4.087755    3.475072   -0.079463
     36          1           0        1.997865    3.040021   -0.077298
     37          6           0        5.566857    1.633373    0.379928
     38          1           0        4.638869   -0.267027    0.713631
     39          6           0        5.377343    2.979343    0.088595
     40          1           0        3.933462    4.522791   -0.304399
     41          1           0        6.567349    1.241321    0.514099
     42          1           0        6.229590    3.639841   -0.006179
     43          6           0        2.280197   -1.528288    0.191151
     44          6           0        2.083993   -2.553941    1.117632
     45          6           0        2.874734   -1.819719   -1.042984
     46          6           0        2.481449   -3.854782    0.817751
     47          1           0        1.612470   -2.336670    2.066864
     48          6           0        3.268864   -3.117723   -1.337978
     49          1           0        3.042941   -1.034108   -1.770160
     50          6           0        3.073231   -4.136822   -0.406730
     51          1           0        2.325550   -4.644790    1.541737
     52          1           0        3.731632   -3.336456   -2.291705
     53          1           0        3.383271   -5.147613   -0.638646
 ---------------------------------------------------------------------

 SCF Done:  E(RB3LYP) =  -1763.56785849     A.U. after   15 cycles

      1  P    Isotropic =   248.5405   Anisotropy =    79.0897

      2  P    Isotropic =   233.2302   Anisotropy =   111.1474

      3  O    Isotropic =   209.7616   Anisotropy =   112.0016

      4  C    Isotropic =    50.5984   Anisotropy =   165.2698

      5  C    Isotropic =    15.4206   Anisotropy =   137.2420

      6  C    Isotropic =    71.4337   Anisotropy =   156.7343

      7  H    Isotropic =    25.1464   Anisotropy =     7.3812

      8  C    Isotropic =    49.9759   Anisotropy =   180.8412

      9  H    Isotropic =    24.5551   Anisotropy =     4.4818

     10  C    Isotropic =    59.2174   Anisotropy =   171.2618

     11  H    Isotropic =    25.1497   Anisotropy =     6.5712

     12  C    Isotropic =    47.9625   Anisotropy =   185.6314

     13  H    Isotropic =    25.0528   Anisotropy =     8.1415

     14  C    Isotropic =   126.8116   Anisotropy =    77.8350

     15  H    Isotropic =    28.2493   Anisotropy =     8.6634

     16  H    Isotropic =    28.2775   Anisotropy =     9.7987

     17  H    Isotropic =    28.7150   Anisotropy =     8.9941

     18  C    Isotropic =    30.5659   Anisotropy =   209.6731

     19  C    Isotropic =    44.9159   Anisotropy =   178.3797

     20  H    Isotropic =    23.6604   Anisotropy =     8.9382

     21  C    Isotropic =    49.9896   Anisotropy =   182.7289

     22  H    Isotropic =    24.1805   Anisotropy =     5.3854

     23  C    Isotropic =    50.4440   Anisotropy =   185.2000

     24  H    Isotropic =    24.3856   Anisotropy =     4.1803

     25  C    Isotropic =    50.1312   Anisotropy =   182.5513

     26  H    Isotropic =    24.6004   Anisotropy =     6.6339

     27  C    Isotropic =    46.2949   Anisotropy =   184.6748

     28  H    Isotropic =    24.6945   Anisotropy =    12.8350

     29  C    Isotropic =   148.4013   Anisotropy =    29.2785

     30  H    Isotropic =    29.0181   Anisotropy =     4.1273

     31  H    Isotropic =    30.0014   Anisotropy =     5.5692

     32  C    Isotropic =    28.7913   Anisotropy =   199.9837

     33  C    Isotropic =    50.9707   Anisotropy =   182.7402

     34  C    Isotropic =    50.5801   Anisotropy =   182.2379

     35  C    Isotropic =    50.4578   Anisotropy =   182.2511

     36  H    Isotropic =    24.1776   Anisotropy =    10.6729

     37  C    Isotropic =    49.7806   Anisotropy =   182.9373

     38  H    Isotropic =    25.0118   Anisotropy =    13.1001

     39  C    Isotropic =    53.8596   Anisotropy =   178.8748

     40  H    Isotropic =    24.3707   Anisotropy =     6.3328

     41  H    Isotropic =    24.5754   Anisotropy =     6.2446

     42  H    Isotropic =    24.6420   Anisotropy =     4.1492

     43  C    Isotropic =    34.8581   Anisotropy =   207.1994

     44  C    Isotropic =    38.8964   Anisotropy =   185.1672

     45  C    Isotropic =    40.0286   Anisotropy =   187.2074

     46  C    Isotropic =    50.1298   Anisotropy =   184.9928

     47  H    Isotropic =    23.8544   Anisotropy =     7.7265

     48  C    Isotropic =    48.6974   Anisotropy =   185.9412

     49  H    Isotropic =    23.8254   Anisotropy =    10.8589

     50  C    Isotropic =    48.3173   Anisotropy =   190.3224

     51  H    Isotropic =    24.3670   Anisotropy =     5.0451

     52  H    Isotropic =    24.1810   Anisotropy =     5.6948

     53  H    Isotropic =    24.2390   Anisotropy =     3.7861

 The electronic state is 1-A.
 Alpha  occ. eigenvalues --  -77.04644 -77.04578 -19.16026 -10.23856 -10.22802
 Alpha  occ. eigenvalues --  -10.18409 -10.18258 -10.18218 -10.18171 -10.18155
 Alpha  occ. eigenvalues --  -10.18126 -10.18114 -10.18036 -10.17985 -10.17920
 Alpha  occ. eigenvalues --  -10.17692 -10.17684 -10.17641 -10.17613 -10.17557
 Alpha  occ. eigenvalues --  -10.17480 -10.17473 -10.17432 -10.17380 -10.17330
 Alpha  occ. eigenvalues --  -10.17252 -10.17145 -10.17019 -10.16826  -6.53165
 Alpha  occ. eigenvalues --   -6.53150  -4.69329  -4.69299  -4.69280  -4.69273
 Alpha  occ. eigenvalues --   -4.68797  -4.68784  -1.06864  -0.86382  -0.85920
 Alpha  occ. eigenvalues --   -0.85530  -0.85460  -0.77817  -0.76620  -0.75524
 Alpha  occ. eigenvalues --   -0.75383  -0.74905  -0.74746  -0.74681  -0.74378
 Alpha  occ. eigenvalues --   -0.72283  -0.69961  -0.64031  -0.62421  -0.61174
 Alpha  occ. eigenvalues --   -0.60745  -0.60511  -0.60164  -0.59936  -0.59514
 Alpha  occ. eigenvalues --   -0.56151  -0.55262  -0.53420  -0.52196  -0.50976
 Alpha  occ. eigenvalues --   -0.50172  -0.48732  -0.47705  -0.47463  -0.46035
 Alpha  occ. eigenvalues --   -0.45916  -0.45473  -0.45349  -0.45178  -0.44940
 Alpha  occ. eigenvalues --   -0.44748  -0.43598  -0.42905  -0.42467  -0.42262
 Alpha  occ. eigenvalues --   -0.42148  -0.41743  -0.40686  -0.39495  -0.38581
 Alpha  occ. eigenvalues --   -0.38270  -0.37634  -0.37428  -0.37177  -0.36441
 Alpha  occ. eigenvalues --   -0.35816  -0.35260  -0.34896  -0.34719  -0.34525
 Alpha  occ. eigenvalues --   -0.32957  -0.32645  -0.32213  -0.31538  -0.27402
 Alpha  occ. eigenvalues --   -0.26892  -0.26595  -0.26356  -0.25844  -0.25552
 Alpha  occ. eigenvalues --   -0.25242  -0.23494  -0.21451  -0.18562
 Alpha virt. eigenvalues --   -0.03540  -0.02684  -0.02222  -0.02169  -0.01704
 Alpha virt. eigenvalues --   -0.01359  -0.01031  -0.00168   0.02760   0.03606
 Alpha virt. eigenvalues --    0.04338   0.04685   0.05294   0.05615   0.05856

 Mulliken charges:
               1
     1  P    0.162872
     2  P    0.181186
     3  O   -0.282906
     4  C   -0.054107
     5  C    0.300169
     6  C   -0.255073
     7  H    0.115188
     8  C   -0.098150
     9  H    0.106842
    10  C   -0.177517
    11  H    0.101111
    12  C   -0.103027
    13  H    0.119616
    14  C   -0.206383
    15  H    0.138801
    16  H    0.121380
    17  H    0.121535
    18  C    0.081614
    19  C   -0.203573
    20  H    0.117006
    21  C   -0.102415
    22  H    0.108282
    23  C   -0.101575
    24  H    0.108123
    25  C   -0.122328
    26  H    0.105701
    27  C   -0.174748
    28  H    0.132613
    29  C   -0.370997
    30  H    0.123888
    31  H    0.137534
    32  C    0.068198
    33  C   -0.200446
    34  C   -0.175131
    35  C   -0.118417
    36  H    0.115659
    37  C   -0.118660
    38  H    0.135383
    39  C   -0.112092
    40  H    0.104712
    41  H    0.105934
    42  H    0.105551
    43  C    0.015230
    44  C   -0.130997
    45  C   -0.207387
    46  C   -0.105620
    47  H    0.118732
    48  C   -0.093063
    49  H    0.125885
    50  C   -0.097342
    51  H    0.110925
    52  H    0.110242
    53  H    0.112041
 Sum of Mulliken charges =  -0.00000

 Dipole moment (field-independent basis, Debye):
    X=             -1.6555    Y=             -1.0728    Z=             -1.3341  Tot=              2.3815
 Quadrupole moment (field-independent basis, Debye-Ang):
   XX=           -165.5876   YY=           -168.0932   ZZ=           -185.5342
   XY=             -1.4449   XZ=             -6.6171   YZ=             -0.7775

 Summary of Natural Population Analysis:

                                       Natural Population
                Natural  -----------------------------------------------
    Atom  No    Charge         Core      Valence    Rydberg      Total
 -----------------------------------------------------------------------
      P    1    0.84363      9.99819     4.12498    0.03320    14.15637
      P    2    0.83011      9.99815     4.13768    0.03405    14.16989
      O    3   -0.45697      1.99976     6.43992    0.01729     8.45697
      C    4   -0.36910      1.99890     4.33863    0.03157     6.36910
      C    5    0.29254      1.99868     3.68410    0.02468     5.70746
      C    6   -0.29337      1.99905     4.27528    0.01904     6.29337
      H    7    0.21292      0.00000     0.78541    0.00167     0.78708
      C    8   -0.18733      1.99920     4.16833    0.01979     6.18733
      H    9    0.20719      0.00000     0.79160    0.00121     0.79281
      C   10   -0.23154      1.99917     4.21307    0.01930     6.23154
      H   11    0.20915      0.00000     0.78962    0.00123     0.79085
      C   12   -0.18702      1.99910     4.16843    0.01949     6.18702
      H   13    0.20575      0.00000     0.79177    0.00249     0.79425
      C   14   -0.24707      1.99926     4.23418    0.01363     6.24707
      H   15    0.19749      0.00000     0.80124    0.00127     0.80251
      H   16    0.17021      0.00000     0.82752    0.00227     0.82979
      H   17    0.17254      0.00000     0.82516    0.00231     0.82746
      C   18   -0.30975      1.99898     4.27852    0.03226     6.30975
      C   19   -0.20376      1.99909     4.18421    0.02046     6.20376
      H   20    0.21446      0.00000     0.78392    0.00162     0.78554
      C   21   -0.20444      1.99918     4.18562    0.01963     6.20444
      H   22    0.20813      0.00000     0.79056    0.00131     0.79187
      C   23   -0.20650      1.99919     4.18797    0.01934     6.20650
      H   24    0.20723      0.00000     0.79157    0.00120     0.79277
      C   25   -0.20300      1.99919     4.18469    0.01912     6.20300
      H   26    0.20609      0.00000     0.79250    0.00141     0.79391
      C   27   -0.19928      1.99907     4.17987    0.02034     6.19928
      H   28    0.21207      0.00000     0.78577    0.00216     0.78793
      C   29   -0.99791      1.99943     4.96588    0.03259     6.99791
      H   30    0.23624      0.00000     0.76116    0.00260     0.76376
      H   31    0.25551      0.00000     0.74295    0.00154     0.74449
      C   32   -0.31533      1.99899     4.28659    0.02975     6.31533
      C   33   -0.21448      1.99908     4.19552    0.01988     6.21448
      C   34   -0.21266      1.99908     4.19356    0.02002     6.21266
      C   35   -0.19566      1.99919     4.17748    0.01899     6.19566
      H   36    0.19998      0.00000     0.79748    0.00253     0.80002
      C   37   -0.19500      1.99919     4.17689    0.01892     6.19500
      H   38    0.21315      0.00000     0.78504    0.00181     0.78685
      C   39   -0.21858      1.99919     4.19966    0.01973     6.21858
      H   40    0.20695      0.00000     0.79173    0.00131     0.79305
      H   41    0.20690      0.00000     0.79178    0.00132     0.79310
      H   42    0.20693      0.00000     0.79187    0.00120     0.79307
      C   43   -0.33679      1.99901     4.30438    0.03339     6.33679
      C   44   -0.18439      1.99910     4.16477    0.02052     6.18439
      C   45   -0.19675      1.99908     4.17755    0.02012     6.19675
      C   46   -0.20469      1.99918     4.18606    0.01944     6.20469
      H   47    0.22109      0.00000     0.77731    0.00160     0.77891
      C   48   -0.20729      1.99919     4.18897    0.01913     6.20729
      H   49    0.21059      0.00000     0.78695    0.00246     0.78941
      C   50   -0.19588      1.99919     4.17768    0.01901     6.19588
      H   51    0.21055      0.00000     0.78818    0.00127     0.78945
      H   52    0.20840      0.00000     0.79021    0.00139     0.79160
      H   53    0.20876      0.00000     0.79007    0.00117     0.79124
 =======================================================================
   * Total *   -0.00000     73.97308   143.33187    0.69505   218.00000

 Normal termination of Gaussian 16 at Thu Jan 30 10:53:10 2025.
