 Gaussian 16, Revision B.01,
 Gaussian 16:  ES64L-G16RevB.01 20-Dec-2017

 ------------------------------------------
 # nmr=giao b3lyp/genecp pop=nbo scfcyc=200
 ------------------------------------------

 -------------
 Ligand 11 SPE
 -------------
 Symbolic Z-matrix:
 Charge =  1 Multiplicity = 1

                         Standard orientation:
 ---------------------------------------------------------------------
 Center     Atomic      Atomic             Coordinates (Angstroms)
 Number     Number       Type             X           Y           Z
 ---------------------------------------------------------------------
      1         15           0        0.146629    1.679450    0.167780
      2         15           0       -1.009590   -0.907821    0.647220
      3          8           0       -2.722771    1.186259    0.390910
      4          6           0       -1.506890   -1.971851    2.156870
      5          6           0       -0.485000   -1.731571    3.276920
      6          6           0       -2.916980   -1.602921    2.635430
      7          6           0       -1.472140   -3.444911    1.716770
      8          6           0       -1.441381    0.898329    0.943750
      9          6           0       -0.328111    2.666549   -1.421950
     10          6           0       -3.177901    0.180439   -0.427390
     11          6           0       -2.422590   -0.992551   -0.510970
     12          6           0       -1.445252    3.698389   -1.199300
     13          6           0       -0.775301    1.632959   -2.472380
     14          6           0        0.772859    2.806170    1.611130
     15          6           0        2.018698    3.605810    1.193170
     16          6           0       -0.301942    3.780179    2.119640
     17          6           0        1.173629    1.855560    2.755890
     18          6           0       -4.006970   -1.862182   -2.101080
     19          6           0       -4.355751    0.339458   -1.144380
     20          6           0       -4.761370   -0.694672   -1.980500
     21          6           0        0.919728    3.384270   -1.969450
     22          1           0       -4.333190   -2.651382   -2.765340
     23          1           0       -4.929581    1.251928   -1.051800
     24          1           0       -5.674960   -0.585112   -2.550850
     25          1           0        0.539170   -1.919820    2.951510
     26          1           0        1.777848    4.429010    0.524970
     27          1           0        2.781089    2.989670    0.715880
     28          1           0       -1.469651    1.171109    1.996360
     29          1           0       -0.535880   -0.713581    3.665850
     30          1           0       -3.670510   -1.782132    1.868530
     31          1           0       -2.206060   -3.655741    0.938140
     32          1           0       -2.336552    3.259459   -0.756600
     33          1           0       -1.705511    1.136519   -2.208450
     34          1           0       -1.232962    3.284719    2.398370
     35          1           0        0.688578    3.750450   -2.972850
     36          1           0        1.785049    2.726940   -2.057040
     37          1           0       -0.701520   -2.405281    4.109620
     38          1           0       -2.988650   -0.560421    2.950960
     39          1           0       -1.118692    4.528099   -0.574780
     40          1           0        0.075988    4.280470    3.015550
     41          1           0        1.204168    4.246320   -1.371880
     42          1           0       -3.171490   -2.221441    3.500290
     43          1           0       -1.722782    4.119939   -2.169670
     44          1           0       -0.537202    4.554609    1.392880
     45          1           0        1.610999    2.446330    3.564540
     46          1           0        0.321949    1.323450    3.179440
     47          1           0        1.910189    1.116410    2.438730
     48          1           0       -0.487320   -3.751341    1.359380
     49          1           0       -1.717699   -4.077581    2.573470
     50          1           0       -0.942501    2.154649   -3.418210
     51          1           0       -0.015281    0.868180   -2.640600
     52          1           0        2.468328    4.041170    2.089150
     53         45           0        1.169180   -0.515600   -0.166570
     54          6           0        2.127010   -2.542390    0.149270
     55          6           0        1.490940   -2.530700   -1.078950
     56          6           0        2.948879   -0.063410   -1.523970
     57          6           0        3.352889    0.059100   -0.211350
     58          1           0        1.575290   -2.963450    0.981400
     59          6           0        3.623450   -2.421289    0.369480
     60          1           0        0.502740   -2.976500   -1.128050
     61          6           0        2.132990   -2.312720   -2.425980
     62          6           0        3.242960   -1.241360   -2.432800
     63          1           0        2.648039    0.845150   -2.030740
     64          1           0        3.374439    1.058520    0.206700
     65          6           0        4.093220   -0.971039    0.603950
     66          1           0        4.154910   -2.862859   -0.473200
     67          1           0        3.895380   -3.019209    1.240700
     68          1           0        2.529280   -3.263020   -2.805010
     69          1           0        1.346780   -2.018280   -3.124450
     70          1           0        3.361190   -0.870750   -3.452220
     71          1           0        4.201540   -1.683049   -2.161880
     72          1           0        5.169890   -0.890769    0.408900
     73          1           0        3.963550   -0.718839    1.658600
     74          6           0       -2.836200   -2.012591   -1.366970
     75          1           0       -2.255720   -2.921371   -1.462100
 ---------------------------------------------------------------------

 SCF Done:  E(RB3LYP) =  -1924.17369658     A.U. after   16 cycles

      1  P    Isotropic =   257.6673   Anisotropy =    98.2951

      2  P    Isotropic =   279.4158   Anisotropy =    77.0620

      3  O    Isotropic =   165.8394   Anisotropy =   112.5208

      4  C    Isotropic =   134.8749   Anisotropy =    33.1132

      5  C    Isotropic =   155.9037   Anisotropy =    37.6181

      6  C    Isotropic =   158.8095   Anisotropy =    41.3723

      7  C    Isotropic =   159.8505   Anisotropy =    38.4493

      8  C    Isotropic =    83.1261   Anisotropy =    60.3637

      9  C    Isotropic =   130.8400   Anisotropy =    40.9154

     10  C    Isotropic =    12.5986   Anisotropy =   113.1286

     11  C    Isotropic =    60.4345   Anisotropy =   127.4037

     12  C    Isotropic =   155.3651   Anisotropy =    40.5121

     13  C    Isotropic =   150.8256   Anisotropy =    39.6143

     14  C    Isotropic =   132.1489   Anisotropy =    36.7774

     15  C    Isotropic =   154.2683   Anisotropy =    37.3548

     16  C    Isotropic =   156.5970   Anisotropy =    39.3473

     17  C    Isotropic =   150.0987   Anisotropy =    39.3193

     18  C    Isotropic =    54.8145   Anisotropy =   180.4435

     19  C    Isotropic =    65.3534   Anisotropy =   155.8461

     20  C    Isotropic =    43.0499   Anisotropy =   196.7230

     21  C    Isotropic =   152.5774   Anisotropy =    41.0965

     22  H    Isotropic =    24.4854   Anisotropy =     5.3277

     23  H    Isotropic =    24.6040   Anisotropy =     7.4184

     24  H    Isotropic =    24.0799   Anisotropy =     3.9398

     25  H    Isotropic =    30.3894   Anisotropy =     6.1152

     26  H    Isotropic =    30.3554   Anisotropy =     7.7771

     27  H    Isotropic =    30.6504   Anisotropy =     5.4377

     28  H    Isotropic =    25.5274   Anisotropy =     4.0129

     29  H    Isotropic =    30.6144   Anisotropy =     7.1483

     30  H    Isotropic =    31.4543   Anisotropy =     5.5485

     31  H    Isotropic =    30.7320   Anisotropy =     7.8713

     32  H    Isotropic =    29.7191   Anisotropy =     5.7737

     33  H    Isotropic =    31.2937   Anisotropy =    12.4805

     34  H    Isotropic =    30.1902   Anisotropy =     5.8741

     35  H    Isotropic =    30.9096   Anisotropy =    10.1186

     36  H    Isotropic =    30.9309   Anisotropy =     5.2810

     37  H    Isotropic =    30.6570   Anisotropy =    10.6971

     38  H    Isotropic =    31.0142   Anisotropy =     7.3238

     39  H    Isotropic =    30.4008   Anisotropy =     7.7183

     40  H    Isotropic =    30.6045   Anisotropy =    10.7535

     41  H    Isotropic =    30.4912   Anisotropy =     7.6716

     42  H    Isotropic =    31.0026   Anisotropy =    11.5909

     43  H    Isotropic =    30.8391   Anisotropy =    10.7892

     44  H    Isotropic =    30.2183   Anisotropy =     8.2207

     45  H    Isotropic =    30.7828   Anisotropy =     9.6774

     46  H    Isotropic =    30.4448   Anisotropy =     6.8164

     47  H    Isotropic =    29.9790   Anisotropy =     7.1812

     48  H    Isotropic =    31.1595   Anisotropy =     6.2217

     49  H    Isotropic =    30.9556   Anisotropy =    11.4548

     50  H    Isotropic =    31.3155   Anisotropy =     9.2816

     51  H    Isotropic =    30.2324   Anisotropy =     6.2258

     52  H    Isotropic =    30.6869   Anisotropy =    10.2498

     53  Rh   Isotropic =  -341.3486   Anisotropy =   377.5425

     54  C    Isotropic =    83.7848   Anisotropy =   116.0312

     55  C    Isotropic =    82.8152   Anisotropy =   109.1757

     56  C    Isotropic =    77.8421   Anisotropy =   123.9398

     57  C    Isotropic =    77.2753   Anisotropy =   116.3531

     58  H    Isotropic =    26.9148   Anisotropy =     6.0307

     59  C    Isotropic =   154.5186   Anisotropy =    24.9269

     60  H    Isotropic =    26.3810   Anisotropy =     5.0302

     61  C    Isotropic =   147.0926   Anisotropy =    30.7834

     62  C    Isotropic =   154.3590   Anisotropy =    25.4067

     63  H    Isotropic =    26.6461   Anisotropy =     5.6087

     64  H    Isotropic =    26.1643   Anisotropy =     4.2778

     65  C    Isotropic =   147.3180   Anisotropy =    29.9357

     66  H    Isotropic =    29.7897   Anisotropy =     9.7115

     67  H    Isotropic =    29.8111   Anisotropy =    11.4382

     68  H    Isotropic =    29.0667   Anisotropy =    12.7699

     69  H    Isotropic =    29.1207   Anisotropy =     7.1331

     70  H    Isotropic =    29.8895   Anisotropy =    11.4329

     71  H    Isotropic =    29.8275   Anisotropy =     9.6840

     72  H    Isotropic =    29.0909   Anisotropy =    12.7612

     73  H    Isotropic =    29.0713   Anisotropy =     7.0561

     74  C    Isotropic =    48.0663   Anisotropy =   182.7771

     75  H    Isotropic =    24.2613   Anisotropy =     8.9773

 The electronic state is 1-A.
 Alpha  occ. eigenvalues --  -77.23761 -77.23304 -19.28275 -10.36339 -10.35076
 Alpha  occ. eigenvalues --  -10.31838 -10.31630 -10.31591 -10.29906 -10.29844
 Alpha  occ. eigenvalues --  -10.29836 -10.29671 -10.29629 -10.29380 -10.28563
 Alpha  occ. eigenvalues --  -10.28268 -10.28155 -10.28104 -10.27901 -10.27900
 Alpha  occ. eigenvalues --  -10.27762 -10.27402 -10.27349 -10.27325 -10.27158
 Alpha  occ. eigenvalues --  -10.26942 -10.26902 -10.26778 -10.26429 -10.26107
 Alpha  occ. eigenvalues --   -6.69855  -6.69264  -4.86153  -4.86031  -4.85747
 Alpha  occ. eigenvalues --   -4.85574  -4.85431  -4.85167  -3.32235  -2.09110
 Alpha  occ. eigenvalues --   -2.08491  -2.05658  -1.19490  -0.97094  -0.95215
 Alpha  occ. eigenvalues --   -0.93858  -0.93280  -0.91894  -0.89902  -0.88703
 Alpha  occ. eigenvalues --   -0.88218  -0.86439  -0.84102  -0.81084  -0.80301
 Alpha  occ. eigenvalues --   -0.80190  -0.80040  -0.79796  -0.79313  -0.79114
 Alpha  occ. eigenvalues --   -0.78502  -0.75893  -0.73685  -0.71475  -0.71238
 Alpha  occ. eigenvalues --   -0.69889  -0.66700  -0.66370  -0.66033  -0.63442
 Alpha  occ. eigenvalues --   -0.63251  -0.61659  -0.60995  -0.60715  -0.59318
 Alpha  occ. eigenvalues --   -0.58542  -0.57967  -0.57217  -0.56662  -0.56247
 Alpha  occ. eigenvalues --   -0.56008  -0.55452  -0.55302  -0.55081  -0.54519
 Alpha  occ. eigenvalues --   -0.54345  -0.54191  -0.53773  -0.53411  -0.53276
 Alpha  occ. eigenvalues --   -0.52610  -0.51984  -0.51149  -0.50478  -0.50143
 Alpha  occ. eigenvalues --   -0.49798  -0.49632  -0.49226  -0.49025  -0.48756
 Alpha  occ. eigenvalues --   -0.48656  -0.48332  -0.47981  -0.47708  -0.47071
 Alpha  occ. eigenvalues --   -0.46938  -0.46627  -0.46455  -0.46092  -0.45547
 Alpha  occ. eigenvalues --   -0.45437  -0.45292  -0.45211  -0.44685  -0.44055
 Alpha  occ. eigenvalues --   -0.44010  -0.43590  -0.43496  -0.42588  -0.41313
 Alpha  occ. eigenvalues --   -0.40888  -0.40439  -0.38469  -0.36991  -0.36372
 Alpha  occ. eigenvalues --   -0.35614  -0.35249  -0.34543  -0.33612  -0.31317
 Alpha virt. eigenvalues --   -0.16905  -0.15277  -0.13325  -0.11403  -0.10464
 Alpha virt. eigenvalues --   -0.09540  -0.08941  -0.08282  -0.07766  -0.06730
 Alpha virt. eigenvalues --   -0.06598  -0.06022  -0.05522  -0.04616  -0.04381

 Mulliken charges:
               1
     1  P    0.386427
     2  P    0.264228
     3  O   -0.142931
     4  C   -0.022618
     5  C   -0.365027
     6  C   -0.376344
     7  C   -0.427771
     8  C   -0.382587
     9  C    0.016668
    10  C   -0.010055
    11  C   -0.064262
    12  C   -0.389387
    13  C   -0.433999
    14  C   -0.083582
    15  C   -0.408140
    16  C   -0.351970
    17  C   -0.384465
    18  C   -0.096676
    19  C   -0.134107
    20  C   -0.097171
    21  C   -0.406878
    22  H    0.137162
    23  H    0.148212
    24  H    0.139224
    25  H    0.129950
    26  H    0.146680
    27  H    0.143101
    28  H    0.222620
    29  H    0.130912
    30  H    0.162345
    31  H    0.155744
    32  H    0.172682
    33  H    0.182057
    34  H    0.141484
    35  H    0.157504
    36  H    0.133619
    37  H    0.162548
    38  H    0.138278
    39  H    0.131578
    40  H    0.150980
    41  H    0.147714
    42  H    0.154198
    43  H    0.145231
    44  H    0.146187
    45  H    0.161582
    46  H    0.121542
    47  H    0.144883
    48  H    0.145292
    49  H    0.160784
    50  H    0.155202
    51  H    0.138596
    52  H    0.155213
    53  Rh  -0.434850
    54  C   -0.014881
    55  C   -0.084458
    56  C   -0.036586
    57  C   -0.083964
    58  H    0.166833
    59  C   -0.350212
    60  H    0.181735
    61  C   -0.232935
    62  C   -0.350373
    63  H    0.179999
    64  H    0.170906
    65  C   -0.230270
    66  H    0.171395
    67  H    0.170516
    68  H    0.172192
    69  H    0.136503
    70  H    0.170839
    71  H    0.169803
    72  H    0.174061
    73  H    0.130325
    74  C   -0.064747
    75  H    0.135714
 Sum of Mulliken charges =   1.00000

 Dipole moment (field-independent basis, Debye):
    X=              0.7870    Y=             -0.3604    Z=              0.3203  Tot=              0.9229
 Quadrupole moment (field-independent basis, Debye-Ang):
   XX=           -181.7060   YY=           -183.6670   ZZ=           -194.0780
   XY=              1.7430   XZ=              2.8976   YZ=              1.0030

 Summary of Natural Population Analysis:

                                       Natural Population
                Natural  -----------------------------------------------
    Atom  No    Charge         Core      Valence    Rydberg      Total
 -----------------------------------------------------------------------
      P    1    1.02556      9.99682     3.93252    0.04509    13.97444
      P    2    1.06259      9.99666     3.89241    0.04834    13.93741
      O    3   -0.46727      1.99976     6.44712    0.02039     8.46727
      C    4   -0.24780      1.99944     4.23141    0.01695     6.24780
      C    5   -0.60044      1.99935     4.59335    0.00774     6.60044
      C    6   -0.60797      1.99936     4.59936    0.00924     6.60797
      C    7   -0.60784      1.99935     4.60045    0.00804     6.60784
      C    8   -0.43494      1.99923     4.40871    0.02700     6.43494
      C    9   -0.25234      1.99940     4.23535    0.01759     6.25234
      C   10    0.27892      1.99863     3.69822    0.02422     5.72108
      C   11   -0.40289      1.99887     4.38158    0.02244     6.40289
      C   12   -0.61072      1.99934     4.60252    0.00886     6.61072
      C   13   -0.59968      1.99935     4.59111    0.00922     6.59968
      C   14   -0.25223      1.99941     4.23586    0.01696     6.25223
      C   15   -0.59908      1.99934     4.59143    0.00831     6.59908
      C   16   -0.60631      1.99935     4.59793    0.00903     6.60631
      C   17   -0.59881      1.99935     4.59095    0.00851     6.59881
      C   18   -0.21882      1.99921     4.20466    0.01495     6.21882
      C   19   -0.24514      1.99905     4.23112    0.01497     6.24514
      C   20   -0.15653      1.99923     4.14292    0.01438     6.15653
      C   21   -0.59840      1.99935     4.59093    0.00812     6.59840
      H   22    0.22621      0.00000     0.77263    0.00116     0.77379
      H   23    0.23637      0.00000     0.76209    0.00154     0.76363
      H   24    0.22637      0.00000     0.77254    0.00108     0.77363
      H   25    0.21458      0.00000     0.78389    0.00153     0.78542
      H   26    0.21093      0.00000     0.78742    0.00165     0.78907
      H   27    0.20489      0.00000     0.79361    0.00149     0.79511
      H   28    0.22869      0.00000     0.76699    0.00431     0.77131
      H   29    0.20460      0.00000     0.79363    0.00177     0.79540
      H   30    0.21965      0.00000     0.77877    0.00157     0.78035
      H   31    0.21582      0.00000     0.78269    0.00149     0.78418
      H   32    0.22738      0.00000     0.77093    0.00169     0.77262
      H   33    0.21551      0.00000     0.78251    0.00198     0.78449
      H   34    0.20648      0.00000     0.79204    0.00148     0.79352
      H   35    0.22376      0.00000     0.77442    0.00182     0.77624
      H   36    0.20355      0.00000     0.79488    0.00158     0.79645
      H   37    0.22507      0.00000     0.77313    0.00179     0.77493
      H   38    0.20802      0.00000     0.79046    0.00152     0.79198
      H   39    0.20442      0.00000     0.79390    0.00168     0.79558
      H   40    0.22286      0.00000     0.77542    0.00172     0.77714
      H   41    0.20961      0.00000     0.78872    0.00167     0.79039
      H   42    0.22504      0.00000     0.77323    0.00172     0.77496
      H   43    0.21929      0.00000     0.77902    0.00169     0.78071
      H   44    0.21244      0.00000     0.78585    0.00171     0.78756
      H   45    0.22399      0.00000     0.77414    0.00186     0.77601
      H   46    0.19821      0.00000     0.79995    0.00183     0.80179
      H   47    0.21912      0.00000     0.77915    0.00173     0.78088
      H   48    0.20637      0.00000     0.79211    0.00152     0.79363
      H   49    0.22723      0.00000     0.77100    0.00177     0.77277
      H   50    0.22091      0.00000     0.77723    0.00186     0.77909
      H   51    0.21712      0.00000     0.78131    0.00157     0.78288
      H   52    0.22227      0.00000     0.77591    0.00182     0.77773
     Rh   53   -0.34856     35.98545     9.33385    0.02925    45.34856
      C   54   -0.17788      1.99908     4.15916    0.01964     6.17788
      C   55   -0.16217      1.99909     4.14355    0.01953     6.16217
      C   56   -0.17336      1.99908     4.15441    0.01987     6.17336
      C   57   -0.16359      1.99909     4.14448    0.02002     6.16359
      H   58    0.21910      0.00000     0.77856    0.00234     0.78090
      C   59   -0.42297      1.99935     4.41162    0.01199     6.42297
      H   60    0.21979      0.00000     0.77814    0.00207     0.78021
      C   61   -0.41659      1.99935     4.40461    0.01263     6.41659
      C   62   -0.42406      1.99935     4.41278    0.01193     6.42406
      H   63    0.22113      0.00000     0.77651    0.00236     0.77887
      H   64    0.22031      0.00000     0.77734    0.00236     0.77969
      C   65   -0.41753      1.99935     4.40541    0.01277     6.41753
      H   66    0.21678      0.00000     0.78127    0.00195     0.78322
      H   67    0.22922      0.00000     0.76927    0.00151     0.77078
      H   68    0.23424      0.00000     0.76388    0.00188     0.76576
      H   69    0.21860      0.00000     0.77971    0.00169     0.78140
      H   70    0.23008      0.00000     0.76845    0.00148     0.76992
      H   71    0.21682      0.00000     0.78125    0.00193     0.78318
      H   72    0.23508      0.00000     0.76306    0.00186     0.76492
      H   73    0.21626      0.00000     0.78199    0.00175     0.78374
      C   74   -0.17271      1.99911     4.15679    0.01681     6.17271
      H   75    0.21534      0.00000     0.78261    0.00205     0.78466
 =======================================================================
   * Total *    1.00000    111.95816   175.42823    0.61362   288.00000

 Normal termination of Gaussian 16 at Tue Nov  5 12:44:39 2024.
