 Gaussian 16, Revision B.01,
 Gaussian 16:  ES64L-G16RevB.01 20-Dec-2017

 ------------------------------------------
 # nmr=giao b3lyp/genecp pop=nbo scfcyc=200
 ------------------------------------------

 -------------
 Ligand 18 SPE
 -------------
 Symbolic Z-matrix:
 Charge =  1 Multiplicity = 1

                         Standard orientation:
 ---------------------------------------------------------------------
 Center     Atomic      Atomic             Coordinates (Angstroms)
 Number     Number       Type             X           Y           Z
 ---------------------------------------------------------------------
      1         15           0       -0.155878    1.532120    0.387410
      2         15           0       -0.706781   -1.224269    0.629530
      3          6           0       -0.951003   -2.605579    1.954720
      4          6           0       -0.161162   -2.315760    3.235070
      5          6           0       -2.447413   -2.719577    2.273290
      6          6           0       -0.446054   -3.912489    1.320270
      7          6           0       -1.686819    0.425322    0.672110
      8          6           0       -0.525846    2.948821   -0.890220
      9          6           0       -1.216382   -1.800179   -0.958630
     10          6           0       -1.812485    3.746902   -0.608890
     11          6           0       -0.627607    2.323181   -2.295890
     12          6           0        0.215853    2.283960    2.138870
     13          6           0        1.657014    2.820738    2.197100
     14          6           0       -0.770276    3.392231    2.536560
     15          6           0        0.122382    1.153890    3.174360
     16          6           0        0.666705    3.923969   -0.896680
     17          1           0        0.900468   -2.161771    3.038450
     18          1           0        1.862615    3.601558    1.469370
     19          1           0        2.382943    2.019487    2.062090
     20          1           0       -2.192889    0.690973    1.598390
     21          1           0       -0.544521   -1.451739    3.774750
     22          1           0       -3.029203   -3.004856    1.396380
     23          1           0       -0.975364   -4.154999    0.401050
     24          1           0       -2.691626    3.116703   -0.484840
     25          1           0       -1.564778    1.795042   -2.452200
     26          1           0       -1.812946    3.091872    2.419670
     27          1           0        0.528496    4.632009   -1.717640
     28          1           0        1.621784    3.422498   -1.059780
     29          1           0       -0.253073   -3.179530    3.898590
     30          1           0       -2.857912   -1.794277    2.680860
     31          1           0       -1.728845    4.381162    0.268690
     32          1           0       -0.618155    3.630521    3.592780
     33          1           0        0.733116    4.507809    0.019130
     34          1           0       -2.585824   -3.497677    3.029000
     35          1           0       -2.003045    4.402192   -1.463510
     36          1           0       -0.610555    4.311801    1.977080
     37          1           0        0.442172    1.545060    4.143580
     38          1           0       -0.892799    0.780291    3.301640
     39          1           0        0.779701    0.321849    2.924250
     40          1           0        0.621306   -3.878511    1.099940
     41          1           0       -0.604065   -4.720439    2.039790
     42          1           0       -0.588246    3.126341   -3.035880
     43          1           0        0.186992    1.632360   -2.507040
     44          1           0        1.825984    3.250038    3.188150
     45         45           0        1.283480   -0.300841   -0.196210
     46          6           0        2.759138   -2.062243   -0.077510
     47          6           0        2.031568   -2.196962   -1.236530
     48          6           0        2.793521    0.585187   -1.731030
     49          6           0        3.268421    0.785336   -0.454690
     50          1           0        2.393457   -2.589733    0.796920
     51          6           0        4.188299   -1.564955    0.020180
     52          1           0        1.147147   -2.823641   -1.212920
     53          6           0        2.452388   -1.790573   -2.624330
     54          6           0        3.264750   -0.481854   -2.698440
     55          1           0        2.240852    1.403037   -2.176110
     56          1           0        3.089742    1.759437   -0.015160
     57          6           0        4.295980   -0.046725    0.271700
     58          1           0        4.734478   -1.840585   -0.881310
     59          1           0        4.682648   -2.087035    0.840950
     60          1           0        3.019927   -2.606773   -3.088310
     61          1           0        1.544038   -1.685222   -3.220940
     62          1           0        3.188550   -0.084754   -3.712050
     63          1           0        4.323710   -0.679055   -2.532440
     64          1           0        5.301691    0.302924    0.007390
     65          1           0        4.189211    0.147665    1.341490
     66          6           0       -2.195641   -0.827177   -1.509220
     67          1           0       -1.710880   -0.340108   -2.364630
     68          6           0       -2.705909    0.263823   -0.485440
     69          1           0       -2.805988    1.211303   -1.010570
     70          6           0       -4.568140   -0.720105   -2.403790
     71          1           0       -5.341191   -1.268764   -2.944990
     72          1           0       -4.245309    0.085115   -3.071070
     73          6           0       -5.145880   -0.132464   -1.096760
     74          1           0       -6.002380   -0.724093   -0.766510
     75          1           0       -5.526149    0.874676   -1.283610
     76          6           0       -4.106570   -0.093805    0.038470
     77          1           0       -4.070781   -1.063955    0.539870
     78          1           0       -4.415739    0.628785    0.797910
     79          6           0       -3.379131   -1.640686   -2.128810
     80          1           0       -3.023492   -2.125916   -3.036930
     81          1           0       -3.680202   -2.442346   -1.449300
 ---------------------------------------------------------------------

 SCF Done:  E(RB3LYP) =  -1890.54062625     A.U. after   19 cycles

      1  P    Isotropic =   262.9986   Anisotropy =   141.9726

      2  P    Isotropic =   170.9539   Anisotropy =   339.5443

      3  C    Isotropic =   121.6682   Anisotropy =    51.9225

      4  C    Isotropic =   151.3732   Anisotropy =    37.1378

      5  C    Isotropic =   150.5716   Anisotropy =    42.1492

      6  C    Isotropic =   150.2799   Anisotropy =    42.8067

      7  C    Isotropic =   105.4563   Anisotropy =    49.9701

      8  C    Isotropic =   132.5585   Anisotropy =    39.0122

      9  C    Isotropic =  -479.1773   Anisotropy =   935.1659

     10  C    Isotropic =   156.6006   Anisotropy =    39.0880

     11  C    Isotropic =   151.3733   Anisotropy =    41.5477

     12  C    Isotropic =   131.2297   Anisotropy =    39.4616

     13  C    Isotropic =   152.5699   Anisotropy =    40.5920

     14  C    Isotropic =   155.7684   Anisotropy =    34.1840

     15  C    Isotropic =   147.9373   Anisotropy =    40.9027

     16  C    Isotropic =   152.4683   Anisotropy =    37.7325

     17  H    Isotropic =    29.9641   Anisotropy =     5.0756

     18  H    Isotropic =    30.1656   Anisotropy =     5.8081

     19  H    Isotropic =    30.3671   Anisotropy =     7.2286

     20  H    Isotropic =    28.4216   Anisotropy =     5.9808

     21  H    Isotropic =    30.2844   Anisotropy =     6.4295

     22  H    Isotropic =    31.2282   Anisotropy =     8.4593

     23  H    Isotropic =    29.5205   Anisotropy =     9.9597

     24  H    Isotropic =    30.3995   Anisotropy =     5.9614

     25  H    Isotropic =    30.4324   Anisotropy =     8.0647

     26  H    Isotropic =    30.5484   Anisotropy =     6.2087

     27  H    Isotropic =    30.9029   Anisotropy =    10.2110

     28  H    Isotropic =    31.1762   Anisotropy =     5.2488

     29  H    Isotropic =    30.4939   Anisotropy =     9.3837

     30  H    Isotropic =    30.6234   Anisotropy =     5.4891

     31  H    Isotropic =    30.3420   Anisotropy =     6.8397

     32  H    Isotropic =    30.7916   Anisotropy =    10.4263

     33  H    Isotropic =    30.5333   Anisotropy =     6.9531

     34  H    Isotropic =    30.6202   Anisotropy =    10.4684

     35  H    Isotropic =    30.8083   Anisotropy =    10.6781

     36  H    Isotropic =    30.4117   Anisotropy =     7.7741

     37  H    Isotropic =    30.6879   Anisotropy =     8.3817

     38  H    Isotropic =    30.4791   Anisotropy =     5.7303

     39  H    Isotropic =    29.9975   Anisotropy =     8.2906

     40  H    Isotropic =    29.8537   Anisotropy =     6.0782

     41  H    Isotropic =    30.4903   Anisotropy =    10.0629

     42  H    Isotropic =    31.0432   Anisotropy =     9.6226

     43  H    Isotropic =    30.6452   Anisotropy =     6.3282

     44  H    Isotropic =    30.6896   Anisotropy =    10.1030

     45  Rh   Isotropic =  -376.6384   Anisotropy =   427.8406

     46  C    Isotropic =    79.2762   Anisotropy =   123.9836

     47  C    Isotropic =    73.7588   Anisotropy =   131.2305

     48  C    Isotropic =    66.7464   Anisotropy =   138.5050

     49  C    Isotropic =    73.6826   Anisotropy =   119.7623

     50  H    Isotropic =    26.4286   Anisotropy =     5.2840

     51  C    Isotropic =   154.3730   Anisotropy =    23.9379

     52  H    Isotropic =    25.2452   Anisotropy =     4.8899

     53  C    Isotropic =   147.0077   Anisotropy =    32.4775

     54  C    Isotropic =   153.4849   Anisotropy =    25.5404

     55  H    Isotropic =    26.2981   Anisotropy =     4.1826

     56  H    Isotropic =    25.8999   Anisotropy =     1.8191

     57  C    Isotropic =   150.0407   Anisotropy =    26.2738

     58  H    Isotropic =    29.6640   Anisotropy =     9.2472

     59  H    Isotropic =    29.7382   Anisotropy =    11.1203

     60  H    Isotropic =    29.2849   Anisotropy =    12.3000

     61  H    Isotropic =    29.5565   Anisotropy =     7.4397

     62  H    Isotropic =    29.9632   Anisotropy =    10.9496

     63  H    Isotropic =    29.6355   Anisotropy =     8.8980

     64  H    Isotropic =    29.0866   Anisotropy =    12.1455

     65  H    Isotropic =    29.2141   Anisotropy =     6.9761

     66  C    Isotropic =    91.1499   Anisotropy =    35.6429

     67  H    Isotropic =    24.7338   Anisotropy =    10.5700

     68  C    Isotropic =   128.6381   Anisotropy =    31.1095

     69  H    Isotropic =    28.9427   Anisotropy =     7.4195

     70  C    Isotropic =   158.4317   Anisotropy =    12.0533

     71  H    Isotropic =    29.6485   Anisotropy =    11.3299

     72  H    Isotropic =    29.7735   Anisotropy =     6.5215

     73  C    Isotropic =   162.4413   Anisotropy =     9.8878

     74  H    Isotropic =    30.1805   Anisotropy =    11.3332

     75  H    Isotropic =    30.1434   Anisotropy =     9.0573

     76  C    Isotropic =   153.2077   Anisotropy =    28.2803

     77  H    Isotropic =    30.7106   Anisotropy =     6.3884

     78  H    Isotropic =    30.7946   Anisotropy =     6.9427

     79  C    Isotropic =   154.8668   Anisotropy =    19.5808

     80  H    Isotropic =    28.1790   Anisotropy =    10.7000

     81  H    Isotropic =    30.0886   Anisotropy =     8.3117

 The electronic state is 1-A.
 Alpha  occ. eigenvalues --  -77.23530 -77.22504 -10.32511 -10.31960 -10.31825
 Alpha  occ. eigenvalues --  -10.31297 -10.30110 -10.29893 -10.29721 -10.29480
 Alpha  occ. eigenvalues --  -10.29169 -10.29020 -10.28731 -10.28360 -10.27935
 Alpha  occ. eigenvalues --  -10.27908 -10.27775 -10.27440 -10.27418 -10.27291
 Alpha  occ. eigenvalues --  -10.27178 -10.27142 -10.27139 -10.27077 -10.26918
 Alpha  occ. eigenvalues --  -10.26627 -10.26621 -10.26613 -10.25608 -10.25566
 Alpha  occ. eigenvalues --   -6.69407  -6.68751  -4.85693  -4.85598  -4.85338
 Alpha  occ. eigenvalues --   -4.85016  -4.84861  -4.84723  -3.32573  -2.09397
 Alpha  occ. eigenvalues --   -2.08685  -2.06182  -0.95961  -0.95161  -0.93781
 Alpha  occ. eigenvalues --   -0.93074  -0.92210  -0.89860  -0.88723  -0.88328
 Alpha  occ. eigenvalues --   -0.86275  -0.81340  -0.81069  -0.80564  -0.80470
 Alpha  occ. eigenvalues --   -0.80096  -0.79834  -0.79590  -0.79571  -0.78616
 Alpha  occ. eigenvalues --   -0.78420  -0.74073  -0.71923  -0.71221  -0.69005
 Alpha  occ. eigenvalues --   -0.66817  -0.66645  -0.66310  -0.63687  -0.63167
 Alpha  occ. eigenvalues --   -0.62928  -0.61296  -0.60572  -0.59723  -0.58758
 Alpha  occ. eigenvalues --   -0.57763  -0.57674  -0.56765  -0.56546  -0.56216
 Alpha  occ. eigenvalues --   -0.55870  -0.55314  -0.55089  -0.54705  -0.54431
 Alpha  occ. eigenvalues --   -0.54257  -0.54042  -0.53345  -0.53238  -0.52894
 Alpha  occ. eigenvalues --   -0.51210  -0.51079  -0.50172  -0.50060  -0.49701
 Alpha  occ. eigenvalues --   -0.49410  -0.49262  -0.49073  -0.48823  -0.48595
 Alpha  occ. eigenvalues --   -0.48509  -0.48084  -0.47777  -0.47490  -0.47409
 Alpha  occ. eigenvalues --   -0.46932  -0.46677  -0.46527  -0.46411  -0.45900
 Alpha  occ. eigenvalues --   -0.45690  -0.45222  -0.45062  -0.44802  -0.44232
 Alpha  occ. eigenvalues --   -0.44101  -0.43759  -0.43578  -0.42334  -0.41875
 Alpha  occ. eigenvalues --   -0.41248  -0.41001  -0.40583  -0.40442  -0.39425
 Alpha  occ. eigenvalues --   -0.37056  -0.36540  -0.35857  -0.35465  -0.34546
 Alpha  occ. eigenvalues --   -0.32106  -0.31343
 Alpha virt. eigenvalues --   -0.20928  -0.15595  -0.13385  -0.10161  -0.09162
 Alpha virt. eigenvalues --   -0.08196  -0.08034  -0.07215  -0.06955  -0.06469
 Alpha virt. eigenvalues --   -0.05987  -0.05643  -0.05210  -0.04871  -0.04377

 Mulliken charges:
               1
     1  P    0.375232
     2  P    0.279513
     3  C    0.107777
     4  C   -0.416492
     5  C   -0.394524
     6  C   -0.416752
     7  C   -0.441217
     8  C   -0.018618
     9  C   -0.040183
    10  C   -0.387719
    11  C   -0.425287
    12  C    0.027034
    13  C   -0.454913
    14  C   -0.390349
    15  C   -0.471747
    16  C   -0.443043
    17  H    0.142875
    18  H    0.161442
    19  H    0.146557
    20  H    0.220152
    21  H    0.152476
    22  H    0.150157
    23  H    0.165433
    24  H    0.153541
    25  H    0.162425
    26  H    0.143840
    27  H    0.159096
    28  H    0.149666
    29  H    0.159282
    30  H    0.141579
    31  H    0.151824
    32  H    0.153300
    33  H    0.149774
    34  H    0.161045
    35  H    0.153360
    36  H    0.143372
    37  H    0.162551
    38  H    0.145239
    39  H    0.166991
    40  H    0.144414
    41  H    0.156716
    42  H    0.159796
    43  H    0.126421
    44  H    0.157253
    45  Rh  -0.579153
    46  C   -0.017721
    47  C   -0.085531
    48  C   -0.040128
    49  C   -0.104093
    50  H    0.160289
    51  C   -0.349088
    52  H    0.261228
    53  C   -0.241443
    54  C   -0.342550
    55  H    0.172565
    56  H    0.205723
    57  C   -0.235615
    58  H    0.171901
    59  H    0.171710
    60  H    0.176096
    61  H    0.141430
    62  H    0.169832
    63  H    0.168582
    64  H    0.177043
    65  H    0.136422
    66  C   -0.327671
    67  H    0.193145
    68  C   -0.090376
    69  H    0.145704
    70  C   -0.236186
    71  H    0.159288
    72  H    0.119825
    73  C   -0.257656
    74  H    0.143912
    75  H    0.142221
    76  C   -0.307434
    77  H    0.136035
    78  H    0.144283
    79  C   -0.193882
    80  H    0.159293
    81  H    0.122711
 Sum of Mulliken charges =   1.00000

 Dipole moment (field-independent basis, Debye):
    X=              0.6687    Y=              1.6965    Z=              1.5176  Tot=              2.3724
 Quadrupole moment (field-independent basis, Debye-Ang):
   XX=           -183.2913   YY=           -193.9722   ZZ=           -198.2427
   XY=             -1.4351   XZ=             -3.2799   YZ=             -4.7912

 Summary of Natural Population Analysis:

                                       Natural Population
                Natural  -----------------------------------------------
    Atom  No    Charge         Core      Valence    Rydberg      Total
 -----------------------------------------------------------------------
      P    1    1.08638      9.99676     3.87077    0.04609    13.91362
      P    2    0.99809      9.99627     3.94901    0.05664    14.00191
      C    3   -0.21850      1.99939     4.19865    0.02046     6.21850
      C    4   -0.60284      1.99935     4.59536    0.00813     6.60284
      C    5   -0.60993      1.99935     4.60160    0.00897     6.60993
      C    6   -0.60420      1.99935     4.59639    0.00846     6.60420
      C    7   -0.76007      1.99931     4.73734    0.02342     6.76007
      C    8   -0.25729      1.99940     4.24035    0.01753     6.25729
      C    9   -0.21580      1.99937     4.19563    0.02081     6.21580
      C   10   -0.60729      1.99934     4.59892    0.00902     6.60729
      C   11   -0.59890      1.99934     4.59091    0.00865     6.59890
      C   12   -0.25103      1.99939     4.23304    0.01861     6.25103
      C   13   -0.60183      1.99935     4.59410    0.00838     6.60183
      C   14   -0.60781      1.99935     4.59937    0.00909     6.60781
      C   15   -0.60445      1.99935     4.59605    0.00905     6.60445
      C   16   -0.60255      1.99935     4.59480    0.00840     6.60255
      H   17    0.21196      0.00000     0.78654    0.00150     0.78804
      H   18    0.21149      0.00000     0.78687    0.00164     0.78851
      H   19    0.21061      0.00000     0.78760    0.00178     0.78939
      H   20    0.24563      0.00000     0.75087    0.00350     0.75437
      H   21    0.21100      0.00000     0.78733    0.00167     0.78900
      H   22    0.21430      0.00000     0.78406    0.00164     0.78570
      H   23    0.23437      0.00000     0.76405    0.00158     0.76563
      H   24    0.20651      0.00000     0.79194    0.00155     0.79349
      H   25    0.20732      0.00000     0.79106    0.00161     0.79268
      H   26    0.20817      0.00000     0.79017    0.00166     0.79183
      H   27    0.22422      0.00000     0.77393    0.00186     0.77578
      H   28    0.20745      0.00000     0.79093    0.00162     0.79255
      H   29    0.22446      0.00000     0.77374    0.00180     0.77554
      H   30    0.20877      0.00000     0.78962    0.00160     0.79123
      H   31    0.21431      0.00000     0.78408    0.00160     0.78569
      H   32    0.22257      0.00000     0.77563    0.00180     0.77743
      H   33    0.20829      0.00000     0.78993    0.00178     0.79171
      H   34    0.22780      0.00000     0.77057    0.00164     0.77220
      H   35    0.22166      0.00000     0.77659    0.00175     0.77834
      H   36    0.20836      0.00000     0.78994    0.00171     0.79164
      H   37    0.22604      0.00000     0.77207    0.00189     0.77396
      H   38    0.20265      0.00000     0.79549    0.00186     0.79735
      H   39    0.21714      0.00000     0.78106    0.00179     0.78286
      H   40    0.20791      0.00000     0.79050    0.00159     0.79209
      H   41    0.22278      0.00000     0.77550    0.00172     0.77722
      H   42    0.22127      0.00000     0.77686    0.00187     0.77873
      H   43    0.21462      0.00000     0.78363    0.00175     0.78538
      H   44    0.22150      0.00000     0.77666    0.00184     0.77850
     Rh   45   -0.31426     35.98584     9.29736    0.03105    45.31426
      C   46   -0.18734      1.99909     4.16839    0.01985     6.18734
      C   47   -0.15443      1.99911     4.13526    0.02006     6.15443
      C   48   -0.15692      1.99909     4.13712    0.02071     6.15692
      C   49   -0.18798      1.99911     4.16781    0.02107     6.18798
      H   50    0.22089      0.00000     0.77663    0.00248     0.77911
      C   51   -0.42326      1.99935     4.41204    0.01187     6.42326
      H   52    0.25321      0.00000     0.74425    0.00254     0.74679
      C   53   -0.41923      1.99933     4.40723    0.01266     6.41923
      C   54   -0.42792      1.99935     4.41654    0.01203     6.42792
      H   55    0.22038      0.00000     0.77735    0.00226     0.77962
      H   56    0.22572      0.00000     0.77209    0.00220     0.77428
      C   57   -0.41706      1.99934     4.40486    0.01287     6.41706
      H   58    0.21788      0.00000     0.78020    0.00192     0.78212
      H   59    0.22984      0.00000     0.76867    0.00149     0.77016
      H   60    0.23659      0.00000     0.76157    0.00184     0.76341
      H   61    0.22451      0.00000     0.77372    0.00177     0.77549
      H   62    0.23008      0.00000     0.76844    0.00148     0.76992
      H   63    0.21769      0.00000     0.78038    0.00193     0.78231
      H   64    0.23673      0.00000     0.76142    0.00185     0.76327
      H   65    0.21643      0.00000     0.78166    0.00191     0.78357
      C   66   -0.40256      1.99932     4.38361    0.01963     6.40256
      H   67    0.26088      0.00000     0.73640    0.00272     0.73912
      C   68   -0.24495      1.99933     4.22635    0.01926     6.24495
      H   69    0.21261      0.00000     0.78386    0.00353     0.78739
      C   70   -0.39314      1.99941     4.38438    0.00935     6.39314
      H   71    0.22216      0.00000     0.77655    0.00129     0.77784
      H   72    0.19218      0.00000     0.80629    0.00153     0.80782
      C   73   -0.38849      1.99942     4.37900    0.01007     6.38849
      H   74    0.21165      0.00000     0.78697    0.00138     0.78835
      H   75    0.20434      0.00000     0.79423    0.00144     0.79566
      C   76   -0.38833      1.99938     4.37831    0.01064     6.38833
      H   77    0.19385      0.00000     0.80396    0.00219     0.80615
      H   78    0.20641      0.00000     0.79193    0.00166     0.79359
      C   79   -0.35232      1.99935     4.34042    0.01255     6.35232
      H   80    0.22353      0.00000     0.77509    0.00138     0.77647
      H   81    0.19545      0.00000     0.80247    0.00208     0.80455
 =======================================================================
   * Total *    1.00000    111.95986   179.42233    0.61781   292.00000

 Normal termination of Gaussian 16 at Tue Nov  5 12:51:16 2024.
