 Gaussian 16, Revision B.01,
 Gaussian 16:  ES64L-G16RevB.01 20-Dec-2017

 ------------------------------------------
 # nmr=giao b3lyp/genecp pop=nbo scfcyc=200
 ------------------------------------------

 -------------
 Ligand 19 SPE
 -------------
 Symbolic Z-matrix:
 Charge =  1 Multiplicity = 1

                         Standard orientation:
 ---------------------------------------------------------------------
 Center     Atomic      Atomic             Coordinates (Angstroms)
 Number     Number       Type             X           Y           Z
 ---------------------------------------------------------------------
      1          6           0        0.111194    2.153799   -2.468399
      2          1           0       -0.065308    1.250359   -3.046319
      3          1           0        1.114035    2.514177   -2.696119
      4          1           0       -0.613044    2.915070   -2.759819
      5          6           0        0.215067    3.419058    0.195981
      6          6           0       -0.913191    4.381821   -0.209199
      7          1           0       -1.896922    4.005523    0.079121
      8          1           0       -0.920301    4.597161   -1.278269
      9          1           0       -0.772849    5.333910    0.308941
     10          6           0        1.576168    4.004076   -0.222959
     11          1           0        1.755720    4.923345    0.339221
     12          1           0        1.610648    4.262286   -1.281559
     13          1           0        2.405927    3.327794   -0.007489
     14          6           0        0.185496    3.212039    1.716341
     15          1           0        0.947635    2.507097    2.051941
     16          1           0       -0.787204    2.854370    2.053711
     17          1           0        0.372708    4.166888    2.213381
     18          6           0       -2.548653   -1.354576   -1.350189
     19          6           0       -1.949212   -0.911597   -2.696029
     20          1           0       -0.875042   -1.101749   -2.746819
     21          1           0       -2.126440    0.144783   -2.894729
     22          1           0       -2.425963   -1.480986   -3.497449
     23          6           0       -2.401206   -2.882506   -1.241409
     24          1           0       -2.944687   -3.343315   -2.070099
     25          1           0       -2.809347   -3.291205   -0.320819
     26          1           0       -1.362087   -3.199558   -1.326829
     27          6           0       -4.036622   -0.972333   -1.320319
     28          1           0       -4.525363   -1.388352   -2.205409
     29          1           0       -4.192910    0.108137   -1.350409
     30          1           0       -4.553843   -1.371912   -0.449459
     31          6           0       -2.373661   -0.632296    1.745911
     32          6           0       -1.318781   -0.229358    2.791581
     33          1           0       -1.774491   -0.266718    3.784591
     34          1           0       -0.950719    0.782621    2.635771
     35          1           0       -0.463542   -0.904880    2.789611
     36          6           0       -3.580290    0.311076    1.875891
     37          1           0       -4.384900    0.073258    1.182461
     38          1           0       -3.295537    1.354246    1.734681
     39          1           0       -3.986690    0.221817    2.886811
     40          6           0       -2.803934   -2.080615    2.026161
     41          1           0       -3.111295   -2.155445    3.072211
     42          1           0       -1.990966   -2.794617    1.879051
     43          1           0       -3.652885   -2.391914    1.419521
     44          6           0        3.041950   -0.091177   -0.701809
     45          1           0        3.006451    0.715173   -1.426159
     46          6           0        2.910910    0.257383    0.630741
     47          1           0        2.812453    1.313503    0.856881
     48          6           0        3.255709   -0.592478    1.828591
     49          1           0        2.738279   -0.170797    2.692941
     50          1           0        4.326799   -0.502080    2.048511
     51          6           0        2.872736   -2.080497    1.688351
     52          1           0        3.674054   -2.635459    1.200581
     53          1           0        2.776095   -2.509507    2.686881
     54          6           0        1.573625   -2.300424    0.938101
     55          1           0        0.724055   -2.587993    1.547091
     56          6           0        1.462905   -2.506724   -0.420339
     57          1           0        0.548954   -2.969522   -0.772309
     58          6           0        2.579905   -2.497096   -1.433899
     59          1           0        2.131285   -2.369595   -2.421299
     60          1           0        3.067413   -3.479797   -1.452309
     61          6           0        3.632877   -1.392228   -1.211669
     62          1           0        4.406376   -1.735800   -0.524739
     63          1           0        4.138427   -1.198620   -2.158899
     64          7           0       -1.621438    1.218542   -0.367469
     65          1           0       -2.466357    1.732464   -0.586149
     66         15           0       -0.006637    1.742359   -0.669519
     67         15           0       -1.531621   -0.472308    0.022251
     68         45           0        0.885719   -0.358373   -0.063949
 ---------------------------------------------------------------------

 SCF Done:  E(RB3LYP) =  -1674.42767457     A.U. after   15 cycles

      1  C    Isotropic =   167.3040   Anisotropy =    28.6453

      2  H    Isotropic =    30.1127   Anisotropy =     6.4952

      3  H    Isotropic =    30.6628   Anisotropy =     8.4684

      4  H    Isotropic =    30.2429   Anisotropy =     9.3230

      5  C    Isotropic =   137.2726   Anisotropy =    28.4265

      6  C    Isotropic =   161.3234   Anisotropy =    38.9606

      7  H    Isotropic =    30.9008   Anisotropy =     7.1383

      8  H    Isotropic =    30.7574   Anisotropy =     8.9461

      9  H    Isotropic =    30.6952   Anisotropy =    10.8845

     10  C    Isotropic =   158.8319   Anisotropy =    39.0113

     11  H    Isotropic =    30.7984   Anisotropy =    10.8408

     12  H    Isotropic =    31.0315   Anisotropy =     8.4889

     13  H    Isotropic =    31.1907   Anisotropy =     6.6393

     14  C    Isotropic =   155.0199   Anisotropy =    37.0323

     15  H    Isotropic =    30.5060   Anisotropy =     6.4745

     16  H    Isotropic =    30.2519   Anisotropy =     6.7112

     17  H    Isotropic =    30.6777   Anisotropy =    10.0026

     18  C    Isotropic =   132.5509   Anisotropy =    36.5710

     19  C    Isotropic =   150.8033   Anisotropy =    37.9606

     20  H    Isotropic =    30.1602   Anisotropy =     6.1803

     21  H    Isotropic =    30.5017   Anisotropy =     5.6405

     22  H    Isotropic =    30.7881   Anisotropy =     9.6009

     23  C    Isotropic =   157.4243   Anisotropy =    37.9310

     24  H    Isotropic =    30.7654   Anisotropy =    10.6241

     25  H    Isotropic =    30.4337   Anisotropy =     6.7975

     26  H    Isotropic =    30.7861   Anisotropy =     6.7435

     27  C    Isotropic =   158.5420   Anisotropy =    33.7356

     28  H    Isotropic =    30.7539   Anisotropy =    10.8683

     29  H    Isotropic =    30.8653   Anisotropy =     6.6537

     30  H    Isotropic =    30.5173   Anisotropy =     7.8365

     31  C    Isotropic =   133.2025   Anisotropy =    36.8136

     32  C    Isotropic =   151.4856   Anisotropy =    42.0496

     33  H    Isotropic =    30.8820   Anisotropy =     9.5600

     34  H    Isotropic =    29.9390   Anisotropy =     7.9744

     35  H    Isotropic =    30.1887   Anisotropy =     7.5088

     36  C    Isotropic =   158.9217   Anisotropy =    37.9494

     37  H    Isotropic =    30.5136   Anisotropy =     7.7289

     38  H    Isotropic =    30.5200   Anisotropy =     5.7753

     39  H    Isotropic =    30.7979   Anisotropy =    10.7449

     40  C    Isotropic =   156.5287   Anisotropy =    32.8352

     41  H    Isotropic =    30.6795   Anisotropy =    10.3298

     42  H    Isotropic =    30.9362   Anisotropy =     5.6745

     43  H    Isotropic =    30.6078   Anisotropy =     7.8226

     44  C    Isotropic =    84.8315   Anisotropy =   115.0940

     45  H    Isotropic =    27.3359   Anisotropy =     7.1597

     46  C    Isotropic =    81.4959   Anisotropy =   110.1211

     47  H    Isotropic =    26.4488   Anisotropy =     5.0382

     48  C    Isotropic =   147.0130   Anisotropy =    30.4350

     49  H    Isotropic =    29.0950   Anisotropy =     7.0546

     50  H    Isotropic =    29.0892   Anisotropy =    12.5664

     51  C    Isotropic =   154.6421   Anisotropy =    24.4769

     52  H    Isotropic =    29.8955   Anisotropy =     9.5196

     53  H    Isotropic =    29.8787   Anisotropy =    11.2757

     54  C    Isotropic =    80.1009   Anisotropy =   121.0219

     55  H    Isotropic =    26.9749   Anisotropy =     5.8397

     56  C    Isotropic =    76.3019   Anisotropy =   117.0180

     57  H    Isotropic =    26.0324   Anisotropy =     4.7608

     58  C    Isotropic =   147.2191   Anisotropy =    30.2729

     59  H    Isotropic =    29.0759   Anisotropy =     7.5643

     60  H    Isotropic =    29.1223   Anisotropy =    12.5595

     61  C    Isotropic =   154.4220   Anisotropy =    25.0735

     62  H    Isotropic =    29.8826   Anisotropy =     9.4392

     63  H    Isotropic =    29.8724   Anisotropy =    11.6610

     64  N    Isotropic =   196.3743   Anisotropy =    54.2606

     65  H    Isotropic =    29.8074   Anisotropy =    15.1071

     66  P    Isotropic =   231.2689   Anisotropy =    52.0220

     67  P    Isotropic =   205.0786   Anisotropy =    43.2301

     68  Rh   Isotropic =  -323.2311   Anisotropy =   366.5705

 The electronic state is 1-A.
 Alpha  occ. eigenvalues --  -77.25779 -77.25365 -14.44389 -10.31613 -10.31533
 Alpha  occ. eigenvalues --  -10.31389 -10.29838 -10.29808 -10.29618 -10.29582
 Alpha  occ. eigenvalues --  -10.28995 -10.28117 -10.28106 -10.27892 -10.27857
 Alpha  occ. eigenvalues --  -10.27593 -10.27560 -10.27432 -10.27307 -10.27245
 Alpha  occ. eigenvalues --  -10.27186 -10.27168 -10.26967 -10.26778  -6.71506
 Alpha  occ. eigenvalues --   -6.71051  -4.87922  -4.87638  -4.87477  -4.87398
 Alpha  occ. eigenvalues --   -4.87162  -4.86943  -3.32295  -2.09207  -2.08564
 Alpha  occ. eigenvalues --   -2.05671  -1.01377  -0.95154  -0.93736  -0.92764
 Alpha  occ. eigenvalues --   -0.92120  -0.89875  -0.88679  -0.84621  -0.81076
 Alpha  occ. eigenvalues --   -0.80526  -0.80397  -0.80352  -0.80086  -0.79652
 Alpha  occ. eigenvalues --   -0.79490  -0.78470  -0.75615  -0.72894  -0.71218
 Alpha  occ. eigenvalues --   -0.66775  -0.66712  -0.66516  -0.64077  -0.63173
 Alpha  occ. eigenvalues --   -0.61148  -0.60282  -0.58617  -0.57935  -0.57441
 Alpha  occ. eigenvalues --   -0.56964  -0.56087  -0.55944  -0.55770  -0.55522
 Alpha  occ. eigenvalues --   -0.55205  -0.54678  -0.54245  -0.54210  -0.53346
 Alpha  occ. eigenvalues --   -0.53303  -0.52654  -0.52370  -0.51235  -0.50171
 Alpha  occ. eigenvalues --   -0.50024  -0.49957  -0.49556  -0.49159  -0.48920
 Alpha  occ. eigenvalues --   -0.48482  -0.48293  -0.48227  -0.48046  -0.47710
 Alpha  occ. eigenvalues --   -0.47006  -0.46551  -0.46266  -0.46012  -0.45642
 Alpha  occ. eigenvalues --   -0.45217  -0.45002  -0.44768  -0.44140  -0.43836
 Alpha  occ. eigenvalues --   -0.43588  -0.43404  -0.42061  -0.41122  -0.37840
 Alpha  occ. eigenvalues --   -0.37580  -0.37396  -0.35674  -0.35205  -0.34529
 Alpha  occ. eigenvalues --   -0.31469
 Alpha virt. eigenvalues --   -0.16171  -0.15034  -0.10939  -0.09996  -0.08973
 Alpha virt. eigenvalues --   -0.08221  -0.07160  -0.07022  -0.06269  -0.05315
 Alpha virt. eigenvalues --   -0.04972  -0.04834  -0.04387  -0.04159  -0.04095

 Mulliken charges:
               1
     1  C   -0.473621
     2  H    0.175921
     3  H    0.164144
     4  H    0.163984
     5  C   -0.012894
     6  C   -0.404144
     7  H    0.129028
     8  H    0.144433
     9  H    0.158357
    10  C   -0.422100
    11  H    0.158281
    12  H    0.153149
    13  H    0.145688
    14  C   -0.407527
    15  H    0.137282
    16  H    0.144898
    17  H    0.161816
    18  C   -0.005764
    19  C   -0.426337
    20  H    0.146761
    21  H    0.142901
    22  H    0.160536
    23  C   -0.403992
    24  H    0.157642
    25  H    0.161327
    26  H    0.127486
    27  C   -0.409363
    28  H    0.155839
    29  H    0.129354
    30  H    0.146743
    31  C   -0.024043
    32  C   -0.367481
    33  H    0.157644
    34  H    0.133079
    35  H    0.126744
    36  C   -0.401670
    37  H    0.154386
    38  H    0.137603
    39  H    0.153759
    40  C   -0.431617
    41  H    0.157471
    42  H    0.148312
    43  H    0.145337
    44  C   -0.017069
    45  H    0.171704
    46  C   -0.083959
    47  H    0.169926
    48  C   -0.218340
    49  H    0.132846
    50  H    0.172724
    51  C   -0.362272
    52  H    0.169589
    53  H    0.170312
    54  C   -0.020743
    55  H    0.175044
    56  C   -0.109296
    57  H    0.193935
    58  C   -0.217627
    59  H    0.130395
    60  H    0.173139
    61  C   -0.356998
    62  H    0.169067
    63  H    0.169656
    64  N   -0.602619
    65  H    0.270557
    66  P    0.500978
    67  P    0.471797
    68  Rh  -0.542097
 Sum of Mulliken charges =   1.00000

 Dipole moment (field-independent basis, Debye):
    X=             -0.9666    Y=              1.1424    Z=             -0.7837  Tot=              1.6892
 Quadrupole moment (field-independent basis, Debye-Ang):
   XX=           -152.0772   YY=           -155.0001   ZZ=           -169.2992
   XY=             -0.4216   XZ=              0.7653   YZ=             -2.0502

 Summary of Natural Population Analysis:

                                       Natural Population
                Natural  -----------------------------------------------
    Atom  No    Charge         Core      Valence    Rydberg      Total
 -----------------------------------------------------------------------
      C    1   -0.93031      1.99941     4.91956    0.01133     6.93031
      H    2    0.24709      0.00000     0.75160    0.00131     0.75291
      H    3    0.24279      0.00000     0.75596    0.00125     0.75721
      H    4    0.23563      0.00000     0.76231    0.00207     0.76437
      C    5   -0.28749      1.99944     4.26990    0.01815     6.28749
      C    6   -0.60697      1.99936     4.59884    0.00877     6.60697
      H    7    0.20491      0.00000     0.79346    0.00163     0.79509
      H    8    0.20903      0.00000     0.78932    0.00165     0.79097
      H    9    0.22861      0.00000     0.76969    0.00170     0.77139
      C   10   -0.60484      1.99936     4.59768    0.00780     6.60484
      H   11    0.22725      0.00000     0.77101    0.00173     0.77275
      H   12    0.21160      0.00000     0.78695    0.00145     0.78840
      H   13    0.20757      0.00000     0.79097    0.00146     0.79243
      C   14   -0.59895      1.99936     4.59171    0.00787     6.59895
      H   15    0.21298      0.00000     0.78550    0.00152     0.78702
      H   16    0.21019      0.00000     0.78803    0.00179     0.78981
      H   17    0.22221      0.00000     0.77605    0.00174     0.77779
      C   18   -0.28442      1.99942     4.26686    0.01814     6.28442
      C   19   -0.60145      1.99936     4.59357    0.00852     6.60145
      H   20    0.21503      0.00000     0.78349    0.00149     0.78497
      H   21    0.20792      0.00000     0.79045    0.00163     0.79208
      H   22    0.22423      0.00000     0.77399    0.00178     0.77577
      C   23   -0.60142      1.99935     4.59419    0.00788     6.60142
      H   24    0.22239      0.00000     0.77581    0.00181     0.77761
      H   25    0.21513      0.00000     0.78330    0.00156     0.78487
      H   26    0.20431      0.00000     0.79424    0.00145     0.79569
      C   27   -0.60545      1.99936     4.59712    0.00898     6.60545
      H   28    0.22496      0.00000     0.77325    0.00178     0.77504
      H   29    0.20137      0.00000     0.79691    0.00172     0.79863
      H   30    0.21015      0.00000     0.78814    0.00171     0.78985
      C   31   -0.27912      1.99942     4.26120    0.01850     6.27912
      C   32   -0.59609      1.99936     4.58829    0.00844     6.59609
      H   33    0.22000      0.00000     0.77816    0.00185     0.78000
      H   34    0.21276      0.00000     0.78553    0.00171     0.78724
      H   35    0.21333      0.00000     0.78508    0.00160     0.78667
      C   36   -0.60981      1.99936     4.60151    0.00895     6.60981
      H   37    0.21093      0.00000     0.78738    0.00168     0.78907
      H   38    0.20886      0.00000     0.78939    0.00175     0.79114
      H   39    0.22427      0.00000     0.77396    0.00177     0.77573
      C   40   -0.60545      1.99935     4.59811    0.00799     6.60545
      H   41    0.22448      0.00000     0.77370    0.00182     0.77552
      H   42    0.20854      0.00000     0.78998    0.00148     0.79146
      H   43    0.20856      0.00000     0.78973    0.00171     0.79144
      C   44   -0.17729      1.99908     4.15866    0.01954     6.17729
      H   45    0.22133      0.00000     0.77672    0.00195     0.77867
      C   46   -0.16166      1.99909     4.14229    0.02028     6.16166
      H   47    0.21870      0.00000     0.77892    0.00238     0.78130
      C   48   -0.41753      1.99935     4.40544    0.01274     6.41753
      H   49    0.21671      0.00000     0.78166    0.00163     0.78329
      H   50    0.23455      0.00000     0.76362    0.00182     0.76545
      C   51   -0.42448      1.99936     4.41308    0.01204     6.42448
      H   52    0.21652      0.00000     0.78157    0.00192     0.78348
      H   53    0.22948      0.00000     0.76908    0.00144     0.77052
      C   54   -0.17918      1.99908     4.16022    0.01988     6.17918
      H   55    0.22197      0.00000     0.77580    0.00223     0.77803
      C   56   -0.15790      1.99908     4.13838    0.02044     6.15790
      H   57    0.21948      0.00000     0.77821    0.00231     0.78052
      C   58   -0.41797      1.99935     4.40593    0.01269     6.41797
      H   59    0.21635      0.00000     0.78203    0.00162     0.78365
      H   60    0.23483      0.00000     0.76336    0.00181     0.76517
      C   61   -0.42298      1.99936     4.41163    0.01199     6.42298
      H   62    0.21613      0.00000     0.78196    0.00191     0.78387
      H   63    0.22913      0.00000     0.76944    0.00143     0.77087
      N   64   -1.24452      1.99962     6.22447    0.02044     8.24452
      H   65    0.40513      0.00000     0.58887    0.00600     0.59487
      P   66    1.30862      9.99656     3.63594    0.05888    13.69138
      P   67    1.27756      9.99662     3.67032    0.05549    13.72244
     Rh   68   -0.36829     35.98517     9.35596    0.02716    45.36829
 =======================================================================
   * Total *    1.00000     99.96362   149.52543    0.51096   250.00000

 Normal termination of Gaussian 16 at Tue Nov  5 12:32:38 2024.
