 Gaussian 16, Revision B.01,
 Gaussian 16:  ES64L-G16RevB.01 20-Dec-2017

 ------------------------------------------
 # nmr=giao b3lyp/genecp pop=nbo scfcyc=200
 ------------------------------------------

 ------------
 Ligand 1 SPE
 ------------
 Symbolic Z-matrix:
 Charge =  1 Multiplicity = 1

                         Standard orientation:
 ---------------------------------------------------------------------
 Center     Atomic      Atomic             Coordinates (Angstroms)
 Number     Number       Type             X           Y           Z
 ---------------------------------------------------------------------
      1         45           0       -0.737370   -0.993589    0.018209
      2         15           0        1.151500    0.021851    1.091629
      3         15           0       -0.786470    1.316651   -0.425751
      4          6           0       -0.271330   -3.199869    0.244639
      5          1           0        0.806510   -3.232119    0.359179
      6          6           0       -0.792100   -3.870849   -1.002231
      7          1           0       -0.834250   -4.956289   -0.849161
      8          1           0       -0.059160   -3.712379   -1.796121
      9          6           0       -2.169040   -3.357119   -1.477651
     10          1           0       -2.268120   -3.571949   -2.542751
     11          1           0       -2.970150   -3.909359   -0.986341
     12          6           0       -2.374470   -1.868099   -1.264361
     13          1           0       -2.336020   -1.262019   -2.163871
     14          6           0       -2.949120   -1.288949   -0.147091
     15          1           0       -3.357920   -0.291589   -0.261091
     16          6           0       -3.408800   -1.998419    1.102369
     17          1           0       -4.425080   -2.384479    0.953599
     18          1           0       -3.487580   -1.251509    1.895119
     19          6           0       -2.477550   -3.134669    1.567569
     20          1           0       -2.643720   -3.308909    2.631959
     21          1           0       -2.735160   -4.068199    1.067739
     22          6           0       -1.005340   -2.837039    1.352799
     23          1           0       -0.448940   -2.582319    2.247189
     24          6           0        0.329610    1.717261    1.009989
     25          1           0       -0.268490    1.845631    1.912679
     26          1           0        0.979080    2.580761    0.874459
     27          6           0       -2.289340    2.372421   -0.347511
     28          6           0       -3.693460    4.027471    0.717469
     29          1           0       -3.871950    4.711761    1.537299
     30          6           0       -4.374310    3.049781   -1.374341
     31          1           0       -5.085710    2.968921   -2.186461
     32          6           0        0.123110    1.956971   -1.903901
     33          1           0       -0.438260    1.722451   -2.807541
     34          1           0        0.245950    3.037951   -1.829241
     35          1           0        1.100190    1.479551   -1.967301
     36          6           0        2.838030    0.247711    0.346499
     37          6           0        3.757890    1.170941    0.907679
     38          6           0        3.210280   -0.476339   -0.811181
     39          6           0        4.998940    1.344711    0.299459
     40          6           0        4.468510   -0.258439   -1.373491
     41          6           0        5.380410    0.644381   -0.840541
     42          1           0        5.692440    2.053941    0.737929
     43          1           0        4.740790   -0.819559   -2.260231
     44          6           0        1.383190   -0.422989    2.872809
     45          1           0        1.819800   -1.421669    2.916189
     46          1           0        2.028080    0.265391    3.410399
     47          1           0        0.403220   -0.450669    3.348919
     48          6           0        2.351220   -1.518919   -1.486921
     49          1           0        1.285930   -1.276349   -1.472571
     50          1           0        2.657400   -1.640569   -2.525761
     51          1           0        2.467800   -2.491479   -1.001451
     52          6           0        6.718010    0.880361   -1.487381
     53          1           0        7.037790    0.015971   -2.069661
     54          1           0        6.671200    1.736141   -2.167171
     55          1           0        7.486620    1.097131   -0.744481
     56          6           0        3.525290    1.978661    2.166759
     57          1           0        4.083090    2.913591    2.116639
     58          1           0        2.484830    2.232351    2.350999
     59          1           0        3.892710    1.439531    3.044379
     60          6           0       -3.222290    2.273371   -1.387251
     61          1           0       -3.053660    1.595491   -2.216531
     62          6           0       -4.612720    3.927171   -0.320311
     63          1           0       -5.511070    4.531051   -0.309971
     64          6           0       -2.536400    3.253951    0.706829
     65          1           0       -1.831390    3.357001    1.521259
 ---------------------------------------------------------------------

 SCF Done:  E(RB3LYP) =  -1806.00455004     A.U. after   15 cycles

      1  Rh   Isotropic =  -326.8771   Anisotropy =   328.4895

      2  P    Isotropic =   345.8686   Anisotropy =    81.8730

      3  P    Isotropic =   327.8807   Anisotropy =    75.5499

      4  C    Isotropic =    78.1077   Anisotropy =   115.3498

      5  H    Isotropic =    26.7164   Anisotropy =     4.0401

      6  C    Isotropic =   148.6888   Anisotropy =    26.4480

      7  H    Isotropic =    29.1937   Anisotropy =    12.6049

      8  H    Isotropic =    29.2198   Anisotropy =     7.5649

      9  C    Isotropic =   154.2545   Anisotropy =    24.9690

     10  H    Isotropic =    29.7608   Anisotropy =    11.6494

     11  H    Isotropic =    29.8037   Anisotropy =     9.3940

     12  C    Isotropic =    86.2858   Anisotropy =   111.8584

     13  H    Isotropic =    27.1081   Anisotropy =     7.9307

     14  C    Isotropic =    74.1760   Anisotropy =   122.2478

     15  H    Isotropic =    27.1683   Anisotropy =     6.5353

     16  C    Isotropic =   146.6657   Anisotropy =    31.7452

     17  H    Isotropic =    29.3276   Anisotropy =    12.1199

     18  H    Isotropic =    29.3388   Anisotropy =     6.8384

     19  C    Isotropic =   154.0873   Anisotropy =    25.6166

     20  H    Isotropic =    29.9025   Anisotropy =    11.4755

     21  H    Isotropic =    29.8181   Anisotropy =     9.0789

     22  C    Isotropic =    72.4446   Anisotropy =   129.3125

     23  H    Isotropic =    26.6968   Anisotropy =     6.2794

     24  C    Isotropic =   137.0987   Anisotropy =    42.7053

     25  H    Isotropic =    27.9031   Anisotropy =     5.8876

     26  H    Isotropic =    28.8312   Anisotropy =    10.7695

     27  C    Isotropic =    45.3671   Anisotropy =   174.2712

     28  C    Isotropic =    48.0738   Anisotropy =   191.7913

     29  H    Isotropic =    24.0490   Anisotropy =     6.1267

     30  C    Isotropic =    48.1033   Anisotropy =   192.2073

     31  H    Isotropic =    24.1194   Anisotropy =     6.3421

     32  C    Isotropic =   163.4654   Anisotropy =    32.1609

     33  H    Isotropic =    30.4148   Anisotropy =     8.9748

     34  H    Isotropic =    30.6748   Anisotropy =     9.5708

     35  H    Isotropic =    30.8349   Anisotropy =     9.4695

     36  C    Isotropic =    53.1453   Anisotropy =   134.6212

     37  C    Isotropic =    34.0389   Anisotropy =   189.2853

     38  C    Isotropic =    34.6193   Anisotropy =   194.2943

     39  C    Isotropic =    46.4083   Anisotropy =   142.8587

     40  C    Isotropic =    47.6270   Anisotropy =   138.8269

     41  C    Isotropic =    30.8370   Anisotropy =   209.7864

     42  H    Isotropic =    24.5772   Anisotropy =     9.4786

     43  H    Isotropic =    24.6006   Anisotropy =    10.1842

     44  C    Isotropic =   166.9271   Anisotropy =    26.7491

     45  H    Isotropic =    30.6129   Anisotropy =     8.0668

     46  H    Isotropic =    29.3061   Anisotropy =    10.2428

     47  H    Isotropic =    30.4822   Anisotropy =     7.9497

     48  C    Isotropic =   155.7181   Anisotropy =    32.0478

     49  H    Isotropic =    27.2531   Anisotropy =    12.3879

     50  H    Isotropic =    29.1133   Anisotropy =     7.9902

     51  H    Isotropic =    29.1529   Anisotropy =     6.2866

     52  C    Isotropic =   162.0407   Anisotropy =    42.4094

     53  H    Isotropic =    29.6361   Anisotropy =     7.9626

     54  H    Isotropic =    29.2949   Anisotropy =     8.7008

     55  H    Isotropic =    29.5305   Anisotropy =     8.5734

     56  C    Isotropic =   160.5745   Anisotropy =    25.6900

     57  H    Isotropic =    29.3660   Anisotropy =     9.2698

     58  H    Isotropic =    29.7339   Anisotropy =     7.8804

     59  H    Isotropic =    29.2085   Anisotropy =     8.1813

     60  C    Isotropic =    49.5229   Anisotropy =   184.0911

     61  H    Isotropic =    24.7629   Anisotropy =    10.7820

     62  C    Isotropic =    46.1404   Anisotropy =   197.5875

     63  H    Isotropic =    24.0237   Anisotropy =     3.9569

     64  C    Isotropic =    52.2091   Anisotropy =   182.3595

     65  H    Isotropic =    24.4663   Anisotropy =    11.8549

 The electronic state is 1-A.
 Alpha  occ. eigenvalues --  -77.24255 -77.24233 -10.30951 -10.30198 -10.29660
 Alpha  occ. eigenvalues --  -10.29647 -10.29589 -10.29476 -10.29407 -10.29301
 Alpha  occ. eigenvalues --  -10.29187 -10.29145 -10.28996 -10.28958 -10.28919
 Alpha  occ. eigenvalues --  -10.28226 -10.28069 -10.28020 -10.27890 -10.27819
 Alpha  occ. eigenvalues --  -10.27755 -10.27644 -10.27557 -10.27124 -10.26754
 Alpha  occ. eigenvalues --  -10.26541 -10.26506 -10.25269  -6.70262  -6.70178
 Alpha  occ. eigenvalues --   -4.86568  -4.86479  -4.86466  -4.86386  -4.86156
 Alpha  occ. eigenvalues --   -4.86080  -3.32185  -2.09075  -2.08379  -2.05675
 Alpha  occ. eigenvalues --   -0.97082  -0.96970  -0.94835  -0.90731  -0.89540
 Alpha  occ. eigenvalues --   -0.89045  -0.88490  -0.88355  -0.86231  -0.85793
 Alpha  occ. eigenvalues --   -0.84146  -0.81760  -0.80755  -0.80671  -0.78535
 Alpha  occ. eigenvalues --   -0.78205  -0.77993  -0.73033  -0.71681  -0.70896
 Alpha  occ. eigenvalues --   -0.69904  -0.68202  -0.67318  -0.66274  -0.65979
 Alpha  occ. eigenvalues --   -0.62864  -0.62388  -0.60455  -0.59407  -0.58759
 Alpha  occ. eigenvalues --   -0.57512  -0.56804  -0.56658  -0.56620  -0.56075
 Alpha  occ. eigenvalues --   -0.54987  -0.54388  -0.53997  -0.53957  -0.53694
 Alpha  occ. eigenvalues --   -0.53416  -0.53086  -0.52944  -0.52890  -0.52484
 Alpha  occ. eigenvalues --   -0.51742  -0.51636  -0.50673  -0.50594  -0.50157
 Alpha  occ. eigenvalues --   -0.49783  -0.48918  -0.48683  -0.48347  -0.48173
 Alpha  occ. eigenvalues --   -0.47843  -0.46908  -0.46694  -0.46224  -0.46176
 Alpha  occ. eigenvalues --   -0.45378  -0.44621  -0.44211  -0.43787  -0.43690
 Alpha  occ. eigenvalues --   -0.43393  -0.43172  -0.42697  -0.41503  -0.38304
 Alpha  occ. eigenvalues --   -0.37154  -0.36531  -0.36044  -0.35541  -0.35078
 Alpha  occ. eigenvalues --   -0.34812  -0.34447  -0.34140  -0.31234
 Alpha virt. eigenvalues --   -0.16394  -0.14778  -0.13308  -0.12485  -0.12087
 Alpha virt. eigenvalues --   -0.11294  -0.09700  -0.08554  -0.08279  -0.07251
 Alpha virt. eigenvalues --   -0.07044  -0.06437  -0.06135  -0.05353  -0.04820

 Mulliken charges:
               1
     1  Rh  -0.590887
     2  P    0.262698
     3  P    0.274609
     4  C   -0.054669
     5  H    0.180789
     6  C   -0.234319
     7  H    0.171953
     8  H    0.141672
     9  C   -0.342399
    10  H    0.170613
    11  H    0.167127
    12  C   -0.004218
    13  H    0.168510
    14  C   -0.118198
    15  H    0.227757
    16  C   -0.231271
    17  H    0.171054
    18  H    0.132583
    19  C   -0.342577
    20  H    0.167927
    21  H    0.169245
    22  C   -0.052753
    23  H    0.186527
    24  C   -0.534859
    25  H    0.192307
    26  H    0.222819
    27  C   -0.063144
    28  C   -0.090690
    29  H    0.136552
    30  C   -0.080198
    31  H    0.137129
    32  C   -0.429166
    33  H    0.164936
    34  H    0.166170
    35  H    0.170150
    36  C   -0.187131
    37  C    0.201738
    38  C    0.221040
    39  C   -0.203668
    40  C   -0.197644
    41  C    0.161017
    42  H    0.122745
    43  H    0.118830
    44  C   -0.449893
    45  H    0.169251
    46  H    0.190055
    47  H    0.156898
    48  C   -0.481606
    49  H    0.179936
    50  H    0.154665
    51  H    0.159684
    52  C   -0.441419
    53  H    0.143437
    54  H    0.158131
    55  H    0.144652
    56  C   -0.506425
    57  H    0.159574
    58  H    0.151775
    59  H    0.172731
    60  C   -0.145299
    61  H    0.142594
    62  C   -0.107463
    63  H    0.142444
    64  C   -0.070639
    65  H    0.126213
 Sum of Mulliken charges =   1.00000

 Dipole moment (field-independent basis, Debye):
    X=             -0.1497    Y=              1.0325    Z=              0.7544  Tot=              1.2875
 Quadrupole moment (field-independent basis, Debye-Ang):
   XX=           -146.2839   YY=           -168.0695   ZZ=           -180.5100
   XY=              0.1835   XZ=              1.5968   YZ=              3.9951

 Summary of Natural Population Analysis:

                                       Natural Population
                Natural  -----------------------------------------------
    Atom  No    Charge         Core      Valence    Rydberg      Total
 -----------------------------------------------------------------------
     Rh    1   -0.44177     35.98545     9.43141    0.02492    45.44177
      P    2    1.09032      9.99668     3.86207    0.05092    13.90968
      P    3    1.13916      9.99649     3.81580    0.04855    13.86084
      C    4   -0.17127      1.99905     4.15161    0.02061     6.17127
      H    5    0.22429      0.00000     0.77368    0.00203     0.77571
      C    6   -0.42089      1.99936     4.40872    0.01282     6.42089
      H    7    0.23434      0.00000     0.76381    0.00185     0.76566
      H    8    0.21554      0.00000     0.78279    0.00167     0.78446
      C    9   -0.42227      1.99937     4.41107    0.01183     6.42227
      H   10    0.22885      0.00000     0.76974    0.00142     0.77115
      H   11    0.21461      0.00000     0.78355    0.00184     0.78539
      C   12   -0.18217      1.99904     4.16327    0.01987     6.18217
      H   13    0.22682      0.00000     0.77160    0.00158     0.77318
      C   14   -0.14404      1.99906     4.12363    0.02135     6.14404
      H   15    0.23081      0.00000     0.76690    0.00228     0.76919
      C   16   -0.42034      1.99936     4.40795    0.01303     6.42034
      H   17    0.23337      0.00000     0.76485    0.00178     0.76663
      H   18    0.21887      0.00000     0.77960    0.00153     0.78113
      C   19   -0.42450      1.99936     4.41292    0.01222     6.42450
      H   20    0.22873      0.00000     0.76984    0.00142     0.77127
      H   21    0.21255      0.00000     0.78515    0.00230     0.78745
      C   22   -0.14668      1.99904     4.12767    0.01997     6.14668
      H   23    0.22065      0.00000     0.77740    0.00195     0.77935
      C   24   -0.98279      1.99944     4.96684    0.01652     6.98279
      H   25    0.25810      0.00000     0.74029    0.00161     0.74190
      H   26    0.25269      0.00000     0.74511    0.00220     0.74731
      C   27   -0.34077      1.99901     4.31914    0.02262     6.34077
      C   28   -0.18632      1.99920     4.17249    0.01463     6.18632
      H   29    0.22342      0.00000     0.77536    0.00122     0.77658
      C   30   -0.18685      1.99920     4.17295    0.01471     6.18685
      H   31    0.22405      0.00000     0.77473    0.00122     0.77595
      C   32   -0.88951      1.99942     4.87983    0.01026     6.88951
      H   33    0.24133      0.00000     0.75753    0.00114     0.75867
      H   34    0.24055      0.00000     0.75768    0.00176     0.75945
      H   35    0.24410      0.00000     0.75464    0.00126     0.75590
      C   36   -0.35923      1.99884     4.33905    0.02134     6.35923
      C   37    0.01593      1.99907     3.96730    0.01770     5.98407
      C   38    0.01456      1.99908     3.97047    0.01589     5.98544
      C   39   -0.20344      1.99900     4.19084    0.01359     6.20344
      C   40   -0.20620      1.99901     4.19342    0.01377     6.20620
      C   41    0.03612      1.99911     3.95068    0.01409     5.96388
      H   42    0.21024      0.00000     0.78801    0.00174     0.78976
      H   43    0.20968      0.00000     0.78858    0.00175     0.79032
      C   44   -0.89658      1.99941     4.88748    0.00969     6.89658
      H   45    0.24411      0.00000     0.75477    0.00113     0.75589
      H   46    0.24103      0.00000     0.75696    0.00201     0.75897
      H   47    0.23962      0.00000     0.75915    0.00123     0.76038
      C   48   -0.60426      1.99937     4.59696    0.00793     6.60426
      H   49    0.21970      0.00000     0.77773    0.00257     0.78030
      H   50    0.22396      0.00000     0.77478    0.00126     0.77604
      H   51    0.21790      0.00000     0.78050    0.00160     0.78210
      C   52   -0.61827      1.99941     4.61186    0.00700     6.61827
      H   53    0.22082      0.00000     0.77804    0.00114     0.77918
      H   54    0.22785      0.00000     0.77082    0.00132     0.77215
      H   55    0.22288      0.00000     0.77596    0.00116     0.77712
      C   56   -0.62394      1.99939     4.61678    0.00777     6.62394
      H   57    0.23006      0.00000     0.76874    0.00120     0.76994
      H   58    0.20328      0.00000     0.79472    0.00200     0.79672
      H   59    0.22495      0.00000     0.77352    0.00154     0.77505
      C   60   -0.20252      1.99909     4.18822    0.01521     6.20252
      H   61    0.21022      0.00000     0.78761    0.00217     0.78978
      C   62   -0.17956      1.99920     4.16573    0.01462     6.17956
      H   63    0.22484      0.00000     0.77400    0.00116     0.77516
      C   64   -0.19535      1.99909     4.18068    0.01558     6.19535
      H   65    0.20860      0.00000     0.78942    0.00198     0.79140
 =======================================================================
   * Total *    1.00000    107.95759   157.47440    0.56801   266.00000

 Normal termination of Gaussian 16 at Tue Nov  5 12:07:07 2024.
