 Gaussian 16, Revision B.01,
 Gaussian 16:  ES64L-G16RevB.01 20-Dec-2017

 ------------------------------------------
 # nmr=giao b3lyp/genecp pop=nbo scfcyc=200
 ------------------------------------------

 -------------
 Ligand 21 SPE
 -------------
 Symbolic Z-matrix:
 Charge =  1 Multiplicity = 1

                         Standard orientation:
 ---------------------------------------------------------------------
 Center     Atomic      Atomic             Coordinates (Angstroms)
 Number     Number       Type             X           Y           Z
 ---------------------------------------------------------------------
      1          7           0        0.715520    1.093660    0.663991
      2          8           0        0.070510    2.749390   -1.088619
      3         15           0       -0.726800    1.827510    0.046321
      4         15           0        0.353429   -0.603690    0.449171
      5          6           0        1.892460    1.971699    0.396781
      6          1           0        2.008940    2.628429    1.258371
      7          6           0        1.503360    2.784490   -0.888959
      8          1           0        1.779211    3.831490   -0.760839
      9          6           0        2.293770    2.151729   -2.048779
     10          1           0        1.667900    1.424920   -2.573939
     11          1           0        2.610440    2.894439   -2.781769
     12          6           0        3.448390    1.476309   -1.349309
     13          6           0        3.204370    1.341429    0.019881
     14          6           0        4.157700    0.788169    0.866501
     15          1           0        3.979570    0.713589    1.932911
     16          6           0        5.359230    0.342368    0.323791
     17          1           0        6.117979   -0.083022    0.968531
     18          6           0        5.600690    0.463468   -1.044219
     19          1           0        6.545469    0.126518   -1.452469
     20          6           0        4.650350    1.034339   -1.887519
     21          1           0        4.857250    1.145108   -2.945229
     22          6           0       -1.424840    3.112001    1.243341
     23          6           0       -0.343269    4.028250    1.830671
     24          1           0        0.207871    4.565010    1.057811
     25          1           0        0.360131    3.480050    2.458341
     26          1           0       -0.823819    4.778510    2.464071
     27          6           0       -2.425329    3.953611    0.427961
     28          1           0       -2.901349    4.681341    1.089531
     29          1           0       -3.219629    3.347441   -0.011509
     30          1           0       -1.930629    4.501721   -0.374609
     31          6           0       -2.143260    2.357111    2.371961
     32          1           0       -2.622990    3.078541    3.038041
     33          1           0       -1.448890    1.764321    2.970191
     34          1           0       -2.916110    1.687481    1.991691
     35         45           0       -1.819371   -0.176719   -0.355579
     36          6           0       -4.015060    0.405511   -0.717069
     37          6           0       -3.347750    0.373391   -1.922149
     38          6           0       -2.431991   -2.278659   -1.062909
     39          6           0       -2.849951   -2.103309    0.237741
     40          1           0       -4.103590    1.370522   -0.232809
     41          6           0       -4.941421   -0.670878   -0.184739
     42          1           0       -2.983490    1.317611   -2.314649
     43          6           0       -3.344591   -0.759039   -2.919459
     44          6           0       -3.307371   -2.173069   -2.297479
     45          1           0       -1.478692   -2.773749   -1.210469
     46          1           0       -2.209271   -2.493529    1.022311
     47          6           0       -4.231101   -1.715258    0.702681
     48          1           0       -5.452331   -1.159288   -1.014009
     49          1           0       -5.723181   -0.192048    0.407081
     50          1           0       -4.218011   -0.668588   -3.577259
     51          1           0       -2.474371   -0.628929   -3.566319
     52          1           0       -2.928672   -2.868129   -3.048549
     53          1           0       -4.316171   -2.509788   -2.060719
     54          1           0       -4.853941   -2.614618    0.786851
     55          1           0       -4.140401   -1.321838    1.717271
     56          6           0        0.704029   -1.402910    2.062971
     57          6           0        0.570108   -2.791280    2.185441
     58          6           0        1.005009   -0.641740    3.193311
     59          6           0        0.749468   -3.404600    3.419081
     60          1           0        0.342728   -3.401590    1.319381
     61          6           0        1.189729   -1.261410    4.425511
     62          1           0        1.094920    0.432900    3.108851
     63          6           0        1.060719   -2.640970    4.541111
     64          1           0        0.649168   -4.479330    3.503881
     65          1           0        1.432239   -0.664120    5.295571
     66          1           0        1.201788   -3.121050    5.501141
     67          6           0        1.450469   -1.438110   -0.770139
     68          6           0        2.603569   -2.135211   -0.397439
     69          6           0        1.071139   -1.412790   -2.117599
     70          6           0        3.362188   -2.791831   -1.358769
     71          1           0        2.912439   -2.168131    0.637981
     72          6           0        1.837829   -2.062970   -3.076609
     73          1           0        0.166729   -0.891070   -2.408559
     74          6           0        2.982348   -2.757271   -2.696829
     75          1           0        4.253218   -3.329871   -1.061119
     76          1           0        1.536309   -2.038330   -4.116369
     77          1           0        3.574828   -3.274011   -3.441439
 ---------------------------------------------------------------------

 SCF Done:  E(RB3LYP) =  -2204.66894625     A.U. after   16 cycles

      1  N    Isotropic =   129.5406   Anisotropy =   103.8273

      2  O    Isotropic =   215.9894   Anisotropy =    68.1029

      3  P    Isotropic =   111.8676   Anisotropy =   120.4845

      4  P    Isotropic =   229.3790   Anisotropy =    70.5076

      5  C    Isotropic =   106.4030   Anisotropy =    28.8358

      6  H    Isotropic =    26.5757   Anisotropy =     6.5788

      7  C    Isotropic =    88.2201   Anisotropy =    75.3379

      8  H    Isotropic =    26.4249   Anisotropy =     5.5996

      9  C    Isotropic =   141.8104   Anisotropy =    42.2037

     10  H    Isotropic =    29.1532   Anisotropy =     3.1063

     11  H    Isotropic =    28.6747   Anisotropy =     9.5126

     12  C    Isotropic =    34.9920   Anisotropy =   166.2712

     13  C    Isotropic =    45.2708   Anisotropy =   157.0057

     14  C    Isotropic =    52.1762   Anisotropy =   181.0099

     15  H    Isotropic =    24.6618   Anisotropy =     8.4396

     16  C    Isotropic =    50.8810   Anisotropy =   189.4022

     17  H    Isotropic =    24.6720   Anisotropy =     5.6298

     18  C    Isotropic =    46.5873   Anisotropy =   196.0612

     19  H    Isotropic =    24.7019   Anisotropy =     2.9376

     20  C    Isotropic =    53.4072   Anisotropy =   180.6254

     21  H    Isotropic =    25.2127   Anisotropy =     6.5503

     22  C    Isotropic =   129.6943   Anisotropy =    40.5170

     23  C    Isotropic =   157.7825   Anisotropy =    40.3052

     24  H    Isotropic =    30.5513   Anisotropy =     6.2079

     25  H    Isotropic =    30.5187   Anisotropy =     6.6406

     26  H    Isotropic =    30.6804   Anisotropy =    11.1208

     27  C    Isotropic =   160.7860   Anisotropy =    38.1140

     28  H    Isotropic =    30.9190   Anisotropy =    10.8749

     29  H    Isotropic =    31.1431   Anisotropy =     6.8415

     30  H    Isotropic =    30.4759   Anisotropy =     8.2619

     31  C    Isotropic =   159.3380   Anisotropy =    33.2815

     32  H    Isotropic =    30.7452   Anisotropy =    10.1714

     33  H    Isotropic =    30.5968   Anisotropy =     7.2917

     34  H    Isotropic =    30.2481   Anisotropy =     7.2660

     35  Rh   Isotropic =  -301.4257   Anisotropy =   336.4323

     36  C    Isotropic =    78.8696   Anisotropy =   122.1131

     37  C    Isotropic =    76.7320   Anisotropy =   119.1072

     38  C    Isotropic =    76.3178   Anisotropy =   125.6522

     39  C    Isotropic =    72.0988   Anisotropy =   124.0507

     40  H    Isotropic =    26.7470   Anisotropy =     6.1588

     41  C    Isotropic =   153.9802   Anisotropy =    24.7006

     42  H    Isotropic =    25.8319   Anisotropy =     5.6388

     43  C    Isotropic =   147.1355   Anisotropy =    29.6551

     44  C    Isotropic =   154.6230   Anisotropy =    24.3113

     45  H    Isotropic =    27.2119   Anisotropy =     4.3298

     46  H    Isotropic =    26.8051   Anisotropy =     4.9417

     47  C    Isotropic =   148.3002   Anisotropy =    28.9038

     48  H    Isotropic =    29.7535   Anisotropy =     9.7449

     49  H    Isotropic =    29.8662   Anisotropy =    11.4936

     50  H    Isotropic =    28.9639   Anisotropy =    12.8061

     51  H    Isotropic =    28.9044   Anisotropy =     7.7388

     52  H    Isotropic =    29.9138   Anisotropy =    11.0763

     53  H    Isotropic =    29.7921   Anisotropy =     9.8396

     54  H    Isotropic =    29.2976   Anisotropy =    12.6534

     55  H    Isotropic =    29.3856   Anisotropy =     6.9287

     56  C    Isotropic =    44.1843   Anisotropy =   164.7709

     57  C    Isotropic =    49.7083   Anisotropy =   189.4642

     58  C    Isotropic =    47.7892   Anisotropy =   195.4993

     59  C    Isotropic =    49.0815   Anisotropy =   190.9492

     60  H    Isotropic =    25.0578   Anisotropy =    11.0920

     61  C    Isotropic =    48.8489   Anisotropy =   190.3135

     62  H    Isotropic =    23.4651   Anisotropy =    11.0181

     63  C    Isotropic =    45.8308   Anisotropy =   196.7049

     64  H    Isotropic =    24.2252   Anisotropy =     6.1795

     65  H    Isotropic =    23.8762   Anisotropy =     6.7247

     66  H    Isotropic =    23.9706   Anisotropy =     3.4785

     67  C    Isotropic =    46.1267   Anisotropy =   171.4811

     68  C    Isotropic =    44.8046   Anisotropy =   200.5974

     69  C    Isotropic =    42.3714   Anisotropy =   183.5118

     70  C    Isotropic =    49.7958   Anisotropy =   192.0420

     71  H    Isotropic =    25.4702   Anisotropy =     9.5794

     72  C    Isotropic =    50.7663   Anisotropy =   187.1874

     73  H    Isotropic =    22.8779   Anisotropy =     8.6917

     74  C    Isotropic =    44.9942   Anisotropy =   199.7924

     75  H    Isotropic =    24.9111   Anisotropy =     5.6979

     76  H    Isotropic =    24.2361   Anisotropy =     6.6591

     77  H    Isotropic =    24.3546   Anisotropy =     3.2968

 The electronic state is 1-A.
 Alpha  occ. eigenvalues --  -77.27879 -77.26456 -19.25315 -14.44607 -10.34276
 Alpha  occ. eigenvalues --  -10.32963 -10.30571 -10.29732 -10.29722 -10.29592
 Alpha  occ. eigenvalues --  -10.29540 -10.29384 -10.29284 -10.28659 -10.28602
 Alpha  occ. eigenvalues --  -10.28459 -10.28413 -10.27959 -10.27926 -10.27858
 Alpha  occ. eigenvalues --  -10.27851 -10.27813 -10.27812 -10.27807 -10.27747
 Alpha  occ. eigenvalues --  -10.27738 -10.27738 -10.27648 -10.27647 -10.27406
 Alpha  occ. eigenvalues --  -10.27112 -10.26693 -10.26681 -10.26623 -10.26573
 Alpha  occ. eigenvalues --  -10.26548 -10.26543  -6.73251  -6.72059  -4.89746
 Alpha  occ. eigenvalues --   -4.89400  -4.89096  -4.88473  -4.88218  -4.87962
 Alpha  occ. eigenvalues --   -3.32162  -2.09166  -2.08414  -2.05521  -1.15302
 Alpha  occ. eigenvalues --   -1.02289  -0.97218  -0.96694  -0.96345  -0.94880
 Alpha  occ. eigenvalues --   -0.92540  -0.90784  -0.89645  -0.88421  -0.87603
 Alpha  occ. eigenvalues --   -0.85757  -0.85541  -0.85487  -0.85143  -0.82021
 Alpha  occ. eigenvalues --   -0.80812  -0.80446  -0.79402  -0.79362  -0.78258
 Alpha  occ. eigenvalues --   -0.76595  -0.72997  -0.71568  -0.71321  -0.70979
 Alpha  occ. eigenvalues --   -0.70578  -0.70392  -0.69803  -0.68230  -0.66437
 Alpha  occ. eigenvalues --   -0.66272  -0.64787  -0.63035  -0.62818  -0.62174
 Alpha  occ. eigenvalues --   -0.61437  -0.60410  -0.59476  -0.58093  -0.57866
 Alpha  occ. eigenvalues --   -0.57438  -0.56954  -0.56637  -0.56407  -0.56135
 Alpha  occ. eigenvalues --   -0.55727  -0.55106  -0.54960  -0.54589  -0.54076
 Alpha  occ. eigenvalues --   -0.53969  -0.53142  -0.53079  -0.53005  -0.52924
 Alpha  occ. eigenvalues --   -0.52825  -0.52120  -0.51927  -0.50803  -0.50477
 Alpha  occ. eigenvalues --   -0.49951  -0.49371  -0.49187  -0.48867  -0.48499
 Alpha  occ. eigenvalues --   -0.48094  -0.47815  -0.47522  -0.47402  -0.46916
 Alpha  occ. eigenvalues --   -0.46550  -0.46400  -0.45824  -0.45357  -0.45279
 Alpha  occ. eigenvalues --   -0.45069  -0.44761  -0.44588  -0.44376  -0.43787
 Alpha  occ. eigenvalues --   -0.43767  -0.43460  -0.43351  -0.42807  -0.42254
 Alpha  occ. eigenvalues --   -0.39768  -0.38892  -0.38222  -0.37183  -0.36813
 Alpha  occ. eigenvalues --   -0.36447  -0.35968  -0.35816  -0.35127  -0.34901
 Alpha  occ. eigenvalues --   -0.34554  -0.34259  -0.33908  -0.31186
 Alpha virt. eigenvalues --   -0.16479  -0.15572  -0.14108  -0.12649  -0.12300
 Alpha virt. eigenvalues --   -0.11377  -0.11031  -0.10491  -0.09860  -0.08498
 Alpha virt. eigenvalues --   -0.07829  -0.06761  -0.06491  -0.06086  -0.05078

 Mulliken charges:
               1
     1  N   -0.398384
     2  O   -0.329093
     3  P    0.626397
     4  P    0.451907
     5  C   -0.091398
     6  H    0.191808
     7  C   -0.040365
     8  H    0.186437
     9  C   -0.316648
    10  H    0.170123
    11  H    0.167343
    12  C    0.069210
    13  C   -0.094447
    14  C   -0.123894
    15  H    0.118486
    16  C   -0.096152
    17  H    0.126855
    18  C   -0.078292
    19  H    0.126197
    20  C   -0.099781
    21  H    0.122122
    22  C   -0.030351
    23  C   -0.400320
    24  H    0.151683
    25  H    0.133375
    26  H    0.157125
    27  C   -0.413162
    28  H    0.153455
    29  H    0.132786
    30  H    0.164322
    31  C   -0.382069
    32  H    0.156368
    33  H    0.139104
    34  H    0.136831
    35  Rh  -0.664977
    36  C   -0.017454
    37  C   -0.095381
    38  C   -0.030557
    39  C   -0.095821
    40  H    0.174723
    41  C   -0.354751
    42  H    0.189063
    43  C   -0.235786
    44  C   -0.361872
    45  H    0.203364
    46  H    0.200208
    47  C   -0.220797
    48  H    0.167819
    49  H    0.171944
    50  H    0.176326
    51  H    0.137546
    52  H    0.171563
    53  H    0.169717
    54  H    0.173653
    55  H    0.137016
    56  C   -0.136777
    57  C   -0.134952
    58  C   -0.081696
    59  C   -0.083225
    60  H    0.162010
    61  C   -0.092980
    62  H    0.163624
    63  C   -0.097522
    64  H    0.136560
    65  H    0.133522
    66  H    0.139367
    67  C   -0.250768
    68  C   -0.027510
    69  C   -0.118218
    70  C   -0.066608
    71  H    0.155357
    72  C   -0.081847
    73  H    0.202799
    74  C   -0.104488
    75  H    0.133329
    76  H    0.130517
    77  H    0.136381
 Sum of Mulliken charges =   1.00000

 Dipole moment (field-independent basis, Debye):
    X=             -0.7134    Y=             -0.9780    Z=              0.4269  Tot=              1.2836
 Quadrupole moment (field-independent basis, Debye-Ang):
   XX=           -197.1122   YY=           -217.3934   ZZ=           -214.3819
   XY=             -3.6820   XZ=             -0.0630   YZ=              3.7886

 Summary of Natural Population Analysis:

                                       Natural Population
                Natural  -----------------------------------------------
    Atom  No    Charge         Core      Valence    Rydberg      Total
 -----------------------------------------------------------------------
      N    1   -1.01970      1.99959     5.99475    0.02537     8.01970
      O    2   -0.76011      1.99982     6.74504    0.01525     8.76011
      P    3    1.61447      9.99592     3.31637    0.07324    13.38553
      P    4    1.33958      9.99604     3.60179    0.06259    13.66042
      C    5   -0.09209      1.99921     4.06868    0.02420     6.09209
      H    6    0.21470      0.00000     0.78258    0.00272     0.78530
      C    7    0.09974      1.99923     3.88206    0.01897     5.90026
      H    8    0.20086      0.00000     0.79706    0.00208     0.79914
      C    9   -0.44089      1.99933     4.43017    0.01139     6.44089
      H   10    0.22734      0.00000     0.77042    0.00224     0.77266
      H   11    0.23043      0.00000     0.76821    0.00136     0.76957
      C   12    0.00627      1.99904     3.97829    0.01640     5.99373
      C   13   -0.05892      1.99899     4.04115    0.01878     6.05892
      C   14   -0.18901      1.99908     4.17539    0.01453     6.18901
      H   15    0.21354      0.00000     0.78439    0.00207     0.78646
      C   16   -0.20000      1.99921     4.18612    0.01467     6.20000
      H   17    0.21897      0.00000     0.77982    0.00121     0.78103
      C   18   -0.17881      1.99922     4.16508    0.01451     6.17881
      H   19    0.21904      0.00000     0.77980    0.00115     0.78096
      C   20   -0.19344      1.99909     4.17985    0.01450     6.19344
      H   21    0.21812      0.00000     0.78035    0.00153     0.78188
      C   22   -0.32519      1.99943     4.30380    0.02196     6.32519
      C   23   -0.60297      1.99936     4.59515    0.00846     6.60297
      H   24    0.21312      0.00000     0.78536    0.00152     0.78688
      H   25    0.20645      0.00000     0.79199    0.00156     0.79355
      H   26    0.22518      0.00000     0.77304    0.00177     0.77482
      C   27   -0.60482      1.99936     4.59762    0.00784     6.60482
      H   28    0.22417      0.00000     0.77406    0.00177     0.77583
      H   29    0.20475      0.00000     0.79379    0.00146     0.79525
      H   30    0.22500      0.00000     0.77358    0.00143     0.77500
      C   31   -0.59988      1.99936     4.59320    0.00733     6.59988
      H   32    0.22286      0.00000     0.77537    0.00177     0.77714
      H   33    0.21382      0.00000     0.78463    0.00155     0.78618
      H   34    0.21621      0.00000     0.78222    0.00157     0.78379
     Rh   35   -0.44669     35.98461     9.43128    0.03080    45.44669
      C   36   -0.17495      1.99906     4.15556    0.02032     6.17495
      C   37   -0.15750      1.99907     4.13802    0.02041     6.15750
      C   38   -0.17394      1.99907     4.15495    0.01992     6.17394
      C   39   -0.15619      1.99908     4.13698    0.02013     6.15619
      H   40    0.22170      0.00000     0.77610    0.00220     0.77830
      C   41   -0.42480      1.99936     4.41346    0.01198     6.42480
      H   42    0.23210      0.00000     0.76611    0.00179     0.76790
      C   43   -0.41830      1.99935     4.40628    0.01266     6.41830
      C   44   -0.42541      1.99936     4.41410    0.01195     6.42541
      H   45    0.22863      0.00000     0.76942    0.00195     0.77137
      H   46    0.23033      0.00000     0.76736    0.00231     0.76967
      C   47   -0.41979      1.99935     4.40763    0.01281     6.41979
      H   48    0.21547      0.00000     0.78250    0.00203     0.78453
      H   49    0.22981      0.00000     0.76868    0.00151     0.77019
      H   50    0.23596      0.00000     0.76214    0.00190     0.76404
      H   51    0.21535      0.00000     0.78309    0.00156     0.78465
      H   52    0.22963      0.00000     0.76889    0.00148     0.77037
      H   53    0.21620      0.00000     0.78177    0.00203     0.78380
      H   54    0.23548      0.00000     0.76261    0.00191     0.76452
      H   55    0.21895      0.00000     0.77954    0.00151     0.78105
      C   56   -0.36869      1.99899     4.34445    0.02524     6.36869
      C   57   -0.19824      1.99909     4.18411    0.01503     6.19824
      C   58   -0.19135      1.99909     4.17631    0.01595     6.19135
      C   59   -0.19085      1.99920     4.17695    0.01470     6.19085
      H   60    0.21682      0.00000     0.78135    0.00183     0.78318
      C   61   -0.19131      1.99920     4.17752    0.01460     6.19131
      H   62    0.21918      0.00000     0.77816    0.00267     0.78082
      C   63   -0.17952      1.99921     4.16565    0.01466     6.17952
      H   64    0.22325      0.00000     0.77553    0.00122     0.77675
      H   65    0.22166      0.00000     0.77711    0.00123     0.77834
      H   66    0.22365      0.00000     0.77519    0.00117     0.77635
      C   67   -0.37695      1.99897     4.35028    0.02769     6.37695
      C   68   -0.17236      1.99909     4.15503    0.01824     6.17236
      C   69   -0.18637      1.99909     4.17028    0.01700     6.18637
      C   70   -0.19269      1.99920     4.17814    0.01536     6.19269
      H   71    0.22546      0.00000     0.77222    0.00232     0.77454
      C   72   -0.20257      1.99919     4.18837    0.01501     6.20257
      H   73    0.22229      0.00000     0.77524    0.00247     0.77771
      C   74   -0.16872      1.99920     4.15484    0.01468     6.16872
      H   75    0.22329      0.00000     0.77535    0.00136     0.77671
      H   76    0.22079      0.00000     0.77792    0.00129     0.77921
      H   77    0.22240      0.00000     0.77649    0.00111     0.77760
 =======================================================================
   * Total *    1.00000    125.94911   199.24417    0.80672   326.00000

 Normal termination of Gaussian 16 at Mon Jan  1 05:16:33 2001.
