 Gaussian 16, Revision B.01,
 Gaussian 16:  ES64L-G16RevB.01 20-Dec-2017

 ------------------------------------------
 # nmr=giao b3lyp/genecp pop=nbo scfcyc=200
 ------------------------------------------

 -------------
 Ligand 22 SPE
 -------------
 Symbolic Z-matrix:
 Charge =  1 Multiplicity = 1

                         Standard orientation:
 ---------------------------------------------------------------------
 Center     Atomic      Atomic             Coordinates (Angstroms)
 Number     Number       Type             X           Y           Z
 ---------------------------------------------------------------------
      1          7           0        0.472259   -0.236559    1.692310
      2          8           0        0.478899   -2.633769    2.385930
      3         15           0        1.492359   -1.631759    1.528370
      4         15           0        0.211419    0.188411    0.021270
      5          6           0       -0.392721   -0.374330    2.903330
      6          1           0        0.144829    0.077911    3.735990
      7          6           0       -0.556971   -1.922430    3.105090
      8          1           0       -0.437101   -2.171350    4.159610
      9          6           0       -1.977251   -2.268550    2.621560
     10          1           0       -1.943001   -2.631940    1.590710
     11          1           0       -2.433721   -3.054820    3.223590
     12          6           0       -2.705491   -0.949690    2.718490
     13          6           0       -1.811851    0.117250    2.844450
     14          6           0       -2.269161    1.420200    3.004880
     15          1           0       -1.575551    2.242020    3.139950
     16          6           0       -3.641081    1.654050    3.008400
     17          1           0       -4.017171    2.660460    3.142530
     18          6           0       -4.535601    0.593480    2.865760
     19          1           0       -5.601041    0.786170    2.884270
     20          6           0       -4.074671   -0.713650    2.725690
     21          1           0       -4.778781   -1.532760    2.641750
     22          6           0        3.026349   -1.504709    2.622650
     23          6           0        2.706069   -1.003629    4.037060
     24          1           0        1.986879   -1.643509    4.549240
     25          1           0        2.336199    0.022301    4.034020
     26          1           0        3.624719   -1.013069    4.629250
     27          6           0        3.611609   -2.928189    2.700120
     28          1           0        4.535899   -2.901169    3.282000
     29          1           0        3.860359   -3.331779    1.716870
     30          1           0        2.926089   -3.620279    3.190280
     31          6           0        4.013039   -0.548269    1.936060
     32          1           0        4.939219   -0.512429    2.514720
     33          1           0        3.620249    0.468501    1.877880
     34          1           0        4.263959   -0.871179    0.924650
     35         45           0        1.624619   -1.511219   -0.783480
     36          6           0        3.336539   -2.939819   -1.346690
     37          6           0        2.144899   -3.631549   -1.360870
     38          6           0        1.174909   -1.430609   -3.043410
     39          6           0        2.256749   -0.622809   -2.772880
     40          1           0        3.924329   -2.996889   -0.438380
     41          6           0        4.078379   -2.422559   -2.564030
     42          1           0        1.892329   -4.206529   -0.475470
     43          6           0        1.304549   -3.951219   -2.572370
     44          6           0        1.235239   -2.827839   -3.631190
     45          1           0        0.202759   -0.951829   -3.083550
     46          1           0        2.064209    0.437501   -2.642460
     47          6           0        3.714539   -0.970349   -2.939040
     48          1           0        3.907819   -3.089149   -3.408710
     49          1           0        5.149309   -2.466429   -2.360060
     50          1           0        1.673159   -4.873799   -3.037620
     51          1           0        0.294919   -4.180969   -2.225350
     52          1           0        0.342869   -2.984229   -4.239180
     53          1           0        2.079299   -2.899559   -4.316270
     54          1           0        4.022229   -0.766129   -3.972090
     55          1           0        4.291979   -0.283279   -2.317050
     56          6           0        0.589699    1.982191   -0.110740
     57          6           0        0.413299    2.635171   -1.336830
     58          6           0        1.143119    2.680541    0.960960
     59          6           0        0.773559    3.966411   -1.479720
     60          1           0       -0.020221    2.116131   -2.183120
     61          6           0        1.501119    4.017411    0.820380
     62          1           0        1.295699    2.181701    1.908160
     63          6           0        1.316759    4.659111   -0.398390
     64          1           0        0.625499    4.468151   -2.427150
     65          1           0        1.918999    4.557131    1.659300
     66          6           0       -1.548971    0.026610   -0.505690
     67          6           0       -2.446531    1.095800   -0.495850
     68          6           0       -1.974561   -1.218620   -0.982360
     69          6           0       -3.748021    0.922850   -0.949900
     70          1           0       -2.142211    2.066790   -0.131760
     71          6           0       -3.276151   -1.395920   -1.426850
     72          1           0       -1.278151   -2.048050   -1.012130
     73          6           0       -4.163031   -0.321910   -1.410680
     74          1           0       -4.439611    1.753950   -0.933940
     75          1           0       -3.600581   -2.363430   -1.787260
     76          6           0        1.738669    6.099041   -0.583960
     77          6           0       -5.565541   -0.516620   -1.940840
     78          9           0       -6.080801   -1.698930   -1.544470
     79          9           0       -5.581271   -0.510540   -3.291420
     80          9           0       -6.401711    0.451330   -1.524530
     81          9           0        1.918689    6.727471    0.591780
     82          9           0        2.901949    6.179911   -1.266740
     83          9           0        0.820139    6.794751   -1.283530
 ---------------------------------------------------------------------

 SCF Done:  E(RB3LYP) =  -2879.01607825     A.U. after   16 cycles

      1  N    Isotropic =   128.5010   Anisotropy =   104.4638

      2  O    Isotropic =   215.9737   Anisotropy =    69.3167

      3  P    Isotropic =   111.2245   Anisotropy =   120.9144

      4  P    Isotropic =   231.5532   Anisotropy =    79.0514

      5  C    Isotropic =   106.3232   Anisotropy =    28.6076

      6  H    Isotropic =    26.5925   Anisotropy =     6.5730

      7  C    Isotropic =    88.1215   Anisotropy =    75.4592

      8  H    Isotropic =    26.4036   Anisotropy =     5.6831

      9  C    Isotropic =   141.8294   Anisotropy =    42.5195

     10  H    Isotropic =    29.2287   Anisotropy =     3.1548

     11  H    Isotropic =    28.6336   Anisotropy =     9.5196

     12  C    Isotropic =    35.1862   Anisotropy =   166.3849

     13  C    Isotropic =    45.8126   Anisotropy =   155.8120

     14  C    Isotropic =    52.3272   Anisotropy =   180.9145

     15  H    Isotropic =    24.7092   Anisotropy =     8.1236

     16  C    Isotropic =    50.5547   Anisotropy =   190.6620

     17  H    Isotropic =    24.6581   Anisotropy =     5.4898

     18  C    Isotropic =    45.7679   Anisotropy =   198.8591

     19  H    Isotropic =    24.6293   Anisotropy =     2.8501

     20  C    Isotropic =    53.1014   Anisotropy =   182.6570

     21  H    Isotropic =    25.1668   Anisotropy =     6.0840

     22  C    Isotropic =   129.2576   Anisotropy =    41.5989

     23  C    Isotropic =   157.8359   Anisotropy =    40.0401

     24  H    Isotropic =    30.5554   Anisotropy =     6.2215

     25  H    Isotropic =    30.5527   Anisotropy =     6.5622

     26  H    Isotropic =    30.6469   Anisotropy =    11.2009

     27  C    Isotropic =   160.9329   Anisotropy =    38.1159

     28  H    Isotropic =    30.8911   Anisotropy =    10.9921

     29  H    Isotropic =    31.1611   Anisotropy =     6.8341

     30  H    Isotropic =    30.4865   Anisotropy =     8.3221

     31  C    Isotropic =   159.4647   Anisotropy =    33.2069

     32  H    Isotropic =    30.7181   Anisotropy =    10.2114

     33  H    Isotropic =    30.6717   Anisotropy =     7.5152

     34  H    Isotropic =    30.3044   Anisotropy =     7.0119

     35  Rh   Isotropic =  -301.9277   Anisotropy =   343.8424

     36  C    Isotropic =    77.5567   Anisotropy =   124.4491

     37  C    Isotropic =    75.6807   Anisotropy =   121.0636

     38  C    Isotropic =    75.3967   Anisotropy =   126.6180

     39  C    Isotropic =    71.7579   Anisotropy =   124.0070

     40  H    Isotropic =    26.6875   Anisotropy =     6.2064

     41  C    Isotropic =   153.9096   Anisotropy =    25.1690

     42  H    Isotropic =    25.7592   Anisotropy =     5.6110

     43  C    Isotropic =   146.9452   Anisotropy =    29.7728

     44  C    Isotropic =   154.6899   Anisotropy =    24.4519

     45  H    Isotropic =    27.2341   Anisotropy =     4.3351

     46  H    Isotropic =    26.8421   Anisotropy =     4.9199

     47  C    Isotropic =   148.4141   Anisotropy =    28.9332

     48  H    Isotropic =    29.7254   Anisotropy =     9.7347

     49  H    Isotropic =    29.8393   Anisotropy =    11.6003

     50  H    Isotropic =    28.9424   Anisotropy =    12.8293

     51  H    Isotropic =    28.9198   Anisotropy =     7.6427

     52  H    Isotropic =    29.8990   Anisotropy =    10.9873

     53  H    Isotropic =    29.7647   Anisotropy =     9.8538

     54  H    Isotropic =    29.2662   Anisotropy =    12.6264

     55  H    Isotropic =    29.3773   Anisotropy =     6.9076

     56  C    Isotropic =    40.6752   Anisotropy =   170.6526

     57  C    Isotropic =    49.8561   Anisotropy =   189.6108

     58  C    Isotropic =    47.8273   Anisotropy =   195.3079

     59  C    Isotropic =    50.7404   Anisotropy =   190.6621

     60  H    Isotropic =    25.0551   Anisotropy =    10.9715

     61  C    Isotropic =    52.0356   Anisotropy =   189.2883

     62  H    Isotropic =    23.4484   Anisotropy =    11.2751

     63  C    Isotropic =    39.4950   Anisotropy =   170.6323

     64  H    Isotropic =    24.0200   Anisotropy =     8.6670

     65  H    Isotropic =    23.6367   Anisotropy =     9.6751

     66  C    Isotropic =    42.6570   Anisotropy =   176.1723

     67  C    Isotropic =    45.0380   Anisotropy =   200.0966

     68  C    Isotropic =    42.6901   Anisotropy =   184.5565

     69  C    Isotropic =    53.0935   Anisotropy =   190.5876

     70  H    Isotropic =    25.5458   Anisotropy =     9.7109

     71  C    Isotropic =    52.5479   Anisotropy =   187.1268

     72  H    Isotropic =    22.8683   Anisotropy =     9.0709

     73  C    Isotropic =    39.5616   Anisotropy =   173.6052

     74  H    Isotropic =    24.6852   Anisotropy =     8.4029

     75  H    Isotropic =    24.0290   Anisotropy =     9.3661

     76  C    Isotropic =    49.5143   Anisotropy =    12.5441

     77  C    Isotropic =    49.6477   Anisotropy =    12.6868

     78  F    Isotropic =   236.8173   Anisotropy =   139.9987

     79  F    Isotropic =   218.8534   Anisotropy =   144.0755

     80  F    Isotropic =   249.7636   Anisotropy =   124.0595

     81  F    Isotropic =   250.4199   Anisotropy =   124.3768

     82  F    Isotropic =   218.8342   Anisotropy =   143.7351

     83  F    Isotropic =   235.1885   Anisotropy =   140.4690

 The electronic state is 1-A.
 Alpha  occ. eigenvalues --  -77.28999 -77.27972 -24.80177 -24.80005 -24.79988
 Alpha  occ. eigenvalues --  -24.79745 -24.79694 -24.79501 -19.26363 -14.45890
 Alpha  occ. eigenvalues --  -10.51704 -10.51533 -10.35269 -10.34028 -10.31705
 Alpha  occ. eigenvalues --  -10.31695 -10.31535 -10.31406 -10.31275 -10.30624
 Alpha  occ. eigenvalues --  -10.30608 -10.30536 -10.30487 -10.30437 -10.30382
 Alpha  occ. eigenvalues --  -10.30360 -10.30276 -10.30210 -10.30147 -10.30134
 Alpha  occ. eigenvalues --  -10.29979 -10.28829 -10.28742 -10.28716 -10.28686
 Alpha  occ. eigenvalues --  -10.28602 -10.28483 -10.28344 -10.28034 -10.27528
 Alpha  occ. eigenvalues --  -10.27518 -10.27458 -10.27444 -10.27404 -10.27390
 Alpha  occ. eigenvalues --   -6.74369  -6.73572  -4.90867  -4.90519  -4.90212
 Alpha  occ. eigenvalues --   -4.89977  -4.89743  -4.89471  -3.33300  -2.10317
 Alpha  occ. eigenvalues --   -2.09559  -2.06641  -1.40296  -1.40105  -1.31627
 Alpha  occ. eigenvalues --   -1.31443  -1.31191  -1.30984  -1.16364  -1.03505
 Alpha  occ. eigenvalues --   -0.99408  -0.99057  -0.97969  -0.95828  -0.93456
 Alpha  occ. eigenvalues --   -0.91946  -0.90960  -0.90626  -0.89756  -0.89313
 Alpha  occ. eigenvalues --   -0.87792  -0.87636  -0.86719  -0.83173  -0.82575
 Alpha  occ. eigenvalues --   -0.81684  -0.80809  -0.80255  -0.80176  -0.80112
 Alpha  occ. eigenvalues --   -0.79177  -0.76823  -0.74474  -0.74130  -0.73730
 Alpha  occ. eigenvalues --   -0.73006  -0.71888  -0.71501  -0.71385  -0.69316
 Alpha  occ. eigenvalues --   -0.68142  -0.68030  -0.68000  -0.67888  -0.67703
 Alpha  occ. eigenvalues --   -0.67675  -0.67613  -0.67194  -0.65742  -0.63875
 Alpha  occ. eigenvalues --   -0.62715  -0.62314  -0.61378  -0.60624  -0.59263
 Alpha  occ. eigenvalues --   -0.59152  -0.58818  -0.58487  -0.58238  -0.57901
 Alpha  occ. eigenvalues --   -0.57527  -0.57435  -0.57371  -0.56147  -0.55902
 Alpha  occ. eigenvalues --   -0.55650  -0.55488  -0.55449  -0.55432  -0.55224
 Alpha  occ. eigenvalues --   -0.55147  -0.55058  -0.54859  -0.54609  -0.54076
 Alpha  occ. eigenvalues --   -0.53895  -0.53679  -0.52845  -0.52351  -0.52288
 Alpha  occ. eigenvalues --   -0.51725  -0.51582  -0.51499  -0.51353  -0.50803
 Alpha  occ. eigenvalues --   -0.50601  -0.50215  -0.49979  -0.49867  -0.49791
 Alpha  occ. eigenvalues --   -0.49660  -0.49511  -0.49299  -0.48939  -0.48460
 Alpha  occ. eigenvalues --   -0.48250  -0.47988  -0.47501  -0.47372  -0.47241
 Alpha  occ. eigenvalues --   -0.47208  -0.46785  -0.46159  -0.46044  -0.45518
 Alpha  occ. eigenvalues --   -0.45332  -0.44937  -0.44792  -0.44393  -0.44323
 Alpha  occ. eigenvalues --   -0.43891  -0.43353  -0.40803  -0.40205  -0.39668
 Alpha  occ. eigenvalues --   -0.39109  -0.38437  -0.37959  -0.37933  -0.37217
 Alpha  occ. eigenvalues --   -0.36349  -0.36080  -0.35653  -0.35387  -0.34940
 Alpha  occ. eigenvalues --   -0.32348
 Alpha virt. eigenvalues --   -0.17725  -0.17335  -0.16119  -0.14446  -0.14275
 Alpha virt. eigenvalues --   -0.13084  -0.12286  -0.11598  -0.10888  -0.09655
 Alpha virt. eigenvalues --   -0.08864  -0.07903  -0.07622  -0.07000  -0.06421

 Mulliken charges:
               1
     1  N   -0.396813
     2  O   -0.326124
     3  P    0.626357
     4  P    0.434671
     5  C   -0.090504
     6  H    0.195559
     7  C   -0.040012
     8  H    0.190509
     9  C   -0.319004
    10  H    0.169543
    11  H    0.172000
    12  C    0.061355
    13  C   -0.092207
    14  C   -0.129548
    15  H    0.118831
    16  C   -0.097546
    17  H    0.131640
    18  C   -0.077182
    19  H    0.133108
    20  C   -0.104203
    21  H    0.129081
    22  C   -0.032086
    23  C   -0.399497
    24  H    0.153123
    25  H    0.132717
    26  H    0.160422
    27  C   -0.412249
    28  H    0.156572
    29  H    0.133573
    30  H    0.165683
    31  C   -0.381492
    32  H    0.160172
    33  H    0.137582
    34  H    0.137583
    35  Rh  -0.664220
    36  C   -0.012911
    37  C   -0.094195
    38  C   -0.030051
    39  C   -0.092810
    40  H    0.176442
    41  C   -0.355864
    42  H    0.191809
    43  C   -0.238575
    44  C   -0.363775
    45  H    0.202349
    46  H    0.197327
    47  C   -0.222222
    48  H    0.170321
    49  H    0.175187
    50  H    0.180703
    51  H    0.138917
    52  H    0.175352
    53  H    0.172733
    54  H    0.178591
    55  H    0.138933
    56  C   -0.113026
    57  C   -0.120178
    58  C   -0.073760
    59  C   -0.048755
    60  H    0.165287
    61  C   -0.057987
    62  H    0.166269
    63  C   -0.136200
    64  H    0.159353
    65  H    0.159736
    66  C   -0.232255
    67  C   -0.010767
    68  C   -0.096456
    69  C   -0.046124
    70  H    0.155834
    71  C   -0.052797
    72  H    0.204235
    73  C   -0.134830
    74  H    0.159316
    75  H    0.152164
    76  C    0.448283
    77  C    0.450164
    78  F   -0.157874
    79  F   -0.149043
    80  F   -0.155680
    81  F   -0.155859
    82  F   -0.150339
    83  F   -0.154362
 Sum of Mulliken charges =   1.00000

 Dipole moment (field-independent basis, Debye):
    X=              4.6598    Y=             -5.2368    Z=              1.8535  Tot=              7.2507
 Quadrupole moment (field-independent basis, Debye-Ang):
   XX=           -261.1846   YY=           -276.2365   ZZ=           -254.2296
   XY=            -19.9037   XZ=            -10.9314   YZ=              8.4110

 Summary of Natural Population Analysis:

                                       Natural Population
                Natural  -----------------------------------------------
    Atom  No    Charge         Core      Valence    Rydberg      Total
 -----------------------------------------------------------------------
      N    1   -1.01955      1.99959     5.99476    0.02521     8.01955
      O    2   -0.75948      1.99982     6.74432    0.01533     8.75948
      P    3    1.61714      9.99593     3.31368    0.07326    13.38286
      P    4    1.33329      9.99603     3.60794    0.06274    13.66671
      C    5   -0.09230      1.99921     4.06889    0.02420     6.09230
      H    6    0.21661      0.00000     0.78068    0.00271     0.78339
      C    7    0.09941      1.99923     3.88241    0.01895     5.90059
      H    8    0.20304      0.00000     0.79490    0.00206     0.79696
      C    9   -0.44081      1.99933     4.43006    0.01142     6.44081
      H   10    0.22567      0.00000     0.77213    0.00220     0.77433
      H   11    0.23314      0.00000     0.76551    0.00136     0.76686
      C   12    0.00510      1.99904     3.97936    0.01651     5.99490
      C   13   -0.06277      1.99899     4.04495    0.01883     6.06277
      C   14   -0.19079      1.99908     4.17713    0.01458     6.19079
      H   15    0.21341      0.00000     0.78456    0.00203     0.78659
      C   16   -0.19961      1.99921     4.18573    0.01467     6.19961
      H   17    0.22133      0.00000     0.77747    0.00120     0.77867
      C   18   -0.17687      1.99922     4.16311    0.01453     6.17687
      H   19    0.22280      0.00000     0.77607    0.00114     0.77720
      C   20   -0.19420      1.99909     4.18053    0.01458     6.19420
      H   21    0.22140      0.00000     0.77709    0.00151     0.77860
      C   22   -0.32490      1.99943     4.30356    0.02191     6.32490
      C   23   -0.60327      1.99936     4.59543    0.00848     6.60327
      H   24    0.21366      0.00000     0.78482    0.00152     0.78634
      H   25    0.20613      0.00000     0.79232    0.00155     0.79387
      H   26    0.22735      0.00000     0.77091    0.00174     0.77265
      C   27   -0.60521      1.99936     4.59799    0.00786     6.60521
      H   28    0.22619      0.00000     0.77207    0.00174     0.77381
      H   29    0.20493      0.00000     0.79361    0.00146     0.79507
      H   30    0.22569      0.00000     0.77290    0.00142     0.77431
      C   31   -0.59988      1.99935     4.59319    0.00733     6.59988
      H   32    0.22534      0.00000     0.77293    0.00174     0.77466
      H   33    0.21260      0.00000     0.78586    0.00154     0.78740
      H   34    0.21623      0.00000     0.78222    0.00155     0.78377
     Rh   35   -0.44747     35.98461     9.43222    0.03065    45.44747
      C   36   -0.17204      1.99906     4.15265    0.02032     6.17204
      C   37   -0.15461      1.99907     4.13509    0.02045     6.15461
      C   38   -0.17097      1.99907     4.15190    0.02000     6.17097
      C   39   -0.15464      1.99908     4.13538    0.02018     6.15464
      H   40    0.22264      0.00000     0.77516    0.00220     0.77736
      C   41   -0.42548      1.99936     4.41416    0.01196     6.42548
      H   42    0.23300      0.00000     0.76521    0.00179     0.76700
      C   43   -0.41915      1.99935     4.40712    0.01268     6.41915
      C   44   -0.42644      1.99936     4.41512    0.01196     6.42644
      H   45    0.22704      0.00000     0.77101    0.00194     0.77296
      H   46    0.22850      0.00000     0.76923    0.00227     0.77150
      C   47   -0.42057      1.99935     4.40837    0.01284     6.42057
      H   48    0.21684      0.00000     0.78115    0.00201     0.78316
      H   49    0.23171      0.00000     0.76679    0.00150     0.76829
      H   50    0.23859      0.00000     0.75954    0.00187     0.76141
      H   51    0.21576      0.00000     0.78269    0.00155     0.78424
      H   52    0.23144      0.00000     0.76709    0.00147     0.76856
      H   53    0.21800      0.00000     0.77999    0.00201     0.78200
      H   54    0.23821      0.00000     0.75990    0.00188     0.76179
      H   55    0.21996      0.00000     0.77854    0.00151     0.78004
      C   56   -0.35106      1.99899     4.32687    0.02519     6.35106
      C   57   -0.19505      1.99910     4.18096    0.01499     6.19505
      C   58   -0.18715      1.99909     4.17210    0.01596     6.18715
      C   59   -0.16145      1.99912     4.14844    0.01388     6.16145
      H   60    0.22145      0.00000     0.77675    0.00180     0.77855
      C   61   -0.16464      1.99912     4.15160    0.01392     6.16464
      H   62    0.22461      0.00000     0.77276    0.00264     0.77539
      C   63   -0.11287      1.99897     4.09730    0.01661     6.11287
      H   64    0.23925      0.00000     0.75936    0.00139     0.76075
      H   65    0.24028      0.00000     0.75836    0.00136     0.75972
      C   66   -0.35633      1.99897     4.32996    0.02740     6.35633
      C   67   -0.16916      1.99910     4.15159    0.01847     6.16916
      C   68   -0.18347      1.99910     4.16730    0.01707     6.18347
      C   69   -0.16607      1.99911     4.15239    0.01457     6.16607
      H   70    0.22920      0.00000     0.76848    0.00232     0.77080
      C   71   -0.17243      1.99910     4.15924    0.01409     6.17243
      H   72    0.22769      0.00000     0.76988    0.00243     0.77231
      C   73   -0.10324      1.99896     4.08767    0.01661     6.10324
      H   74    0.24190      0.00000     0.75663    0.00147     0.75810
      H   75    0.23663      0.00000     0.76193    0.00144     0.76337
      C   76    0.93167      1.99918     3.01818    0.05097     5.06833
      C   77    0.93127      1.99917     3.01892    0.05064     5.06873
      F   78   -0.30740      1.99993     7.30002    0.00745     9.30740
      F   79   -0.30483      1.99993     7.29735    0.00755     9.30483
      F   80   -0.30449      1.99992     7.29711    0.00746     9.30449
      F   81   -0.30473      1.99992     7.29737    0.00743     9.30473
      F   82   -0.30568      1.99993     7.29818    0.00757     9.30568
      F   83   -0.30501      1.99993     7.29758    0.00751     9.30501
 =======================================================================
   * Total *    1.00000    141.94623   247.10167    0.95211   390.00000

 Normal termination of Gaussian 16 at Wed Nov  6 00:20:40 2024.
