 Gaussian 16, Revision B.01,
 Gaussian 16:  ES64L-G16RevB.01 20-Dec-2017

 ------------------------------------------
 # nmr=giao b3lyp/genecp pop=nbo scfcyc=200
 ------------------------------------------

 -------------
 Ligand 24 SPE
 -------------
 Symbolic Z-matrix:
 Charge =  1 Multiplicity = 1

                         Standard orientation:
 ---------------------------------------------------------------------
 Center     Atomic      Atomic             Coordinates (Angstroms)
 Number     Number       Type             X           Y           Z
 ---------------------------------------------------------------------
      1          7           0        0.894381    0.969851    0.566071
      2          7           0        1.303940   -1.712209   -0.430449
      3          7           0        0.763490   -1.266239    2.108611
      4          8           0        0.384741    2.468601   -1.360439
      5         15           0       -0.490829    1.768741   -0.137559
      6         15           0        0.352911   -0.661419    0.543731
      7          6           0        2.147181    1.706831    0.208511
      8          1           0        2.315151    2.448071    0.988121
      9          6           0        1.819311    2.380471   -1.170019
     10          1           0        2.199651    3.401961   -1.179689
     11          6           0        2.523731    1.525051   -2.237759
     12          1           0        1.829371    0.785331   -2.645889
     13          1           0        2.882431    2.127711   -3.072619
     14          6           0        3.634921    0.862331   -1.458959
     15          6           0        3.399091    0.927581   -0.083269
     16          6           0        4.320691    0.425701    0.828301
     17          1           0        4.149691    0.504941    1.895641
     18          6           0        5.482941   -0.168749    0.345921
     19          1           0        6.217761   -0.557550    1.039471
     20          6           0        5.716381   -0.245700   -1.026549
     21          1           0        6.630961   -0.698670   -1.388499
     22          6           0        4.797351    0.271131   -1.936479
     23          1           0        4.998481    0.225021   -2.999949
     24          6           0       -1.059469    3.235921    0.904161
     25          6           0        0.103961    4.119401    1.373471
     26          1           0        0.691871    4.505491    0.540211
     27          1           0        0.762991    3.595541    2.066651
     28          1           0       -0.304189    4.981491    1.907181
     29          6           0       -1.994199    4.055211   -0.007899
     30          1           0       -2.398009    4.895371    0.561781
     31          1           0       -2.843189    3.471241   -0.368599
     32          1           0       -1.464549    4.458621   -0.871599
     33          6           0       -1.828059    2.685841    2.114891
     34          1           0       -2.236799    3.521181    2.688541
     35          1           0       -1.182989    2.111401    2.782041
     36          1           0       -2.660639    2.046021    1.818581
     37          6           0        0.993200   -1.985379   -1.769879
     38          1           0        0.115960   -1.556309   -2.222389
     39          6           0        1.947580   -2.818379   -2.268799
     40          1           0        1.974870   -3.214259   -3.271089
     41          6           0        2.886290   -3.078359   -1.222779
     42          1           0        3.761290   -3.704719   -1.285359
     43          6           0        2.484660   -2.394009   -0.116899
     44          1           0        2.919500   -2.322049    0.862551
     45          6           0        0.575120   -2.593019    2.507961
     46          1           0        0.449710   -3.378029    1.782281
     47          6           0        0.650370   -2.644179    3.869441
     48          1           0        0.578950   -3.537859    4.467931
     49          6           0        0.867350   -1.315839    4.342971
     50          1           0        0.991801   -1.011199    5.369421
     51          6           0        0.913411   -0.489259    3.258341
     52          1           0        1.056171    0.573331    3.185691
     53         45           0       -1.747809   -0.182949   -0.285069
     54          6           0       -3.919449    0.521301   -0.713409
     55          6           0       -3.279089    0.285051   -1.906449
     56          6           0       -2.543620   -2.304869   -0.712139
     57          6           0       -2.920890   -1.932219    0.559011
     58          1           0       -3.915289    1.542111   -0.349899
     59          6           0       -4.905419   -0.405899   -0.031049
     60          1           0       -2.839879    1.138731   -2.413259
     61          6           0       -3.365149   -0.965459   -2.745319
     62          6           0       -3.427160   -2.286159   -1.945519
     63          1           0       -1.637850   -2.894439   -0.800279
     64          1           0       -2.299180   -2.276169    1.380411
     65          6           0       -4.252350   -1.367759    0.984661
     66          1           0       -5.463609   -0.964459   -0.781359
     67          1           0       -5.640499    0.202961    0.497591
     68          1           0       -4.235359   -0.895989   -3.409719
     69          1           0       -2.494439   -0.984279   -3.403969
     70          1           0       -3.113660   -3.097999   -2.603449
     71          1           0       -4.454860   -2.510839   -1.662479
     72          1           0       -4.940740   -2.192489    1.207251
     73          1           0       -4.103389   -0.844419    1.931431
 ---------------------------------------------------------------------

 SCF Done:  E(RB3LYP) =  -2160.49858875     A.U. after   16 cycles

      1  N    Isotropic =    99.0963   Anisotropy =    77.4307

      2  N    Isotropic =    69.3846   Anisotropy =   113.1507

      3  N    Isotropic =    69.3795   Anisotropy =   107.9892

      4  O    Isotropic =   217.6410   Anisotropy =    72.1789

      5  P    Isotropic =   109.3531   Anisotropy =   118.8462

      6  P    Isotropic =   215.2904   Anisotropy =   139.1823

      7  C    Isotropic =   106.0418   Anisotropy =    28.6089

      8  H    Isotropic =    26.7281   Anisotropy =     6.1789

      9  C    Isotropic =    86.7599   Anisotropy =    77.4723

     10  H    Isotropic =    26.3999   Anisotropy =     5.4233

     11  C    Isotropic =   142.1395   Anisotropy =    42.4158

     12  H    Isotropic =    28.9551   Anisotropy =     2.6129

     13  H    Isotropic =    28.6352   Anisotropy =     9.4202

     14  C    Isotropic =    36.0261   Anisotropy =   164.1447

     15  C    Isotropic =    47.2274   Anisotropy =   153.5248

     16  C    Isotropic =    51.9590   Anisotropy =   181.1487

     17  H    Isotropic =    24.5178   Anisotropy =     8.6004

     18  C    Isotropic =    49.8850   Anisotropy =   190.4550

     19  H    Isotropic =    24.4707   Anisotropy =     5.6124

     20  C    Isotropic =    45.9133   Anisotropy =   196.1977

     21  H    Isotropic =    24.4214   Anisotropy =     3.1558

     22  C    Isotropic =    52.3344   Anisotropy =   180.8963

     23  H    Isotropic =    24.8032   Anisotropy =     6.7397

     24  C    Isotropic =   129.2644   Anisotropy =    41.1358

     25  C    Isotropic =   157.8755   Anisotropy =    40.0344

     26  H    Isotropic =    30.5462   Anisotropy =     6.2629

     27  H    Isotropic =    30.6071   Anisotropy =     6.6265

     28  H    Isotropic =    30.6363   Anisotropy =    11.0863

     29  C    Isotropic =   160.8189   Anisotropy =    37.9639

     30  H    Isotropic =    30.8654   Anisotropy =    10.8074

     31  H    Isotropic =    31.1836   Anisotropy =     6.8805

     32  H    Isotropic =    30.4904   Anisotropy =     8.3031

     33  C    Isotropic =   159.4241   Anisotropy =    33.1211

     34  H    Isotropic =    30.6651   Anisotropy =    10.1918

     35  H    Isotropic =    30.5037   Anisotropy =     7.3857

     36  H    Isotropic =    30.3108   Anisotropy =     7.2871

     37  C    Isotropic =    56.3621   Anisotropy =   111.4305

     38  H    Isotropic =    24.2225   Anisotropy =     6.8408

     39  C    Isotropic =    63.9527   Anisotropy =   146.8987

     40  H    Isotropic =    25.3787   Anisotropy =     4.4939

     41  C    Isotropic =    64.2072   Anisotropy =   148.3219

     42  H    Isotropic =    25.9668   Anisotropy =     4.2597

     43  C    Isotropic =    54.8337   Anisotropy =   127.9930

     44  H    Isotropic =    26.0433   Anisotropy =     6.3015

     45  C    Isotropic =    57.6023   Anisotropy =   119.2142

     46  H    Isotropic =    25.6427   Anisotropy =     8.2709

     47  C    Isotropic =    60.4219   Anisotropy =   146.9386

     48  H    Isotropic =    25.0777   Anisotropy =     4.3421

     49  C    Isotropic =    62.5685   Anisotropy =   149.6314

     50  H    Isotropic =    24.9745   Anisotropy =     4.6478

     51  C    Isotropic =    56.0059   Anisotropy =   116.9097

     52  H    Isotropic =    24.4317   Anisotropy =     7.6954

     53  Rh   Isotropic =  -299.2613   Anisotropy =   335.5239

     54  C    Isotropic =    73.1292   Anisotropy =   130.8233

     55  C    Isotropic =    71.5218   Anisotropy =   127.3963

     56  C    Isotropic =    74.6594   Anisotropy =   128.6489

     57  C    Isotropic =    71.6353   Anisotropy =   126.0390

     58  H    Isotropic =    26.5756   Anisotropy =     5.9325

     59  C    Isotropic =   154.1996   Anisotropy =    24.6337

     60  H    Isotropic =    25.6452   Anisotropy =     5.6523

     61  C    Isotropic =   147.5245   Anisotropy =    29.3170

     62  C    Isotropic =   154.7392   Anisotropy =    24.1993

     63  H    Isotropic =    27.0218   Anisotropy =     4.8023

     64  H    Isotropic =    26.7015   Anisotropy =     4.5400

     65  C    Isotropic =   148.1304   Anisotropy =    29.3020

     66  H    Isotropic =    29.7088   Anisotropy =     9.5511

     67  H    Isotropic =    29.8654   Anisotropy =    11.4630

     68  H    Isotropic =    28.9944   Anisotropy =    12.7256

     69  H    Isotropic =    28.9881   Anisotropy =     7.6507

     70  H    Isotropic =    29.8480   Anisotropy =    11.2046

     71  H    Isotropic =    29.7388   Anisotropy =     9.7059

     72  H    Isotropic =    29.2160   Anisotropy =    12.5552

     73  H    Isotropic =    29.3480   Anisotropy =     6.9923

 The electronic state is 1-A.
 Alpha  occ. eigenvalues --  -77.32330 -77.29291 -19.26436 -14.47727 -14.47726
 Alpha  occ. eigenvalues --  -14.46212 -10.35186 -10.34014 -10.31620 -10.30768
 Alpha  occ. eigenvalues --  -10.30587 -10.30536 -10.30350 -10.30031 -10.29977
 Alpha  occ. eigenvalues --  -10.29974 -10.29630 -10.28886 -10.28737 -10.28601
 Alpha  occ. eigenvalues --  -10.28571 -10.28204 -10.28132 -10.27925 -10.27503
 Alpha  occ. eigenvalues --  -10.27478 -10.27419 -10.27402 -10.26872 -10.26817
 Alpha  occ. eigenvalues --  -10.26719 -10.26315 -10.26313 -10.26248 -10.26011
 Alpha  occ. eigenvalues --   -6.77355  -6.74649  -4.93728  -4.93674  -4.93230
 Alpha  occ. eigenvalues --   -4.91149  -4.90802  -4.90487  -3.33618  -2.10683
 Alpha  occ. eigenvalues --   -2.09880  -2.06914  -1.16477  -1.10183  -1.07701
 Alpha  occ. eigenvalues --   -1.03460  -0.97659  -0.95892  -0.93459  -0.91762
 Alpha  occ. eigenvalues --   -0.90723  -0.90473  -0.89365  -0.87497  -0.86197
 Alpha  occ. eigenvalues --   -0.83413  -0.82910  -0.82612  -0.81762  -0.81139
 Alpha  occ. eigenvalues --   -0.80278  -0.80208  -0.79243  -0.77144  -0.73585
 Alpha  occ. eigenvalues --   -0.71946  -0.71371  -0.70174  -0.68596  -0.68290
 Alpha  occ. eigenvalues --   -0.67781  -0.67228  -0.66810  -0.65768  -0.65723
 Alpha  occ. eigenvalues --   -0.64812  -0.63871  -0.63230  -0.62193  -0.61347
 Alpha  occ. eigenvalues --   -0.59173  -0.59058  -0.58597  -0.57968  -0.57515
 Alpha  occ. eigenvalues --   -0.56760  -0.55812  -0.55397  -0.54953  -0.54799
 Alpha  occ. eigenvalues --   -0.54739  -0.54104  -0.53932  -0.53599  -0.53341
 Alpha  occ. eigenvalues --   -0.53051  -0.52939  -0.52043  -0.51901  -0.51050
 Alpha  occ. eigenvalues --   -0.50787  -0.50707  -0.50065  -0.50030  -0.49744
 Alpha  occ. eigenvalues --   -0.49548  -0.49432  -0.49212  -0.48548  -0.48433
 Alpha  occ. eigenvalues --   -0.48380  -0.48214  -0.47854  -0.47313  -0.46920
 Alpha  occ. eigenvalues --   -0.45905  -0.45588  -0.45374  -0.45213  -0.44830
 Alpha  occ. eigenvalues --   -0.44392  -0.44271  -0.43786  -0.43295  -0.40865
 Alpha  occ. eigenvalues --   -0.40650  -0.39498  -0.38461  -0.37030  -0.36892
 Alpha  occ. eigenvalues --   -0.36058  -0.35974  -0.35391  -0.34814  -0.34351
 Alpha  occ. eigenvalues --   -0.33077  -0.32532  -0.32298
 Alpha virt. eigenvalues --   -0.17773  -0.16248  -0.12677  -0.11802  -0.10974
 Alpha virt. eigenvalues --   -0.10537  -0.10103  -0.09311  -0.08215  -0.07554
 Alpha virt. eigenvalues --   -0.07126  -0.06934  -0.05954  -0.05452  -0.05235

 Mulliken charges:
               1
     1  N   -0.372099
     2  N   -0.222927
     3  N   -0.190243
     4  O   -0.323073
     5  P    0.615862
     6  P    0.705983
     7  C   -0.116534
     8  H    0.193953
     9  C   -0.043834
    10  H    0.193338
    11  C   -0.320447
    12  H    0.174279
    13  H    0.169720
    14  C    0.062000
    15  C   -0.056535
    16  C   -0.153337
    17  H    0.120428
    18  C   -0.081396
    19  H    0.129706
    20  C   -0.091301
    21  H    0.129666
    22  C   -0.078335
    23  H    0.124654
    24  C   -0.031915
    25  C   -0.401025
    26  H    0.153962
    27  H    0.135919
    28  H    0.160382
    29  C   -0.411866
    30  H    0.157190
    31  H    0.131929
    32  H    0.167094
    33  C   -0.380618
    34  H    0.160140
    35  H    0.137565
    36  H    0.136530
    37  C   -0.189438
    38  H    0.175271
    39  C   -0.092357
    40  H    0.145308
    41  C   -0.128343
    42  H    0.145987
    43  C   -0.076169
    44  H    0.172093
    45  C   -0.189488
    46  H    0.178654
    47  C   -0.090884
    48  H    0.149953
    49  C   -0.113518
    50  H    0.150402
    51  C   -0.119947
    52  H    0.139615
    53  Rh  -0.660102
    54  C   -0.009626
    55  C   -0.093974
    56  C   -0.038727
    57  C   -0.096500
    58  H    0.176225
    59  C   -0.355289
    60  H    0.187419
    61  C   -0.233000
    62  C   -0.363384
    63  H    0.218817
    64  H    0.208707
    65  C   -0.224364
    66  H    0.170386
    67  H    0.175892
    68  H    0.182745
    69  H    0.142132
    70  H    0.177233
    71  H    0.171078
    72  H    0.179881
    73  H    0.142502
 Sum of Mulliken charges =   1.00000

 Dipole moment (field-independent basis, Debye):
    X=             -2.4549    Y=              1.0456    Z=             -0.2378  Tot=              2.6789
 Quadrupole moment (field-independent basis, Debye-Ang):
   XX=           -183.3508   YY=           -209.0887   ZZ=           -215.2096
   XY=              0.4179   XZ=              0.7417   YZ=              5.8693

 Summary of Natural Population Analysis:

                                       Natural Population
                Natural  -----------------------------------------------
    Atom  No    Charge         Core      Valence    Rydberg      Total
 -----------------------------------------------------------------------
      N    1   -1.03572      1.99958     6.00922    0.02691     8.03572
      N    2   -0.67332      1.99946     5.64700    0.02685     7.67332
      N    3   -0.65839      1.99946     5.63263    0.02630     7.65839
      O    4   -0.75946      1.99981     6.74448    0.01516     8.75946
      P    5    1.60772      9.99597     3.32274    0.07358    13.39228
      P    6    1.72291      9.99558     3.20290    0.07861    13.27709
      C    7   -0.09055      1.99920     4.06620    0.02515     6.09055
      H    8    0.21790      0.00000     0.77938    0.00272     0.78210
      C    9    0.10303      1.99923     3.88084    0.01690     5.89697
      H   10    0.20312      0.00000     0.79484    0.00204     0.79688
      C   11   -0.44161      1.99933     4.43095    0.01133     6.44161
      H   12    0.22842      0.00000     0.76875    0.00283     0.77158
      H   13    0.23161      0.00000     0.76697    0.00142     0.76839
      C   14    0.00594      1.99904     3.97809    0.01693     5.99406
      C   15   -0.06848      1.99899     4.05012    0.01937     6.06848
      C   16   -0.18758      1.99908     4.17378    0.01472     6.18758
      H   17    0.21519      0.00000     0.78255    0.00226     0.78481
      C   18   -0.19764      1.99922     4.18373    0.01470     6.19764
      H   19    0.22064      0.00000     0.77817    0.00120     0.77936
      C   20   -0.17519      1.99922     4.16142    0.01455     6.17519
      H   21    0.22029      0.00000     0.77857    0.00114     0.77971
      C   22   -0.18948      1.99909     4.17593    0.01446     6.18948
      H   23    0.21922      0.00000     0.77925    0.00152     0.78078
      C   24   -0.32532      1.99943     4.30395    0.02194     6.32532
      C   25   -0.60372      1.99936     4.59588    0.00847     6.60372
      H   26    0.21433      0.00000     0.78408    0.00159     0.78567
      H   27    0.20711      0.00000     0.79134    0.00155     0.79289
      H   28    0.22770      0.00000     0.77057    0.00173     0.77230
      C   29   -0.60588      1.99936     4.59862    0.00791     6.60588
      H   30    0.22703      0.00000     0.77123    0.00173     0.77297
      H   31    0.20471      0.00000     0.79384    0.00145     0.79529
      H   32    0.22612      0.00000     0.77245    0.00143     0.77388
      C   33   -0.60088      1.99935     4.59409    0.00744     6.60088
      H   34    0.22580      0.00000     0.77248    0.00172     0.77420
      H   35    0.21473      0.00000     0.78349    0.00178     0.78527
      H   36    0.21554      0.00000     0.78290    0.00157     0.78446
      C   37   -0.07315      1.99911     4.05553    0.01851     6.07315
      H   38    0.22309      0.00000     0.77456    0.00235     0.77691
      C   39   -0.25768      1.99914     4.24442    0.01412     6.25768
      H   40    0.23193      0.00000     0.76686    0.00121     0.76807
      C   41   -0.25739      1.99916     4.24387    0.01437     6.25739
      H   42    0.23379      0.00000     0.76477    0.00143     0.76621
      C   43   -0.05121      1.99911     4.03147    0.02063     6.05121
      H   44    0.23131      0.00000     0.76617    0.00252     0.76869
      C   45   -0.07695      1.99913     4.06024    0.01758     6.07695
      H   46    0.22609      0.00000     0.77232    0.00159     0.77391
      C   47   -0.25477      1.99916     4.24123    0.01438     6.25477
      H   48    0.23416      0.00000     0.76462    0.00122     0.76584
      C   49   -0.26054      1.99916     4.24700    0.01438     6.26054
      H   50    0.23339      0.00000     0.76539    0.00121     0.76661
      C   51   -0.06510      1.99912     4.04694    0.01905     6.06510
      H   52    0.21868      0.00000     0.77876    0.00256     0.78132
     Rh   53   -0.48539     35.98395     9.46799    0.03345    45.48539
      C   54   -0.16906      1.99907     4.14924    0.02075     6.16906
      C   55   -0.15229      1.99908     4.13230    0.02091     6.15229
      C   56   -0.17129      1.99907     4.15172    0.02050     6.17129
      C   57   -0.15212      1.99908     4.13247    0.02058     6.15212
      H   58    0.22332      0.00000     0.77431    0.00237     0.77668
      C   59   -0.42716      1.99936     4.41578    0.01202     6.42716
      H   60    0.23426      0.00000     0.76395    0.00179     0.76574
      C   61   -0.42302      1.99935     4.41115    0.01251     6.42302
      C   62   -0.42692      1.99936     4.41559    0.01196     6.42692
      H   63    0.23171      0.00000     0.76584    0.00245     0.76829
      H   64    0.23432      0.00000     0.76288    0.00280     0.76568
      C   65   -0.42290      1.99935     4.41098    0.01257     6.42290
      H   66    0.21755      0.00000     0.78044    0.00201     0.78245
      H   67    0.23235      0.00000     0.76615    0.00150     0.76765
      H   68    0.23983      0.00000     0.75831    0.00186     0.76017
      H   69    0.22118      0.00000     0.77734    0.00148     0.77882
      H   70    0.23301      0.00000     0.76552    0.00148     0.76699
      H   71    0.21769      0.00000     0.78031    0.00200     0.78231
      H   72    0.23953      0.00000     0.75861    0.00186     0.76047
      H   73    0.22391      0.00000     0.77462    0.00147     0.77609
 =======================================================================
   * Total *    1.00000    121.95051   191.24308    0.80641   314.00000

 Normal termination of Gaussian 16 at Tue Nov  5 15:12:28 2024.
