 Gaussian 16, Revision B.01,
 Gaussian 16:  ES64L-G16RevB.01 20-Dec-2017

 ------------------------------------------
 # nmr=giao b3lyp/genecp pop=nbo scfcyc=200
 ------------------------------------------

 -------------
 Ligand 25 SPE
 -------------
 Symbolic Z-matrix:
 Charge =  1 Multiplicity = 1

                         Standard orientation:
 ---------------------------------------------------------------------
 Center     Atomic      Atomic             Coordinates (Angstroms)
 Number     Number       Type             X           Y           Z
 ---------------------------------------------------------------------
      1          7           0        1.149968    0.668130    0.594739
      2          8           0        0.823288    2.063009   -1.426501
      3         15           0       -0.121112    1.551519   -0.152431
      4         15           0        0.429539   -0.909701    0.853679
      5          6           0        2.477188    1.235980    0.232749
      6          1           0        2.762528    1.945870    1.010149
      7          6           0        2.241348    1.978260   -1.140691
      8          1           0        2.616297    2.999180   -1.074071
      9          6           0        3.005528    1.185450   -2.218131
     10          1           0        2.302189    0.643750   -2.854671
     11          1           0        3.574268    1.848251   -2.872411
     12          6           0        3.901119    0.259921   -1.430881
     13          6           0        3.609139    0.290221   -0.066211
     14          6           0        4.372589   -0.435539    0.843369
     15          1           0        4.175409   -0.377039    1.907749
     16          6           0        5.407689   -1.235049    0.368579
     17          1           0        6.013730   -1.803588    1.062549
     18          6           0        5.682839   -1.289519   -0.998331
     19          1           0        6.497040   -1.907198   -1.356151
     20          6           0        4.939329   -0.536299   -1.902811
     21          1           0        5.180509   -0.561399   -2.958871
     22          6           0       -0.535433    3.166389    0.749159
     23          6           0        0.709237    3.902389    1.263199
     24          1           0        1.388237    4.181880    0.457509
     25          1           0        1.253637    3.316690    2.004749
     26          1           0        0.393557    4.828529    1.750829
     27          6           0       -1.270703    4.049019   -0.278341
     28          1           0       -1.580233    4.977048    0.208349
     29          1           0       -2.172463    3.573218   -0.668541
     30          1           0       -0.630363    4.306859   -1.121951
     31          6           0       -1.463582    2.833978    1.926919
     32          1           0       -1.806173    3.764108    2.387079
     33          1           0       -0.949542    2.257129    2.696689
     34          1           0       -2.343532    2.271108    1.612009
     35         45           0       -1.630131   -0.203332   -0.157401
     36          6           0       -3.560532    0.771208   -0.887721
     37          6           0       -2.844651    0.296358   -1.969861
     38          6           0       -2.728990   -2.211862   -0.474991
     39          6           0       -3.170681   -1.643372    0.697129
     40          1           0       -3.433982    1.818508   -0.641791
     41          6           0       -4.776561    0.109057   -0.268351
     42          1           0       -2.230672    1.009578   -2.510781
     43          6           0       -3.077651   -0.999842   -2.705041
     44          6           0       -3.460130   -2.193582   -1.803101
     45          1           0       -1.933300   -2.942482   -0.393261
     46          1           0       -2.704130   -1.983642    1.614689
     47          6           0       -4.431521   -0.841643    0.896799
     48          1           0       -5.340491   -0.418413   -1.037221
     49          1           0       -5.441522    0.888077    0.107799
     50          1           0       -3.849561   -0.852113   -3.470601
     51          1           0       -2.162501   -1.240712   -3.249821
     52          1           0       -3.229860   -3.116752   -2.337371
     53          1           0       -4.535490   -2.209793   -1.628681
     54          1           0       -5.271601   -1.522043    1.084029
     55          1           0       -4.313081   -0.258173    1.812299
     56          6           0        0.797429   -1.363541    2.651839
     57          1           0        1.730000   -1.934230    2.611119
     58          6           0       -0.306540   -2.258221    3.232919
     59          1           0       -0.527810   -3.127651    2.614149
     60          1           0        0.000050   -2.626541    4.214099
     61          1           0       -1.229300   -1.691271    3.369809
     62          6           0        1.018209   -0.139401    3.542179
     63          1           0        1.827109    0.496910    3.186679
     64          1           0        0.115499    0.469289    3.615469
     65          1           0        1.270619   -0.472710    4.551349
     66          6           0        1.361250   -2.214430   -0.143071
     67          1           0        2.416260   -2.015650    0.046649
     68          6           0        1.088250   -2.072600   -1.642741
     69          1           0        1.759740   -2.730950   -2.198171
     70          1           0        0.062920   -2.355311   -1.885381
     71          1           0        1.246459   -1.058450   -2.003781
     72          6           0        1.054320   -3.641470    0.332799
     73          1           0        1.608031   -4.343900   -0.293771
     74          1           0        1.357870   -3.821810    1.363099
     75          1           0       -0.003870   -3.893641    0.237339
 ---------------------------------------------------------------------

 SCF Done:  E(RB3LYP) =  -1978.37970509     A.U. after   16 cycles

      1  N    Isotropic =   136.9462   Anisotropy =   108.9332

      2  O    Isotropic =   211.4026   Anisotropy =    70.7692

      3  P    Isotropic =   110.4087   Anisotropy =   143.2237

      4  P    Isotropic =   191.6718   Anisotropy =    71.9215

      5  C    Isotropic =   105.4528   Anisotropy =    33.0806

      6  H    Isotropic =    26.5990   Anisotropy =     5.3201

      7  C    Isotropic =    89.1887   Anisotropy =    70.8591

      8  H    Isotropic =    26.3352   Anisotropy =     5.6719

      9  C    Isotropic =   140.2034   Anisotropy =    44.0471

     10  H    Isotropic =    28.5469   Anisotropy =     4.2369

     11  H    Isotropic =    28.2589   Anisotropy =     9.7827

     12  C    Isotropic =    34.0452   Anisotropy =   161.3729

     13  C    Isotropic =    42.3902   Anisotropy =   157.8640

     14  C    Isotropic =    53.0140   Anisotropy =   178.2589

     15  H    Isotropic =    24.4378   Anisotropy =     8.7672

     16  C    Isotropic =    50.0420   Anisotropy =   189.0512

     17  H    Isotropic =    24.3206   Anisotropy =     5.5653

     18  C    Isotropic =    45.9138   Anisotropy =   194.8306

     19  H    Isotropic =    24.1526   Anisotropy =     3.5071

     20  C    Isotropic =    51.9239   Anisotropy =   179.5897

     21  H    Isotropic =    24.3660   Anisotropy =     7.1996

     22  C    Isotropic =   128.8430   Anisotropy =    42.4615

     23  C    Isotropic =   157.7345   Anisotropy =    41.1498

     24  H    Isotropic =    30.6698   Anisotropy =     6.4450

     25  H    Isotropic =    30.6273   Anisotropy =     5.8169

     26  H    Isotropic =    30.7249   Anisotropy =    11.0475

     27  C    Isotropic =   160.4188   Anisotropy =    37.8140

     28  H    Isotropic =    30.9610   Anisotropy =    10.7981

     29  H    Isotropic =    31.1593   Anisotropy =     6.5413

     30  H    Isotropic =    30.5373   Anisotropy =     8.1023

     31  C    Isotropic =   158.3700   Anisotropy =    34.3279

     32  H    Isotropic =    30.7410   Anisotropy =    10.0253

     33  H    Isotropic =    30.4895   Anisotropy =     7.0005

     34  H    Isotropic =    29.9953   Anisotropy =     7.6507

     35  Rh   Isotropic =  -311.0959   Anisotropy =   367.3529

     36  C    Isotropic =    82.1881   Anisotropy =   117.7745

     37  C    Isotropic =    79.3317   Anisotropy =   115.7826

     38  C    Isotropic =    76.7241   Anisotropy =   126.2882

     39  C    Isotropic =    74.5573   Anisotropy =   122.6672

     40  H    Isotropic =    26.9963   Anisotropy =     6.4167

     41  C    Isotropic =   154.3558   Anisotropy =    24.1650

     42  H    Isotropic =    26.1341   Anisotropy =     5.4194

     43  C    Isotropic =   147.2988   Anisotropy =    29.9385

     44  C    Isotropic =   154.6468   Anisotropy =    24.5666

     45  H    Isotropic =    26.8043   Anisotropy =     5.3503

     46  H    Isotropic =    26.1456   Anisotropy =     4.4612

     47  C    Isotropic =   147.4521   Anisotropy =    29.5970

     48  H    Isotropic =    29.7996   Anisotropy =     9.6655

     49  H    Isotropic =    29.8427   Anisotropy =    11.4614

     50  H    Isotropic =    29.0670   Anisotropy =    12.7519

     51  H    Isotropic =    29.1238   Anisotropy =     7.1259

     52  H    Isotropic =    29.9423   Anisotropy =    11.1673

     53  H    Isotropic =    29.8363   Anisotropy =     9.7384

     54  H    Isotropic =    29.1519   Anisotropy =    12.7247

     55  H    Isotropic =    29.1517   Anisotropy =     7.3561

     56  C    Isotropic =   142.6781   Anisotropy =    31.7321

     57  H    Isotropic =    29.4105   Anisotropy =     5.1984

     58  C    Isotropic =   163.5094   Anisotropy =    28.4903

     59  H    Isotropic =    31.0835   Anisotropy =     5.9052

     60  H    Isotropic =    30.4792   Anisotropy =    12.2292

     61  H    Isotropic =    31.0651   Anisotropy =     5.9711

     62  C    Isotropic =   162.5422   Anisotropy =    23.7051

     63  H    Isotropic =    30.1512   Anisotropy =     5.5140

     64  H    Isotropic =    30.6107   Anisotropy =     6.3454

     65  H    Isotropic =    30.3380   Anisotropy =    11.4666

     66  C    Isotropic =   144.7466   Anisotropy =    26.3747

     67  H    Isotropic =    30.6163   Anisotropy =    15.0833

     68  C    Isotropic =   163.1547   Anisotropy =    25.5559

     69  H    Isotropic =    31.1416   Anisotropy =     9.7162

     70  H    Isotropic =    30.6393   Anisotropy =     8.3153

     71  H    Isotropic =    30.6556   Anisotropy =     5.6206

     72  C    Isotropic =   166.1642   Anisotropy =    27.1883

     73  H    Isotropic =    31.0306   Anisotropy =    11.0319

     74  H    Isotropic =    31.0853   Anisotropy =     8.2132

     75  H    Isotropic =    31.6156   Anisotropy =     6.5742

 The electronic state is 1-A.
 Alpha  occ. eigenvalues --  -77.28067 -77.25604 -19.25608 -14.44613 -10.34782
 Alpha  occ. eigenvalues --  -10.33473 -10.30793 -10.30274 -10.29953 -10.29853
 Alpha  occ. eigenvalues --  -10.29751 -10.29719 -10.29393 -10.28524 -10.28469
 Alpha  occ. eigenvalues --  -10.28093 -10.28052 -10.27994 -10.27956 -10.27944
 Alpha  occ. eigenvalues --  -10.27802 -10.27421 -10.27367 -10.27333 -10.27332
 Alpha  occ. eigenvalues --  -10.27279 -10.27038 -10.26922 -10.26792 -10.26745
 Alpha  occ. eigenvalues --  -10.26737  -6.73441  -6.71261  -4.89936  -4.89583
 Alpha  occ. eigenvalues --   -4.89295  -4.87703  -4.87359  -4.87165  -3.32344
 Alpha  occ. eigenvalues --   -2.09349  -2.08595  -2.05680  -1.15584  -1.02365
 Alpha  occ. eigenvalues --   -0.97637  -0.95126  -0.92781  -0.92090  -0.90937
 Alpha  occ. eigenvalues --   -0.89855  -0.89782  -0.88647  -0.86455  -0.82693
 Alpha  occ. eigenvalues --   -0.81200  -0.80952  -0.79903  -0.79645  -0.79600
 Alpha  occ. eigenvalues --   -0.79387  -0.78466  -0.76898  -0.73115  -0.71195
 Alpha  occ. eigenvalues --   -0.70954  -0.70188  -0.69263  -0.68748  -0.66521
 Alpha  occ. eigenvalues --   -0.65533  -0.65024  -0.63231  -0.62195  -0.60769
 Alpha  occ. eigenvalues --   -0.60422  -0.58651  -0.58234  -0.57892  -0.57795
 Alpha  occ. eigenvalues --   -0.57231  -0.56921  -0.56674  -0.55915  -0.55006
 Alpha  occ. eigenvalues --   -0.54875  -0.54517  -0.54225  -0.53727  -0.53419
 Alpha  occ. eigenvalues --   -0.53248  -0.52937  -0.52106  -0.51387  -0.51236
 Alpha  occ. eigenvalues --   -0.50927  -0.50447  -0.49875  -0.49747  -0.49521
 Alpha  occ. eigenvalues --   -0.49368  -0.48903  -0.48433  -0.48426  -0.47852
 Alpha  occ. eigenvalues --   -0.47624  -0.47167  -0.46711  -0.46581  -0.46481
 Alpha  occ. eigenvalues --   -0.46072  -0.45790  -0.45710  -0.45038  -0.44988
 Alpha  occ. eigenvalues --   -0.44614  -0.44458  -0.44103  -0.43754  -0.43614
 Alpha  occ. eigenvalues --   -0.43117  -0.42371  -0.41640  -0.39986  -0.38423
 Alpha  occ. eigenvalues --   -0.37287  -0.36437  -0.35711  -0.35533  -0.35061
 Alpha  occ. eigenvalues --   -0.34878  -0.34382  -0.31418
 Alpha virt. eigenvalues --   -0.16475  -0.15135  -0.12567  -0.11714  -0.10357
 Alpha virt. eigenvalues --   -0.09537  -0.08372  -0.08041  -0.07098  -0.06465
 Alpha virt. eigenvalues --   -0.06361  -0.05229  -0.04922  -0.04702  -0.04526

 Mulliken charges:
               1
     1  N   -0.436898
     2  O   -0.332548
     3  P    0.633911
     4  P    0.510689
     5  C   -0.058978
     6  H    0.186386
     7  C   -0.073970
     8  H    0.176620
     9  C   -0.287184
    10  H    0.186531
    11  H    0.174973
    12  C   -0.016021
    13  C   -0.095467
    14  C   -0.099930
    15  H    0.117262
    16  C   -0.088057
    17  H    0.131533
    18  C   -0.073202
    19  H    0.132212
    20  C   -0.113374
    21  H    0.128765
    22  C   -0.022670
    23  C   -0.404654
    24  H    0.147813
    25  H    0.141017
    26  H    0.158123
    27  C   -0.411680
    28  H    0.152681
    29  H    0.134043
    30  H    0.163816
    31  C   -0.389231
    32  H    0.158174
    33  H    0.135858
    34  H    0.141087
    35  Rh  -0.604636
    36  C   -0.023919
    37  C   -0.089094
    38  C   -0.062305
    39  C   -0.060795
    40  H    0.176000
    41  C   -0.357275
    42  H    0.190142
    43  C   -0.232073
    44  C   -0.359468
    45  H    0.173900
    46  H    0.190530
    47  C   -0.215001
    48  H    0.168743
    49  H    0.171010
    50  H    0.175034
    51  H    0.140536
    52  H    0.170107
    53  H    0.169596
    54  H    0.173698
    55  H    0.133263
    56  C   -0.160740
    57  H    0.175126
    58  C   -0.432068
    59  H    0.152643
    60  H    0.161759
    61  H    0.136137
    62  C   -0.363590
    63  H    0.133957
    64  H    0.120682
    65  H    0.158434
    66  C   -0.183040
    67  H    0.194952
    68  C   -0.351732
    69  H    0.156681
    70  H    0.127518
    71  H    0.118762
    72  C   -0.434102
    73  H    0.158781
    74  H    0.154803
    75  H    0.139414
 Sum of Mulliken charges =   1.00000

 Dipole moment (field-independent basis, Debye):
    X=             -0.2439    Y=             -0.9271    Z=              0.9135  Tot=              1.3242
 Quadrupole moment (field-independent basis, Debye-Ang):
   XX=           -170.9961   YY=           -193.2191   ZZ=           -201.6917
   XY=             -2.4093   XZ=              0.1691   YZ=              1.5700

 Summary of Natural Population Analysis:

                                       Natural Population
                Natural  -----------------------------------------------
    Atom  No    Charge         Core      Valence    Rydberg      Total
 -----------------------------------------------------------------------
      N    1   -1.03310      1.99957     6.00936    0.02418     8.03310
      O    2   -0.76094      1.99982     6.74596    0.01515     8.76094
      P    3    1.61525      9.99597     3.31356    0.07522    13.38475
      P    4    1.28812      9.99654     3.65928    0.05606    13.71188
      C    5   -0.09203      1.99922     4.06797    0.02484     6.09203
      H    6    0.21300      0.00000     0.78425    0.00275     0.78700
      C    7    0.09899      1.99925     3.88246    0.01930     5.90101
      H    8    0.19641      0.00000     0.80122    0.00237     0.80359
      C    9   -0.44142      1.99932     4.43124    0.01086     6.44142
      H   10    0.23126      0.00000     0.76703    0.00172     0.76874
      H   11    0.23278      0.00000     0.76578    0.00144     0.76722
      C   12    0.00022      1.99904     3.98475    0.01599     5.99978
      C   13   -0.06077      1.99899     4.04338    0.01840     6.06077
      C   14   -0.20247      1.99909     4.18790    0.01548     6.20247
      H   15    0.21239      0.00000     0.78554    0.00207     0.78761
      C   16   -0.19958      1.99921     4.18569    0.01468     6.19958
      H   17    0.22149      0.00000     0.77729    0.00121     0.77851
      C   18   -0.18063      1.99922     4.16696    0.01445     6.18063
      H   19    0.22228      0.00000     0.77658    0.00114     0.77772
      C   20   -0.19313      1.99909     4.17977    0.01427     6.19313
      H   21    0.22046      0.00000     0.77817    0.00137     0.77954
      C   22   -0.32459      1.99943     4.30296    0.02220     6.32459
      C   23   -0.60332      1.99936     4.59554    0.00842     6.60332
      H   24    0.20976      0.00000     0.78867    0.00157     0.79024
      H   25    0.20850      0.00000     0.78983    0.00167     0.79150
      H   26    0.22547      0.00000     0.77271    0.00181     0.77453
      C   27   -0.60438      1.99936     4.59705    0.00797     6.60438
      H   28    0.22398      0.00000     0.77421    0.00181     0.77602
      H   29    0.20480      0.00000     0.79372    0.00147     0.79520
      H   30    0.22521      0.00000     0.77339    0.00140     0.77479
      C   31   -0.59742      1.99936     4.59061    0.00745     6.59742
      H   32    0.22287      0.00000     0.77531    0.00181     0.77713
      H   33    0.20903      0.00000     0.78915    0.00182     0.79097
      H   34    0.21686      0.00000     0.78154    0.00160     0.78314
     Rh   35   -0.41392     35.98466     9.40228    0.02698    45.41392
      C   36   -0.18268      1.99908     4.16327    0.02034     6.18268
      C   37   -0.15561      1.99909     4.13634    0.02018     6.15561
      C   38   -0.17314      1.99908     4.15345    0.02062     6.17314
      C   39   -0.16170      1.99909     4.14208    0.02053     6.16170
      H   40    0.22088      0.00000     0.77680    0.00231     0.77912
      C   41   -0.42427      1.99936     4.41279    0.01211     6.42427
      H   42    0.23147      0.00000     0.76671    0.00182     0.76853
      C   43   -0.41806      1.99935     4.40597    0.01275     6.41806
      C   44   -0.42697      1.99936     4.41541    0.01221     6.42697
      H   45    0.22023      0.00000     0.77743    0.00234     0.77977
      H   46    0.22830      0.00000     0.76960    0.00210     0.77170
      C   47   -0.41926      1.99935     4.40706    0.01285     6.41926
      H   48    0.21602      0.00000     0.78204    0.00194     0.78398
      H   49    0.22960      0.00000     0.76895    0.00145     0.77040
      H   50    0.23595      0.00000     0.76224    0.00181     0.76405
      H   51    0.21812      0.00000     0.78022    0.00166     0.78188
      H   52    0.22943      0.00000     0.76913    0.00144     0.77057
      H   53    0.21736      0.00000     0.78071    0.00193     0.78264
      H   54    0.23597      0.00000     0.76221    0.00182     0.76403
      H   55    0.21770      0.00000     0.78075    0.00154     0.78230
      C   56   -0.48931      1.99940     4.47325    0.01666     6.48931
      H   57    0.21977      0.00000     0.77778    0.00245     0.78023
      C   58   -0.59572      1.99941     4.58911    0.00720     6.59572
      H   59    0.21035      0.00000     0.78813    0.00152     0.78965
      H   60    0.22539      0.00000     0.77311    0.00150     0.77461
      H   61    0.20713      0.00000     0.79128    0.00159     0.79287
      C   62   -0.58790      1.99941     4.58079    0.00770     6.58790
      H   63    0.20960      0.00000     0.78888    0.00152     0.79040
      H   64    0.20406      0.00000     0.79409    0.00185     0.79594
      H   65    0.22315      0.00000     0.77539    0.00146     0.77685
      C   66   -0.49425      1.99940     4.47681    0.01804     6.49425
      H   67    0.24346      0.00000     0.75354    0.00300     0.75654
      C   68   -0.58939      1.99941     4.58027    0.00970     6.58939
      H   69    0.22299      0.00000     0.77549    0.00151     0.77701
      H   70    0.20895      0.00000     0.78949    0.00156     0.79105
      H   71    0.20865      0.00000     0.78953    0.00182     0.79135
      C   72   -0.59680      1.99941     4.58852    0.00887     6.59680
      H   73    0.22821      0.00000     0.77027    0.00152     0.77179
      H   74    0.21158      0.00000     0.78706    0.00136     0.78842
      H   75    0.19933      0.00000     0.79920    0.00146     0.80067
 =======================================================================
   * Total *    1.00000    113.95669   179.37631    0.66700   294.00000

 Normal termination of Gaussian 16 at Tue Nov  5 13:44:07 2024.
