 Gaussian 16, Revision B.01,
 Gaussian 16:  ES64L-G16RevB.01 20-Dec-2017

 ------------------------------------------
 # nmr=giao b3lyp/genecp pop=nbo scfcyc=200
 ------------------------------------------

 -------------
 Ligand 26 SPE
 -------------
 Symbolic Z-matrix:
 Charge =  1 Multiplicity = 1

                         Standard orientation:
 ---------------------------------------------------------------------
 Center     Atomic      Atomic             Coordinates (Angstroms)
 Number     Number       Type             X           Y           Z
 ---------------------------------------------------------------------
      1          6           0        0.459190    0.539950   -2.783441
      2          1           0        1.325580    1.195659   -2.734591
      3          1           0       -0.412170    1.125690   -3.058361
      4          1           0        0.633779   -0.218241   -3.546441
      5          6           0        2.538009   -1.280172    0.440899
      6          6           0        3.738198   -1.963132    0.084219
      7          1           0        4.492268   -2.300323    0.776059
      8          6           0        3.800398   -2.103252   -1.325501
      9          1           0        4.602188   -2.558103   -1.884911
     10          6           0        2.645249   -1.498312   -1.874421
     11          1           0        2.421229   -1.431942   -2.925791
     12          6           0        1.844639   -0.979321   -0.794711
     13          6           0        5.412720    0.932017   -0.117691
     14          1           0        6.087780    0.552046    0.632219
     15          6           0        5.516820    0.715727   -1.519711
     16          1           0        6.282220    0.141476   -2.016421
     17          6           0        4.422500    1.370937   -2.150221
     18          1           0        4.221590    1.388027   -3.209541
     19          6           0        4.253481    1.721217    0.120849
     20          1           0        3.904861    2.064168    1.081529
     21          6           0        2.080879   -1.042691    1.863279
     22          1           0        1.453590   -0.148101    1.862089
     23          6           0        3.261059   -0.784662    2.818889
     24          1           0        2.903299   -0.514252    3.812099
     25          1           0        3.877830    0.034378    2.453169
     26          1           0        3.901339   -1.660692    2.927719
     27          6           0        0.559809   -1.844530    3.598059
     28          1           0       -0.244582   -2.557040    3.786179
     29          1           0        0.128359   -0.841790    3.591379
     30          1           0        1.260149   -1.911271    4.443359
     31          6           0        1.743298   -3.475921    2.292859
     32          1           0        2.124108   -3.721891    1.303279
     33          1           0        0.956487   -4.192531    2.535649
     34          1           0        2.553808   -3.619082    3.023859
     35         26           0        3.723420   -0.081062   -0.812801
     36          7           0        1.169968   -2.131611    2.303429
     37         15           0        0.206069   -0.224670   -1.113461
     38         15           0       -2.545761   -0.920469   -0.654241
     39          6           0       -0.973511   -1.652530   -1.384941
     40          1           0       -0.639272   -2.473970   -0.752591
     41          1           0       -1.040152   -2.017050   -2.410291
     42         45           0       -1.319500    1.013751    0.238909
     43          6           0       -3.005209    2.434482    0.835789
     44          6           0       -2.661799    1.660901    1.923899
     45          6           0        0.063431    2.429220    1.301149
     46          6           0       -0.271229    2.962440    0.066679
     47          1           0       -3.846969    2.096602    0.245699
     48          6           0       -2.596248    3.878291    0.618719
     49          1           0       -3.276840    0.789922    2.122379
     50          6           0       -1.759339    2.063191    3.063649
     51          6           0       -0.513589    2.868450    2.635389
     52          1           0        1.004761    1.895099    1.354879
     53          1           0        0.445751    2.827440   -0.736071
     54          6           0       -1.305678    4.024281   -0.211301
     55          1           0       -2.489588    4.378551    1.581059
     56          1           0       -3.405458    4.395432    0.100449
     57          1           0       -2.333659    2.630501    3.806709
     58          1           0       -1.438420    1.151321    3.571499
     59          1           0        0.253841    2.751790    3.402329
     60          1           0       -0.742048    3.933920    2.603829
     61          1           0       -0.867808    5.017900   -0.052551
     62          1           0       -1.555668    3.975671   -1.273561
     63          6           0       -3.747211   -0.643588   -2.137771
     64          6           0       -3.201532   -2.288128    0.537239
     65          6           0       -2.291942   -2.237849    1.774559
     66          1           0       -1.236672   -2.382359    1.537699
     67          1           0       -2.383781   -1.290669    2.305529
     68          1           0       -2.592712   -3.034269    2.461129
     69          6           0       -4.644992   -1.988668    0.971429
     70          1           0       -5.365562   -2.155507    0.171779
     71          1           0       -4.910452   -2.663137    1.789619
     72          1           0       -4.768401   -0.968667    1.340669
     73          6           0       -3.128662   -3.701858   -0.064111
     74          1           0       -3.462683   -4.415268    0.694339
     75          1           0       -3.767943   -3.831338   -0.933611
     76          1           0       -2.113203   -3.987119   -0.340391
     77          6           0       -4.203882   -1.959528   -2.785411
     78          1           0       -4.882452   -2.522377   -2.146731
     79          1           0       -4.747171   -1.727267   -3.705531
     80          1           0       -3.368412   -2.606498   -3.058401
     81          6           0       -4.975940    0.163593   -1.683491
     82          1           0       -4.696420    1.156152   -1.331971
     83          1           0       -5.638940    0.300913   -2.541721
     84          1           0       -5.552451   -0.329047   -0.904421
     85          6           0       -3.006360    0.193832   -3.192041
     86          1           0       -2.177951   -0.347299   -3.648651
     87          1           0       -3.705820    0.446122   -3.992991
     88          1           0       -2.632490    1.129811   -2.773391
     89          6           0        3.643691    1.993488   -1.135541
     90          1           0        2.758021    2.588478   -1.289401
 ---------------------------------------------------------------------

 SCF Done:  E(RB3LYP) =  -3363.46924443     A.U. after   21 cycles

      1  C    Isotropic =   165.1322   Anisotropy =    24.7648

      2  H    Isotropic =    29.7263   Anisotropy =     8.4315

      3  H    Isotropic =    29.6399   Anisotropy =     7.4715

      4  H    Isotropic =    30.1346   Anisotropy =     9.0988

      5  C    Isotropic =    81.4081   Anisotropy =    98.8862

      6  C    Isotropic =   106.9500   Anisotropy =    90.7011

      7  H    Isotropic =    27.6190   Anisotropy =     4.6906

      8  C    Isotropic =   109.6050   Anisotropy =    89.9223

      9  H    Isotropic =    27.5855   Anisotropy =     7.4435

     10  C    Isotropic =   109.7927   Anisotropy =    80.9279

     11  H    Isotropic =    28.1484   Anisotropy =     6.0282

     12  C    Isotropic =   101.4393   Anisotropy =    81.4040

     13  C    Isotropic =   109.9263   Anisotropy =    90.9285

     14  H    Isotropic =    28.0431   Anisotropy =     4.9476

     15  C    Isotropic =   110.1031   Anisotropy =    89.1946

     16  H    Isotropic =    27.9399   Anisotropy =     6.4472

     17  C    Isotropic =   112.7979   Anisotropy =    88.9595

     18  H    Isotropic =    28.2093   Anisotropy =     4.6282

     19  C    Isotropic =   108.8390   Anisotropy =    94.6180

     20  H    Isotropic =    28.5416   Anisotropy =     2.9351

     21  C    Isotropic =   123.6700   Anisotropy =    47.1991

     22  H    Isotropic =    27.7939   Anisotropy =     9.6126

     23  C    Isotropic =   175.3548   Anisotropy =    18.1593

     24  H    Isotropic =    30.3130   Anisotropy =     8.6174

     25  H    Isotropic =    30.4868   Anisotropy =     7.2848

     26  H    Isotropic =    30.3454   Anisotropy =     8.6067

     27  C    Isotropic =   138.6428   Anisotropy =    60.6547

     28  H    Isotropic =    29.6092   Anisotropy =     7.5546

     29  H    Isotropic =    29.3807   Anisotropy =     7.5354

     30  H    Isotropic =    29.3611   Anisotropy =     8.8039

     31  C    Isotropic =   149.2293   Anisotropy =    53.6912

     32  H    Isotropic =    30.0159   Anisotropy =     5.9632

     33  H    Isotropic =    30.1549   Anisotropy =     9.8791

     34  H    Isotropic =    29.9083   Anisotropy =    10.6799

     35  Fe   Isotropic = -5791.3217   Anisotropy = 10015.6159

     36  N    Isotropic =   202.7205   Anisotropy =    59.0577

     37  P    Isotropic =   350.1905   Anisotropy =    85.8549

     38  P    Isotropic =   289.7440   Anisotropy =   143.6363

     39  C    Isotropic =   136.2405   Anisotropy =    61.5371

     40  H    Isotropic =    28.8896   Anisotropy =     6.1135

     41  H    Isotropic =    29.1715   Anisotropy =     6.5979

     42  Rh   Isotropic =  -363.0642   Anisotropy =   416.1122

     43  C    Isotropic =    79.0182   Anisotropy =   123.4440

     44  C    Isotropic =    77.0008   Anisotropy =   115.7918

     45  C    Isotropic =    87.2878   Anisotropy =   108.5840

     46  C    Isotropic =    80.7183   Anisotropy =   108.2444

     47  H    Isotropic =    26.7108   Anisotropy =     6.2404

     48  C    Isotropic =   154.3490   Anisotropy =    25.2855

     49  H    Isotropic =    26.2758   Anisotropy =     3.3365

     50  C    Isotropic =   147.5067   Anisotropy =    27.5238

     51  C    Isotropic =   154.6429   Anisotropy =    23.2929

     52  H    Isotropic =    27.1180   Anisotropy =     7.4932

     53  H    Isotropic =    26.5298   Anisotropy =     4.4318

     54  C    Isotropic =   146.2695   Anisotropy =    31.4307

     55  H    Isotropic =    29.8554   Anisotropy =     9.4855

     56  H    Isotropic =    29.8168   Anisotropy =    11.7066

     57  H    Isotropic =    29.0448   Anisotropy =    12.6406

     58  H    Isotropic =    28.8996   Anisotropy =     6.7294

     59  H    Isotropic =    29.7277   Anisotropy =    10.2198

     60  H    Isotropic =    29.7899   Anisotropy =     9.6785

     61  H    Isotropic =    28.9922   Anisotropy =    12.3308

     62  H    Isotropic =    28.9312   Anisotropy =     7.3522

     63  C    Isotropic =   135.7738   Anisotropy =    34.1368

     64  C    Isotropic =   135.2469   Anisotropy =    34.1659

     65  C    Isotropic =   152.0426   Anisotropy =    44.8180

     66  H    Isotropic =    29.4978   Anisotropy =    13.2084

     67  H    Isotropic =    30.3569   Anisotropy =     6.4815

     68  H    Isotropic =    31.0466   Anisotropy =     8.3668

     69  C    Isotropic =   154.9641   Anisotropy =    34.3837

     70  H    Isotropic =    30.5417   Anisotropy =     8.2758

     71  H    Isotropic =    30.7189   Anisotropy =    10.3501

     72  H    Isotropic =    30.8802   Anisotropy =     5.0802

     73  C    Isotropic =   158.0987   Anisotropy =    39.0001

     74  H    Isotropic =    31.0782   Anisotropy =    10.7476

     75  H    Isotropic =    30.6201   Anisotropy =     8.2846

     76  H    Isotropic =    30.9437   Anisotropy =     5.2044

     77  C    Isotropic =   157.0073   Anisotropy =    33.9729

     78  H    Isotropic =    30.5702   Anisotropy =     8.0167

     79  H    Isotropic =    30.8576   Anisotropy =    11.1817

     80  H    Isotropic =    30.7986   Anisotropy =     6.6219

     81  C    Isotropic =   155.3996   Anisotropy =    39.5723

     82  H    Isotropic =    30.6636   Anisotropy =     6.3325

     83  H    Isotropic =    30.7935   Anisotropy =    10.7940

     84  H    Isotropic =    30.3419   Anisotropy =     6.5468

     85  C    Isotropic =   149.5343   Anisotropy =    38.3972

     86  H    Isotropic =    30.6368   Anisotropy =     6.1051

     87  H    Isotropic =    30.6542   Anisotropy =     9.5530

     88  H    Isotropic =    29.9128   Anisotropy =     6.3065

     89  C    Isotropic =   110.4928   Anisotropy =    90.1521

     90  H    Isotropic =    28.6220   Anisotropy =     6.3270

 The electronic state is 1-A.
 Alpha  occ. eigenvalues -- -256.13631 -77.23500 -77.22353 -30.07853 -25.95300
 Alpha  occ. eigenvalues --  -25.93306 -25.93249 -14.39760 -10.31076 -10.30691
 Alpha  occ. eigenvalues --  -10.29953 -10.29603 -10.29486 -10.29311 -10.29177
 Alpha  occ. eigenvalues --  -10.28986 -10.28801 -10.28782 -10.28288 -10.28132
 Alpha  occ. eigenvalues --  -10.27649 -10.27648 -10.27598 -10.27420 -10.27414
 Alpha  occ. eigenvalues --  -10.27392 -10.27358 -10.27174 -10.27153 -10.27102
 Alpha  occ. eigenvalues --  -10.26984 -10.26936 -10.26889 -10.26690 -10.26583
 Alpha  occ. eigenvalues --  -10.26523 -10.26477 -10.26108 -10.25662 -10.24493
 Alpha  occ. eigenvalues --   -6.69412  -6.68326  -4.85692  -4.85645  -4.85321
 Alpha  occ. eigenvalues --   -4.84621  -4.84511  -4.84231  -3.49571  -3.31520
 Alpha  occ. eigenvalues --   -2.30030  -2.25279  -2.25168  -2.08346  -2.07755
 Alpha  occ. eigenvalues --   -2.04990  -1.01263  -0.98916  -0.97430  -0.94620
 Alpha  occ. eigenvalues --   -0.93371  -0.91391  -0.89289  -0.88163  -0.88084
 Alpha  occ. eigenvalues --   -0.86329  -0.82714  -0.80932  -0.80545  -0.80529
 Alpha  occ. eigenvalues --   -0.80463  -0.80088  -0.79736  -0.79605  -0.78918
 Alpha  occ. eigenvalues --   -0.78831  -0.78462  -0.77934  -0.74629  -0.72987
 Alpha  occ. eigenvalues --   -0.70712  -0.69239  -0.67419  -0.66132  -0.65768
 Alpha  occ. eigenvalues --   -0.64827  -0.63828  -0.63468  -0.62765  -0.62579
 Alpha  occ. eigenvalues --   -0.62402  -0.60913  -0.60392  -0.60046  -0.58060
 Alpha  occ. eigenvalues --   -0.57541  -0.56899  -0.56494  -0.56269  -0.55392
 Alpha  occ. eigenvalues --   -0.54964  -0.54640  -0.54376  -0.54109  -0.53835
 Alpha  occ. eigenvalues --   -0.53755  -0.53433  -0.52986  -0.52811  -0.52760
 Alpha  occ. eigenvalues --   -0.52578  -0.51191  -0.50731  -0.50405  -0.50106
 Alpha  occ. eigenvalues --   -0.49956  -0.49702  -0.49413  -0.48807  -0.48732
 Alpha  occ. eigenvalues --   -0.48418  -0.48305  -0.48163  -0.48060  -0.47892
 Alpha  occ. eigenvalues --   -0.47519  -0.47342  -0.47242  -0.46966  -0.46835
 Alpha  occ. eigenvalues --   -0.46811  -0.46632  -0.46362  -0.46117  -0.45333
 Alpha  occ. eigenvalues --   -0.45071  -0.44955  -0.44924  -0.44268  -0.44064
 Alpha  occ. eigenvalues --   -0.43807  -0.43606  -0.43140  -0.42933  -0.42407
 Alpha  occ. eigenvalues --   -0.41818  -0.40510  -0.40029  -0.37405  -0.36533
 Alpha  occ. eigenvalues --   -0.36391  -0.36048  -0.34885  -0.34689  -0.34426
 Alpha  occ. eigenvalues --   -0.34368  -0.33800  -0.33068  -0.30781  -0.30412
 Alpha  occ. eigenvalues --   -0.29767  -0.29707
 Alpha virt. eigenvalues --   -0.16025  -0.14241  -0.11673  -0.11226  -0.09454
 Alpha virt. eigenvalues --   -0.08829  -0.08070  -0.07931  -0.07129  -0.06620
 Alpha virt. eigenvalues --   -0.06353  -0.06033  -0.04982  -0.04750  -0.04364

 Mulliken charges:
               1
     1  C   -0.516321
     2  H    0.165525
     3  H    0.175828
     4  H    0.166894
     5  C    0.182323
     6  C   -0.222012
     7  H    0.132282
     8  C    0.010893
     9  H    0.133842
    10  C   -0.115091
    11  H    0.125556
    12  C   -0.056037
    13  C   -0.102915
    14  H    0.142859
    15  C   -0.075097
    16  H    0.141645
    17  C   -0.125556
    18  H    0.137237
    19  C   -0.131456
    20  H    0.140379
    21  C   -0.033503
    22  H    0.077442
    23  C   -0.405992
    24  H    0.147748
    25  H    0.130128
    26  H    0.140238
    27  C   -0.316352
    28  H    0.144086
    29  H    0.118472
    30  H    0.136332
    31  C   -0.297530
    32  H    0.150175
    33  H    0.128821
    34  H    0.114748
    35  Fe  -0.232347
    36  N   -0.197873
    37  P    0.379391
    38  P    0.391903
    39  C   -0.601702
    40  H    0.218513
    41  H    0.197075
    42  Rh  -0.463628
    43  C   -0.035301
    44  C   -0.092663
    45  C   -0.015356
    46  C   -0.077900
    47  H    0.189982
    48  C   -0.344941
    49  H    0.177280
    50  C   -0.228019
    51  C   -0.368897
    52  H    0.198236
    53  H    0.149188
    54  C   -0.234177
    55  H    0.168306
    56  H    0.167775
    57  H    0.172589
    58  H    0.127900
    59  H    0.164734
    60  H    0.169649
    61  H    0.170076
    62  H    0.132953
    63  C   -0.002398
    64  C   -0.075421
    65  C   -0.405724
    66  H    0.182949
    67  H    0.116145
    68  H    0.152264
    69  C   -0.428285
    70  H    0.148356
    71  H    0.154918
    72  H    0.146493
    73  C   -0.356595
    74  H    0.147665
    75  H    0.152478
    76  H    0.131617
    77  C   -0.400787
    78  H    0.143488
    79  H    0.151460
    80  H    0.141541
    81  C   -0.410075
    82  H    0.124624
    83  H    0.156372
    84  H    0.161065
    85  C   -0.452791
    86  H    0.147190
    87  H    0.159408
    88  H    0.147593
    89  C   -0.107677
    90  H    0.145789
 Sum of Mulliken charges =   1.00000

 Dipole moment (field-independent basis, Debye):
    X=             -3.1697    Y=             -0.3408    Z=             -1.2297  Tot=              3.4169
 Quadrupole moment (field-independent basis, Debye-Ang):
   XX=           -209.2574   YY=           -237.3634   ZZ=           -233.5893
   XY=             -4.4173   XZ=              2.5701   YZ=              3.3577

 Summary of Natural Population Analysis:

                                       Natural Population
                Natural  -----------------------------------------------
    Atom  No    Charge         Core      Valence    Rydberg      Total
 -----------------------------------------------------------------------
      C    1   -0.89269      1.99941     4.88284    0.01044     6.89269
      H    2    0.24387      0.00000     0.75430    0.00183     0.75613
      H    3    0.24126      0.00000     0.75743    0.00131     0.75874
      H    4    0.23036      0.00000     0.76775    0.00190     0.76964
      C    5    0.02363      1.99883     3.94669    0.03085     5.97637
      C    6   -0.18922      1.99887     4.17179    0.01856     6.18922
      H    7    0.24527      0.00000     0.75330    0.00143     0.75473
      C    8   -0.17444      1.99896     4.15624    0.01924     6.17444
      H    9    0.24658      0.00000     0.75194    0.00148     0.75342
      C   10   -0.18851      1.99889     4.16926    0.02036     6.18851
      H   11    0.23668      0.00000     0.76171    0.00162     0.76332
      C   12   -0.34091      1.99867     4.31009    0.03215     6.34091
      C   13   -0.17933      1.99895     4.16279    0.01760     6.17933
      H   14    0.24224      0.00000     0.75630    0.00146     0.75776
      C   15   -0.17475      1.99895     4.15779    0.01801     6.17475
      H   16    0.24288      0.00000     0.75565    0.00147     0.75712
      C   17   -0.18866      1.99896     4.17201    0.01769     6.18866
      H   18    0.23878      0.00000     0.75975    0.00147     0.76122
      C   19   -0.19289      1.99895     4.17587    0.01807     6.19289
      H   20    0.23551      0.00000     0.76290    0.00159     0.76449
      C   21   -0.05598      1.99921     4.03731    0.01945     6.05598
      H   22    0.20321      0.00000     0.79353    0.00326     0.79679
      C   23   -0.61735      1.99941     4.60931    0.00862     6.61735
      H   24    0.21181      0.00000     0.78684    0.00134     0.78819
      H   25    0.21465      0.00000     0.78366    0.00169     0.78535
      H   26    0.20493      0.00000     0.79357    0.00150     0.79507
      C   27   -0.40366      1.99937     4.39343    0.01086     6.40366
      H   28    0.19935      0.00000     0.79884    0.00181     0.80065
      H   29    0.19049      0.00000     0.80781    0.00169     0.80951
      H   30    0.17218      0.00000     0.82421    0.00362     0.82782
      C   31   -0.41306      1.99936     4.40243    0.01128     6.41306
      H   32    0.20482      0.00000     0.79361    0.00157     0.79518
      H   33    0.19967      0.00000     0.79875    0.00158     0.80033
      H   34    0.16747      0.00000     0.82894    0.00358     0.83253
     Fe   35   -0.33898     17.99303     8.32323    0.02272    26.33898
      N   36   -0.42722      1.99958     5.40619    0.02145     7.42722
      P   37    1.11057      9.99683     3.84122    0.05139    13.88943
      P   38    1.04349      9.99696     3.91529    0.04425    13.95651
      C   39   -1.00052      1.99940     4.98313    0.01798     7.00052
      H   40    0.26589      0.00000     0.73173    0.00238     0.73411
      H   41    0.24752      0.00000     0.74972    0.00277     0.75248
     Rh   42   -0.31248     35.98614     9.29801    0.02833    45.31248
      C   43   -0.17382      1.99909     4.15499    0.01973     6.17382
      C   44   -0.16961      1.99910     4.15043    0.02007     6.16961
      C   45   -0.19686      1.99909     4.17784    0.01993     6.19686
      C   46   -0.15791      1.99910     4.13918    0.01963     6.15791
      H   47    0.22076      0.00000     0.77698    0.00226     0.77924
      C   48   -0.42351      1.99935     4.41231    0.01185     6.42351
      H   49    0.22126      0.00000     0.77644    0.00231     0.77874
      C   50   -0.41680      1.99934     4.40473    0.01273     6.41680
      C   51   -0.42106      1.99935     4.40980    0.01190     6.42106
      H   52    0.22223      0.00000     0.77508    0.00269     0.77777
      H   53    0.21522      0.00000     0.78231    0.00247     0.78478
      C   54   -0.41546      1.99935     4.40344    0.01267     6.41546
      H   55    0.21609      0.00000     0.78198    0.00192     0.78391
      H   56    0.22836      0.00000     0.77018    0.00146     0.77164
      H   57    0.23351      0.00000     0.76458    0.00191     0.76649
      H   58    0.21385      0.00000     0.78394    0.00221     0.78615
      H   59    0.22613      0.00000     0.77232    0.00155     0.77387
      H   60    0.21603      0.00000     0.78199    0.00198     0.78397
      H   61    0.23251      0.00000     0.76562    0.00187     0.76749
      H   62    0.21535      0.00000     0.78293    0.00172     0.78465
      C   63   -0.25701      1.99941     4.24048    0.01712     6.25701
      C   64   -0.25382      1.99941     4.23760    0.01680     6.25382
      C   65   -0.61471      1.99937     4.60438    0.01096     6.61471
      H   66    0.23282      0.00000     0.76477    0.00240     0.76718
      H   67    0.20873      0.00000     0.78920    0.00207     0.79127
      H   68    0.21687      0.00000     0.78115    0.00198     0.78313
      C   69   -0.60452      1.99935     4.59686    0.00830     6.60452
      H   70    0.20779      0.00000     0.79047    0.00173     0.79221
      H   71    0.22233      0.00000     0.77582    0.00185     0.77767
      H   72    0.20657      0.00000     0.79192    0.00152     0.79343
      C   73   -0.60686      1.99935     4.59868    0.00883     6.60686
      H   74    0.22082      0.00000     0.77739    0.00179     0.77918
      H   75    0.21211      0.00000     0.78624    0.00165     0.78789
      H   76    0.20617      0.00000     0.79235    0.00147     0.79383
      C   77   -0.60684      1.99935     4.59853    0.00895     6.60684
      H   78    0.20919      0.00000     0.78908    0.00172     0.79081
      H   79    0.22152      0.00000     0.77669    0.00179     0.77848
      H   80    0.20712      0.00000     0.79098    0.00190     0.79288
      C   81   -0.60104      1.99935     4.59349    0.00820     6.60104
      H   82    0.20553      0.00000     0.79296    0.00150     0.79447
      H   83    0.22032      0.00000     0.77788    0.00180     0.77968
      H   84    0.21367      0.00000     0.78471    0.00161     0.78633
      C   85   -0.60153      1.99936     4.59367    0.00850     6.60153
      H   86    0.20391      0.00000     0.79422    0.00187     0.79609
      H   87    0.22414      0.00000     0.77400    0.00185     0.77586
      H   88    0.21356      0.00000     0.78493    0.00151     0.78644
      C   89   -0.19196      1.99895     4.17476    0.01825     6.19196
      H   90    0.22637      0.00000     0.77194    0.00169     0.77363
 =======================================================================
   * Total *    1.00000    139.94642   211.27944    0.77414   352.00000

 Normal termination of Gaussian 16 at Tue Nov  5 14:14:45 2024.
