 Gaussian 16, Revision B.01,
 Gaussian 16:  ES64L-G16RevB.01 20-Dec-2017

 ------------------------------------------
 # nmr=giao b3lyp/genecp pop=nbo scfcyc=200
 ------------------------------------------

 --------------
 Ligand 33c SPE
 --------------
 Symbolic Z-matrix:
 Charge =  1 Multiplicity = 1

                         Standard orientation:
 ---------------------------------------------------------------------
 Center     Atomic      Atomic             Coordinates (Angstroms)
 Number     Number       Type             X           Y           Z
 ---------------------------------------------------------------------
      1          6           0        2.206141   -1.172320   -1.143390
      2          6           0        2.169102   -2.317730   -1.959080
      3          1           0        1.319602   -2.466190   -2.612330
      4          6           0        3.209242   -3.204440   -1.920040
      5          1           0        3.201062   -4.083220   -2.553480
      6          6           0        4.297732   -3.002359   -1.037040
      7          6           0        5.341292   -3.955349   -0.932320
      8          1           0        5.309242   -4.831699   -1.568910
      9          6           0        6.363182   -3.784759   -0.035600
     10          1           0        7.152562   -4.521648    0.040720
     11          6           0        6.376662   -2.651649    0.803130
     12          1           0        7.171322   -2.533138    1.529080
     13          6           0        5.391641   -1.700089    0.713970
     14          1           0        5.418821   -0.843199    1.371320
     15          6           0        4.330791   -1.829179   -0.218210
     16          6           0        3.277721   -0.857070   -0.334160
     17          6           0        2.250051    0.769940    1.233240
     18          6           0        2.246480    1.914710    2.050010
     19          1           0        1.405960    2.081870    2.710680
     20          6           0        3.310400    2.773350    2.003590
     21          1           0        3.332690    3.649920    2.639830
     22          6           0        4.385430    2.544391    1.110340
     23          6           0        5.454480    3.468251    1.000490
     24          1           0        5.452519    4.342591    1.640650
     25          6           0        6.464040    3.272561    0.094940
     26          1           0        7.273180    3.987372    0.015330
     27          6           0        6.440130    2.142561   -0.748000
     28          1           0        7.226070    2.004742   -1.479990
     29          6           0        5.430210    1.218071   -0.654090
     30          1           0        5.428611    0.361881   -1.312990
     31          6           0        4.381000    1.373381    0.287110
     32          6           0        3.302841    0.431270    0.409470
     33          6           0       -3.417239   -1.525472   -1.110370
     34          6           0       -2.734968   -2.007771   -2.231420
     35          1           0       -1.653448   -1.992221   -2.254900
     36          6           0       -3.439108   -2.507552   -3.319550
     37          1           0       -2.900588   -2.890212   -4.177480
     38          6           0       -4.831108   -2.511342   -3.311320
     39          1           0       -5.378138   -2.900212   -4.160790
     40          6           0       -5.516968   -2.008442   -2.211180
     41          1           0       -6.599648   -2.002323   -2.201100
     42          6           0       -4.816759   -1.513612   -1.115490
     43          1           0       -5.368129   -1.125142   -0.269120
     44          6           0       -3.397829   -0.979652    1.796930
     45          6           0       -4.167448   -2.123452    2.035240
     46          1           0       -4.282658   -2.878492    1.269200
     47          6           0       -4.792208   -2.300162    3.263960
     48          1           0       -5.385708   -3.188262    3.440900
     49          6           0       -4.655039   -1.341402    4.263900
     50          1           0       -5.143579   -1.482932    5.219700
     51          6           0       -3.891099   -0.201652    4.034320
     52          1           0       -3.783749    0.546158    4.809820
     53          6           0       -3.267419   -0.019392    2.805710
     54          1           0       -2.670489    0.867579    2.629070
     55          6           0       -0.402388   -2.723551    0.894940
     56          1           0        0.639382   -2.777460    0.573750
     57          6           0       -0.424168   -2.770431    2.424600
     58          1           0        0.114091   -1.923941    2.848160
     59          1           0        0.063502   -3.686921    2.762890
     60          1           0       -1.442098   -2.770851    2.813820
     61          6           0       -1.140638   -3.903891    0.270240
     62          1           0       -2.201138   -3.902811    0.526130
     63          1           0       -0.713998   -4.832271    0.653000
     64          1           0       -1.049068   -3.912701   -0.814910
     65          7           0       -0.883559   -1.405741    0.362700
     66          8           0        1.099591   -0.314450   -1.230290
     67          8           0        1.128001   -0.068150    1.308320
     68         15           0        0.073321   -0.042091    0.032480
     69         15           0       -2.484009   -0.688881    0.231620
     70         45           0       -1.625150    1.422169   -0.324960
     71          6           0       -0.628320    3.479279   -0.439190
     72          6           0       -0.568830    2.886009   -1.682460
     73          6           0       -3.446640    2.426368   -1.325130
     74          6           0       -3.443080    2.757008    0.009400
     75          1           0        0.242400    3.364059    0.197340
     76          6           0       -1.606861    4.561539   -0.020030
     77          1           0        0.350730    2.371910   -1.942690
     78          6           0       -1.501060    3.115849   -2.845430
     79          6           0       -2.982440    3.318058   -2.460040
     80          1           0       -4.041610    1.568298   -1.618940
     81          1           0       -4.070240    2.164468    0.668110
     82          6           0       -2.902660    4.023378    0.626940
     83          1           0       -1.844341    5.192029   -0.876450
     84          1           0       -1.110761    5.212839    0.701340
     85          1           0       -1.151630    3.976039   -3.430090
     86          1           0       -1.418750    2.252379   -3.508610
     87          1           0       -3.597280    3.105248   -3.336080
     88          1           0       -3.171311    4.360568   -2.206100
     89          1           0       -3.676441    4.800898    0.604640
     90          1           0       -2.716450    3.823409    1.684440
 ---------------------------------------------------------------------

 SCF Done:  E(RB3LYP) =  -2662.34909761     A.U. after   20 cycles

      1  C    Isotropic =    26.5149   Anisotropy =   110.2142

      2  C    Isotropic =    61.6790   Anisotropy =   143.9755

      3  H    Isotropic =    24.0451   Anisotropy =     8.1130

      4  C    Isotropic =    47.1158   Anisotropy =   163.6642

      5  H    Isotropic =    23.5687   Anisotropy =     7.6926

      6  C    Isotropic =    46.0310   Anisotropy =   212.7934

      7  C    Isotropic =    50.5713   Anisotropy =   164.1735

      8  H    Isotropic =    23.6734   Anisotropy =     7.6712

      9  C    Isotropic =    51.6975   Anisotropy =   185.6561

     10  H    Isotropic =    24.0530   Anisotropy =     4.3033

     11  C    Isotropic =    50.4907   Anisotropy =   186.9487

     12  H    Isotropic =    24.2758   Anisotropy =     7.9643

     13  C    Isotropic =    51.5343   Anisotropy =   178.5372

     14  H    Isotropic =    24.4925   Anisotropy =    14.9523

     15  C    Isotropic =    44.6735   Anisotropy =   204.0181

     16  C    Isotropic =    53.9458   Anisotropy =   138.3511

     17  C    Isotropic =    29.5092   Anisotropy =   105.8802

     18  C    Isotropic =    60.8869   Anisotropy =   146.2227

     19  H    Isotropic =    24.2176   Anisotropy =     7.7785

     20  C    Isotropic =    47.2973   Anisotropy =   163.8253

     21  H    Isotropic =    23.6315   Anisotropy =     7.6591

     22  C    Isotropic =    45.6383   Anisotropy =   213.1372

     23  C    Isotropic =    50.8051   Anisotropy =   164.9300

     24  H    Isotropic =    23.6825   Anisotropy =     7.7150

     25  C    Isotropic =    51.7587   Anisotropy =   186.4620

     26  H    Isotropic =    24.0416   Anisotropy =     4.4240

     27  C    Isotropic =    50.5714   Anisotropy =   187.1853

     28  H    Isotropic =    24.2629   Anisotropy =     7.8020

     29  C    Isotropic =    51.6731   Anisotropy =   179.5281

     30  H    Isotropic =    24.4695   Anisotropy =    14.6838

     31  C    Isotropic =    44.4598   Anisotropy =   203.9605

     32  C    Isotropic =    52.1004   Anisotropy =   138.6585

     33  C    Isotropic =    44.0491   Anisotropy =   165.3190

     34  C    Isotropic =    46.4716   Anisotropy =   197.2956

     35  H    Isotropic =    23.2620   Anisotropy =     9.6150

     36  C    Isotropic =    48.6549   Anisotropy =   190.1221

     37  H    Isotropic =    23.7915   Anisotropy =     7.0783

     38  C    Isotropic =    45.7851   Anisotropy =   196.2348

     39  H    Isotropic =    23.9486   Anisotropy =     3.8557

     40  C    Isotropic =    49.4574   Anisotropy =   189.3710

     41  H    Isotropic =    24.1892   Anisotropy =     5.9913

     42  C    Isotropic =    49.5087   Anisotropy =   187.6301

     43  H    Isotropic =    24.5783   Anisotropy =    11.2684

     44  C    Isotropic =    46.8429   Anisotropy =   171.6810

     45  C    Isotropic =    45.4308   Anisotropy =   192.7895

     46  H    Isotropic =    23.9559   Anisotropy =    11.0871

     47  C    Isotropic =    49.0234   Anisotropy =   189.5890

     48  H    Isotropic =    24.0989   Anisotropy =     6.1912

     49  C    Isotropic =    43.3933   Anisotropy =   199.3247

     50  H    Isotropic =    23.8640   Anisotropy =     3.9464

     51  C    Isotropic =    48.1035   Anisotropy =   189.8600

     52  H    Isotropic =    23.8655   Anisotropy =     6.9820

     53  C    Isotropic =    41.5817   Anisotropy =   184.7504

     54  H    Isotropic =    23.3022   Anisotropy =    10.0475

     55  C    Isotropic =   122.9359   Anisotropy =    53.2439

     56  H    Isotropic =    28.8126   Anisotropy =    10.5534

     57  C    Isotropic =   160.9129   Anisotropy =    33.8575

     58  H    Isotropic =    30.7395   Anisotropy =     3.6810

     59  H    Isotropic =    31.7867   Anisotropy =    10.5586

     60  H    Isotropic =    32.0255   Anisotropy =     9.4830

     61  C    Isotropic =   161.3149   Anisotropy =    25.9385

     62  H    Isotropic =    31.0969   Anisotropy =     4.7908

     63  H    Isotropic =    31.2613   Anisotropy =    10.8449

     64  H    Isotropic =    30.5478   Anisotropy =     5.7534

     65  N    Isotropic =    89.0665   Anisotropy =   110.2094

     66  O    Isotropic =   133.0438   Anisotropy =    67.0026

     67  O    Isotropic =   139.0748   Anisotropy =    77.9424

     68  P    Isotropic =   159.0403   Anisotropy =   188.4834

     69  P    Isotropic =   229.3225   Anisotropy =    64.2183

     70  Rh   Isotropic =  -274.1332   Anisotropy =   312.4016

     71  C    Isotropic =    79.9126   Anisotropy =   120.2951

     72  C    Isotropic =    73.7297   Anisotropy =   123.6724

     73  C    Isotropic =    69.3425   Anisotropy =   135.6882

     74  C    Isotropic =    73.0671   Anisotropy =   122.8826

     75  H    Isotropic =    27.1861   Anisotropy =     9.3773

     76  C    Isotropic =   154.1271   Anisotropy =    24.7508

     77  H    Isotropic =    26.4465   Anisotropy =     3.0249

     78  C    Isotropic =   147.8558   Anisotropy =    30.5248

     79  C    Isotropic =   154.3768   Anisotropy =    25.0873

     80  H    Isotropic =    27.4968   Anisotropy =     6.3643

     81  H    Isotropic =    26.4275   Anisotropy =     4.2249

     82  C    Isotropic =   148.7256   Anisotropy =    28.3799

     83  H    Isotropic =    29.9044   Anisotropy =     9.4020

     84  H    Isotropic =    29.9180   Anisotropy =    11.2270

     85  H    Isotropic =    29.4529   Anisotropy =    12.2365

     86  H    Isotropic =    29.4283   Anisotropy =     7.1545

     87  H    Isotropic =    30.2830   Anisotropy =    11.3297

     88  H    Isotropic =    29.9799   Anisotropy =     9.6009

     89  H    Isotropic =    29.2028   Anisotropy =    12.7861

     90  H    Isotropic =    29.0702   Anisotropy =     7.6259

 The electronic state is 1-A.
 Alpha  occ. eigenvalues --  -77.31687 -77.26391 -19.26632 -19.26627 -14.44635
 Alpha  occ. eigenvalues --  -10.33276 -10.33223 -10.31396 -10.29841 -10.29685
 Alpha  occ. eigenvalues --  -10.29386 -10.29319 -10.29045 -10.28760 -10.28737
 Alpha  occ. eigenvalues --  -10.28705 -10.28459 -10.28384 -10.28327 -10.28322
 Alpha  occ. eigenvalues --  -10.28053 -10.27904 -10.27886 -10.27761 -10.27677
 Alpha  occ. eigenvalues --  -10.27649 -10.27613 -10.27591 -10.27557 -10.27441
 Alpha  occ. eigenvalues --  -10.27392 -10.27371 -10.27046 -10.26943 -10.26860
 Alpha  occ. eigenvalues --  -10.26786 -10.26783 -10.26715 -10.25527 -10.25505
 Alpha  occ. eigenvalues --  -10.25437 -10.25368 -10.25301 -10.25287 -10.25221
 Alpha  occ. eigenvalues --  -10.25220 -10.25121 -10.24524  -6.76494  -6.72007
 Alpha  occ. eigenvalues --   -4.92891  -4.92828  -4.92355  -4.88409  -4.88172
 Alpha  occ. eigenvalues --   -4.87914  -3.32148  -2.09234  -2.08412  -2.05428
 Alpha  occ. eigenvalues --   -1.18631  -1.14409  -1.02449  -0.97494  -0.96861
 Alpha  occ. eigenvalues --   -0.96341  -0.95959  -0.94565  -0.91736  -0.90773
 Alpha  occ. eigenvalues --   -0.89328  -0.88752  -0.88574  -0.88094  -0.86924
 Alpha  occ. eigenvalues --   -0.85710  -0.85450  -0.85134  -0.84777  -0.83458
 Alpha  occ. eigenvalues --   -0.82747  -0.82033  -0.80461  -0.79856  -0.78179
 Alpha  occ. eigenvalues --   -0.77928  -0.77165  -0.75650  -0.72476  -0.71748
 Alpha  occ. eigenvalues --   -0.71631  -0.71294  -0.70667  -0.70531  -0.70484
 Alpha  occ. eigenvalues --   -0.70422  -0.69635  -0.68209  -0.66399  -0.65893
 Alpha  occ. eigenvalues --   -0.65797  -0.64056  -0.62662  -0.62493  -0.61760
 Alpha  occ. eigenvalues --   -0.61393  -0.61213  -0.60883  -0.60018  -0.59657
 Alpha  occ. eigenvalues --   -0.58200  -0.57774  -0.56980  -0.56787  -0.56494
 Alpha  occ. eigenvalues --   -0.56312  -0.56103  -0.55731  -0.55353  -0.54905
 Alpha  occ. eigenvalues --   -0.54658  -0.53829  -0.53729  -0.53722  -0.53240
 Alpha  occ. eigenvalues --   -0.53114  -0.52784  -0.52653  -0.52534  -0.52509
 Alpha  occ. eigenvalues --   -0.52024  -0.51889  -0.51189  -0.51026  -0.50743
 Alpha  occ. eigenvalues --   -0.50493  -0.50267  -0.49796  -0.49013  -0.48580
 Alpha  occ. eigenvalues --   -0.48288  -0.48113  -0.47890  -0.47734  -0.47645
 Alpha  occ. eigenvalues --   -0.47326  -0.47064  -0.46740  -0.46296  -0.46081
 Alpha  occ. eigenvalues --   -0.45495  -0.45469  -0.45031  -0.44910  -0.44723
 Alpha  occ. eigenvalues --   -0.43964  -0.43670  -0.43577  -0.43404  -0.43304
 Alpha  occ. eigenvalues --   -0.43094  -0.42844  -0.42453  -0.41754  -0.41365
 Alpha  occ. eigenvalues --   -0.40781  -0.40621  -0.38635  -0.38385  -0.38098
 Alpha  occ. eigenvalues --   -0.37698  -0.36814  -0.36617  -0.36458  -0.36205
 Alpha  occ. eigenvalues --   -0.36004  -0.34897  -0.34701  -0.34243  -0.33245
 Alpha  occ. eigenvalues --   -0.32899  -0.31119  -0.30777  -0.29924
 Alpha virt. eigenvalues --   -0.16391  -0.15606  -0.14183  -0.13634  -0.12643
 Alpha virt. eigenvalues --   -0.12102  -0.11908  -0.11129  -0.10476  -0.10019
 Alpha virt. eigenvalues --   -0.09500  -0.07683  -0.07082  -0.06283  -0.05988

 Mulliken charges:
               1
     1  C    0.096927
     2  C   -0.148494
     3  H    0.128412
     4  C   -0.159012
     5  H    0.119168
     6  C    0.031042
     7  C   -0.142430
     8  H    0.116629
     9  C   -0.084070
    10  H    0.123974
    11  C   -0.071261
    12  H    0.122503
    13  C   -0.115585
    14  H    0.154993
    15  C    0.000419
    16  C    0.024963
    17  C    0.105895
    18  C   -0.216439
    19  H    0.129540
    20  C   -0.134405
    21  H    0.117705
    22  C    0.025508
    23  C   -0.141082
    24  H    0.115661
    25  C   -0.083825
    26  H    0.124057
    27  C   -0.070987
    28  H    0.122943
    29  C   -0.111516
    30  H    0.154299
    31  C    0.010393
    32  C   -0.000822
    33  C   -0.130988
    34  C   -0.064886
    35  H    0.166400
    36  C   -0.120370
    37  H    0.132166
    38  C   -0.085469
    39  H    0.139958
    40  C   -0.109019
    41  H    0.135781
    42  C   -0.095144
    43  H    0.164258
    44  C   -0.222690
    45  C   -0.055120
    46  H    0.169921
    47  C   -0.101738
    48  H    0.138638
    49  C   -0.087093
    50  H    0.141454
    51  C   -0.103988
    52  H    0.134077
    53  C   -0.057763
    54  H    0.164662
    55  C    0.034657
    56  H    0.163459
    57  C   -0.383521
    58  H    0.152896
    59  H    0.143659
    60  H    0.136356
    61  C   -0.354157
    62  H    0.121278
    63  H    0.150952
    64  H    0.130912
    65  N   -0.451995
    66  O   -0.321422
    67  O   -0.317097
    68  P    0.809921
    69  P    0.350910
    70  Rh  -0.680458
    71  C   -0.032250
    72  C   -0.104687
    73  C   -0.023710
    74  C   -0.099458
    75  H    0.224428
    76  C   -0.354149
    77  H    0.203991
    78  C   -0.221742
    79  C   -0.349809
    80  H    0.199035
    81  H    0.200169
    82  C   -0.216425
    83  H    0.167843
    84  H    0.169641
    85  H    0.173480
    86  H    0.139375
    87  H    0.170466
    88  H    0.164740
    89  H    0.173941
    90  H    0.130618
 Sum of Mulliken charges =   1.00000

 Dipole moment (field-independent basis, Debye):
    X=             -5.1329    Y=              0.5083    Z=              0.0215  Tot=              5.1581
 Quadrupole moment (field-independent basis, Debye-Ang):
   XX=           -220.3829   YY=           -253.2804   ZZ=           -276.9964
   XY=              2.6007   XZ=             -2.3087   YZ=              7.3526

 Summary of Natural Population Analysis:

                                       Natural Population
                Natural  -----------------------------------------------
    Atom  No    Charge         Core      Valence    Rydberg      Total
 -----------------------------------------------------------------------
      C    1    0.26203      1.99861     3.71584    0.02353     5.73797
      C    2   -0.24672      1.99906     4.23216    0.01550     6.24672
      H    3    0.22187      0.00000     0.77650    0.00163     0.77813
      C    4   -0.14858      1.99915     4.13526    0.01418     6.14858
      H    5    0.21774      0.00000     0.78071    0.00156     0.78226
      C    6   -0.06600      1.99909     4.05090    0.01601     6.06600
      C    7   -0.17084      1.99915     4.15745    0.01425     6.17084
      H    8    0.21346      0.00000     0.78491    0.00163     0.78654
      C    9   -0.19592      1.99920     4.18187    0.01486     6.19592
      H   10    0.21958      0.00000     0.77926    0.00115     0.78042
      C   11   -0.18463      1.99920     4.17060    0.01482     6.18463
      H   12    0.21844      0.00000     0.78037    0.00119     0.78156
      C   13   -0.18906      1.99913     4.17597    0.01396     6.18906
      H   14    0.22116      0.00000     0.77708    0.00176     0.77884
      C   15   -0.03111      1.99904     4.01529    0.01678     6.03111
      C   16   -0.06817      1.99887     4.04944    0.01986     6.06817
      C   17    0.25617      1.99862     3.72257    0.02264     5.74383
      C   18   -0.24697      1.99906     4.23283    0.01508     6.24697
      H   19    0.22516      0.00000     0.77313    0.00171     0.77484
      C   20   -0.14978      1.99914     4.13687    0.01377     6.14978
      H   21    0.21718      0.00000     0.78142    0.00140     0.78282
      C   22   -0.06479      1.99910     4.04972    0.01597     6.06479
      C   23   -0.17100      1.99914     4.15788    0.01398     6.17100
      H   24    0.21325      0.00000     0.78530    0.00146     0.78675
      C   25   -0.19533      1.99920     4.18131    0.01482     6.19533
      H   26    0.21953      0.00000     0.77928    0.00118     0.78047
      C   27   -0.18502      1.99920     4.17101    0.01481     6.18502
      H   28    0.21857      0.00000     0.78024    0.00119     0.78143
      C   29   -0.18805      1.99913     4.17482    0.01409     6.18805
      H   30    0.22170      0.00000     0.77658    0.00172     0.77830
      C   31   -0.03224      1.99904     4.01672    0.01648     6.03224
      C   32   -0.06074      1.99888     4.04259    0.01927     6.06074
      C   33   -0.37074      1.99898     4.34637    0.02538     6.37074
      C   34   -0.18552      1.99909     4.17086    0.01557     6.18552
      H   35    0.21848      0.00000     0.77936    0.00217     0.78152
      C   36   -0.19202      1.99920     4.17829    0.01453     6.19202
      H   37    0.22143      0.00000     0.77734    0.00123     0.77857
      C   38   -0.17871      1.99921     4.16483    0.01467     6.17871
      H   39    0.22340      0.00000     0.77544    0.00117     0.77660
      C   40   -0.19259      1.99920     4.17861    0.01478     6.19259
      H   41    0.22329      0.00000     0.77548    0.00123     0.77671
      C   42   -0.20163      1.99910     4.18743    0.01510     6.20163
      H   43    0.22091      0.00000     0.77726    0.00184     0.77909
      C   44   -0.38189      1.99898     4.35755    0.02536     6.38189
      C   45   -0.18779      1.99909     4.17280    0.01590     6.18779
      H   46    0.22201      0.00000     0.77596    0.00203     0.77799
      C   47   -0.19470      1.99919     4.18086    0.01465     6.19470
      H   48    0.22482      0.00000     0.77395    0.00123     0.77518
      C   49   -0.16838      1.99921     4.15468    0.01450     6.16838
      H   50    0.22446      0.00000     0.77438    0.00116     0.77554
      C   51   -0.19548      1.99920     4.18175    0.01454     6.19548
      H   52    0.22293      0.00000     0.77584    0.00123     0.77707
      C   53   -0.17629      1.99909     4.16197    0.01522     6.17629
      H   54    0.22079      0.00000     0.77704    0.00217     0.77921
      C   55   -0.04192      1.99937     4.02125    0.02129     6.04192
      H   56    0.21252      0.00000     0.78483    0.00265     0.78748
      C   57   -0.60507      1.99941     4.59751    0.00816     6.60507
      H   58    0.22400      0.00000     0.77473    0.00126     0.77600
      H   59    0.21760      0.00000     0.78135    0.00106     0.78240
      H   60    0.20616      0.00000     0.79212    0.00172     0.79384
      C   61   -0.59826      1.99942     4.59032    0.00853     6.59826
      H   62    0.20021      0.00000     0.79806    0.00173     0.79979
      H   63    0.22459      0.00000     0.77433    0.00107     0.77541
      H   64    0.21221      0.00000     0.78636    0.00142     0.78779
      N   65   -1.02507      1.99958     6.00097    0.02452     8.02507
      O   66   -0.75142      1.99979     6.73825    0.01339     8.75142
      O   67   -0.74656      1.99979     6.73318    0.01359     8.74656
      P   68    1.88090      9.99527     3.02376    0.10006    13.11910
      P   69    1.33798      9.99599     3.60291    0.06312    13.66202
     Rh   70   -0.48630     35.98414     9.47193    0.03023    45.48630
      C   71   -0.18009      1.99907     4.16124    0.01978     6.18009
      C   72   -0.14829      1.99909     4.12896    0.02025     6.14829
      C   73   -0.15500      1.99906     4.13628    0.01966     6.15500
      C   74   -0.16581      1.99907     4.14614    0.02060     6.16581
      H   75    0.23371      0.00000     0.76373    0.00256     0.76629
      C   76   -0.42323      1.99936     4.41168    0.01218     6.42323
      H   77    0.23859      0.00000     0.75955    0.00186     0.76141
      C   78   -0.42219      1.99935     4.40999    0.01284     6.42219
      C   79   -0.42404      1.99936     4.41277    0.01191     6.42404
      H   80    0.23129      0.00000     0.76658    0.00213     0.76871
      H   81    0.22962      0.00000     0.76848    0.00189     0.77038
      C   82   -0.42217      1.99936     4.41049    0.01232     6.42217
      H   83    0.21471      0.00000     0.78343    0.00186     0.78529
      H   84    0.22898      0.00000     0.76956    0.00145     0.77102
      H   85    0.23524      0.00000     0.76295    0.00181     0.76476
      H   86    0.22367      0.00000     0.77495    0.00139     0.77633
      H   87    0.23080      0.00000     0.76775    0.00145     0.76920
      H   88    0.21162      0.00000     0.78614    0.00224     0.78838
      H   89    0.23544      0.00000     0.76269    0.00187     0.76456
      H   90    0.21793      0.00000     0.78064    0.00143     0.78207
 =======================================================================
   * Total *    1.00000    147.93701   247.05984    1.00316   396.00000

 Normal termination of Gaussian 16 at Tue Nov  5 15:45:53 2024.
