 Gaussian 16, Revision B.01,
 Gaussian 16:  ES64L-G16RevB.01 20-Dec-2017

 ------------------------------------------
 # nmr=giao b3lyp/genecp pop=nbo scfcyc=200
 ------------------------------------------

 -------------
 Ligand 36 SPE
 -------------
 Symbolic Z-matrix:
 Charge =  1 Multiplicity = 1

                         Standard orientation:
 ---------------------------------------------------------------------
 Center     Atomic      Atomic             Coordinates (Angstroms)
 Number     Number       Type             X           Y           Z
 ---------------------------------------------------------------------
      1         15           0       -0.566489   -0.040190   -0.277180
      2         15           0        1.923341   -0.709860   -0.685820
      3          8           0       -1.615899    0.369209   -1.482040
      4          8           0       -1.589789   -0.648351    0.857820
      5          8           0        2.791071   -1.923050    0.009750
      6          8           0        2.596811   -0.752110   -2.175620
      7          7           0        0.337781   -1.276210   -1.027600
      8          6           0       -2.699700    1.193849   -1.137880
      9          6           0       -2.646690    2.528929   -1.575700
     10          1           0       -1.805320    2.849079   -2.176120
     11          6           0       -3.668250    3.379099   -1.251190
     12          1           0       -3.654170    4.405849   -1.596430
     13          6           0       -4.745880    2.939489   -0.443950
     14          6           0       -5.768300    3.833329   -0.038780
     15          1           0       -5.729110    4.858779   -0.386840
     16          6           0       -6.779460    3.418299    0.787550
     17          1           0       -7.552740    4.110579    1.095340
     18          6           0       -6.804280    2.086919    1.251100
     19          1           0       -7.591060    1.769669    1.924010
     20          6           0       -5.841000    1.190149    0.862090
     21          1           0       -5.876339    0.175699    1.232160
     22          6           0       -4.792240    1.575949   -0.010690
     23          6           0       -3.761890    0.667929   -0.433620
     24          6           0       -3.797929   -0.786051   -0.120420
     25          6           0       -4.899219   -1.624821   -0.510010
     26          6           0       -5.956529   -1.164731   -1.335230
     27          1           0       -5.943769   -0.146561   -1.695970
     28          6           0       -6.988439   -1.995531   -1.693810
     29          1           0       -7.779369   -1.621862   -2.331980
     30          6           0       -7.027749   -3.331861   -1.246430
     31          1           0       -7.853289   -3.971692   -1.530990
     32          6           0       -6.011179   -3.818821   -0.467470
     33          1           0       -6.019439   -4.849921   -0.134380
     34          6           0       -4.920649   -2.994191   -0.094850
     35          6           0       -3.838079   -3.510781    0.657580
     36          1           0       -3.868849   -4.543021    0.984670
     37          6           0       -2.754529   -2.728891    0.947990
     38          1           0       -1.907969   -3.114851    1.499910
     39          6           0       -2.740639   -1.386501    0.529630
     40          6           0        2.958591   -2.071100    1.393790
     41          6           0        1.891271   -2.373240    2.225960
     42          1           0        0.891641   -2.462630    1.823630
     43          6           0        2.115241   -2.572360    3.585560
     44          1           0        1.281601   -2.811390    4.236560
     45          6           0        3.406101   -2.482410    4.104060
     46          6           0        4.474271   -2.184960    3.255150
     47          1           0        5.472971   -2.129660    3.667490
     48          6           0        4.249501   -1.980340    1.902740
     49          1           0        5.072881   -1.761380    1.235360
     50          6           0        3.915611   -0.336500   -2.439040
     51          6           0        4.112020    0.899300   -3.036350
     52          1           0        3.262450    1.535280   -3.248730
     53          6           0        5.399600    1.300260   -3.377490
     54          1           0        5.555200    2.262610   -3.852270
     55          6           0        6.482271    0.455861   -3.130040
     56          6           0        6.268671   -0.791439   -2.540640
     57          1           0        7.115971   -1.442859   -2.372660
     58          6           0        4.985131   -1.192560   -2.201890
     59          1           0        4.809661   -2.165250   -1.764060
     60          6           0       -0.161579   -2.394540   -1.896350
     61          1           0       -1.200049   -2.533901   -1.591180
     62          6           0        0.595031   -3.690860   -1.616070
     63          1           0        0.551611   -3.964430   -0.561510
     64          1           0        1.642441   -3.615780   -1.909970
     65          1           0        0.142811   -4.497670   -2.194590
     66          6           0       -0.139659   -2.010960   -3.376300
     67          1           0       -0.695109   -1.089880   -3.549310
     68          1           0       -0.607679   -2.805670   -3.960600
     69          1           0        0.881511   -1.878040   -3.732210
     70         45           0        1.224040    1.155480    0.478810
     71          6           0        3.094460    1.808460    1.684290
     72          6           0        3.088420    2.479020    0.484950
     73          6           0        0.300470    3.150950    1.165190
     74          6           0        0.229470    2.247920    2.202420
     75          1           0        3.663130    0.886680    1.731210
     76          6           0        2.665260    2.375220    3.023130
     77          1           0        3.685710    2.060940   -0.319350
     78          6           0        2.579180    3.875140    0.227740
     79          6           0        1.317190    4.268280    1.026940
     80          1           0       -0.577140    3.236290    0.533430
     81          1           0       -0.704790    1.709680    2.326640
     82          6           0        1.182010    2.115710    3.363240
     83          1           0        2.883830    3.441970    3.056730
     84          1           0        3.278830    1.916390    3.799820
     85          1           0        3.380860    4.597490    0.426010
     86          1           0        2.364660    3.957350   -0.839970
     87          1           0        0.838140    5.105450    0.516780
     88          1           0        1.592150    4.637650    2.014300
     89          1           0        0.865550    2.787760    4.170780
     90          1           0        1.079050    1.103690    3.759770
     91          8           0        3.695001   -2.669340    5.421700
     92          1           0        2.904921   -2.926470    5.911150
     93          8           0        7.766570    0.782701   -3.439800
     94          1           0        7.804010    1.639531   -3.880690
 ---------------------------------------------------------------------

 SCF Done:  E(RB3LYP) =  -2963.37717824     A.U. after   20 cycles

      1  P    Isotropic =   155.8553   Anisotropy =   190.9155

      2  P    Isotropic =   163.4098   Anisotropy =   200.5550

      3  O    Isotropic =   139.1838   Anisotropy =    74.3337

      4  O    Isotropic =   133.8786   Anisotropy =    59.8976

      5  O    Isotropic =   132.8941   Anisotropy =   115.6314

      6  O    Isotropic =   143.2581   Anisotropy =    85.4244

      7  N    Isotropic =    47.8901   Anisotropy =    78.3231

      8  C    Isotropic =    30.0934   Anisotropy =   105.1953

      9  C    Isotropic =    61.1452   Anisotropy =   146.7536

     10  H    Isotropic =    24.2452   Anisotropy =     7.5915

     11  C    Isotropic =    47.1527   Anisotropy =   164.4760

     12  H    Isotropic =    23.6667   Anisotropy =     7.5676

     13  C    Isotropic =    45.8324   Anisotropy =   213.9221

     14  C    Isotropic =    50.1743   Anisotropy =   163.6265

     15  H    Isotropic =    23.7169   Anisotropy =     7.6377

     16  C    Isotropic =    51.2581   Anisotropy =   185.9494

     17  H    Isotropic =    24.0588   Anisotropy =     4.3464

     18  C    Isotropic =    50.3609   Anisotropy =   187.3239

     19  H    Isotropic =    24.2681   Anisotropy =     7.7573

     20  C    Isotropic =    51.2703   Anisotropy =   178.6759

     21  H    Isotropic =    24.4911   Anisotropy =    14.5145

     22  C    Isotropic =    44.8116   Anisotropy =   203.6702

     23  C    Isotropic =    53.2544   Anisotropy =   139.5578

     24  C    Isotropic =    54.8408   Anisotropy =   138.4537

     25  C    Isotropic =    44.9429   Anisotropy =   203.2773

     26  C    Isotropic =    51.2553   Anisotropy =   178.1019

     27  H    Isotropic =    24.5095   Anisotropy =    14.9677

     28  C    Isotropic =    50.1468   Anisotropy =   187.3524

     29  H    Isotropic =    24.2545   Anisotropy =     7.9537

     30  C    Isotropic =    51.1637   Anisotropy =   185.6563

     31  H    Isotropic =    24.0287   Anisotropy =     4.3165

     32  C    Isotropic =    50.0604   Anisotropy =   163.6001

     33  H    Isotropic =    23.6552   Anisotropy =     7.6962

     34  C    Isotropic =    45.9295   Anisotropy =   213.1715

     35  C    Isotropic =    46.8674   Anisotropy =   164.4804

     36  H    Isotropic =    23.5693   Anisotropy =     7.8322

     37  C    Isotropic =    62.3611   Anisotropy =   143.6817

     38  H    Isotropic =    24.1417   Anisotropy =     7.9230

     39  C    Isotropic =    26.7564   Anisotropy =   107.9520

     40  C    Isotropic =    32.0399   Anisotropy =   105.2412

     41  C    Isotropic =    58.0134   Anisotropy =   158.8192

     42  H    Isotropic =    24.2209   Anisotropy =     6.2733

     43  C    Isotropic =    66.9563   Anisotropy =   132.9581

     44  H    Isotropic =    25.0983   Anisotropy =     6.8315

     45  C    Isotropic =    20.0457   Anisotropy =   148.7039

     46  C    Isotropic =    61.4193   Anisotropy =   155.1591

     47  H    Isotropic =    24.7239   Anisotropy =     4.9113

     48  C    Isotropic =    55.7518   Anisotropy =   158.4173

     49  H    Isotropic =    24.8181   Anisotropy =     7.3993

     50  C    Isotropic =    32.9198   Anisotropy =    99.5437

     51  C    Isotropic =    57.1667   Anisotropy =   153.3020

     52  H    Isotropic =    24.5761   Anisotropy =     7.7579

     53  C    Isotropic =    66.3772   Anisotropy =   132.9962

     54  H    Isotropic =    25.2319   Anisotropy =     6.2336

     55  C    Isotropic =    19.2305   Anisotropy =   148.7900

     56  C    Isotropic =    62.1490   Anisotropy =   153.0600

     57  H    Isotropic =    24.6187   Anisotropy =     5.7359

     58  C    Isotropic =    54.3476   Anisotropy =   162.8386

     59  H    Isotropic =    24.1682   Anisotropy =     9.7265

     60  C    Isotropic =   121.1621   Anisotropy =    54.6692

     61  H    Isotropic =    28.7846   Anisotropy =     9.7672

     62  C    Isotropic =   161.0694   Anisotropy =    30.9948

     63  H    Isotropic =    30.2253   Anisotropy =     4.7976

     64  H    Isotropic =    30.1192   Anisotropy =     5.4993

     65  H    Isotropic =    30.8767   Anisotropy =    10.8492

     66  C    Isotropic =   158.6051   Anisotropy =    37.8983

     67  H    Isotropic =    30.1324   Anisotropy =     4.2169

     68  H    Isotropic =    31.2092   Anisotropy =    10.7109

     69  H    Isotropic =    30.0782   Anisotropy =     5.5765

     70  Rh   Isotropic =  -275.6811   Anisotropy =   336.7823

     71  C    Isotropic =    72.2483   Anisotropy =   135.3988

     72  C    Isotropic =    73.6180   Anisotropy =   124.1755

     73  C    Isotropic =    76.5233   Anisotropy =   126.2666

     74  C    Isotropic =    71.3812   Anisotropy =   127.9487

     75  H    Isotropic =    27.6416   Anisotropy =     6.9708

     76  C    Isotropic =   154.9336   Anisotropy =    24.0409

     77  H    Isotropic =    26.5043   Anisotropy =     6.8384

     78  C    Isotropic =   148.5253   Anisotropy =    29.6297

     79  C    Isotropic =   154.7973   Anisotropy =    24.0704

     80  H    Isotropic =    27.2591   Anisotropy =     9.8025

     81  H    Isotropic =    26.5841   Anisotropy =     3.1598

     82  C    Isotropic =   148.9246   Anisotropy =    29.4353

     83  H    Isotropic =    30.2377   Anisotropy =     9.5323

     84  H    Isotropic =    30.6651   Anisotropy =    10.3256

     85  H    Isotropic =    29.3863   Anisotropy =    12.4585

     86  H    Isotropic =    29.3200   Anisotropy =     7.2191

     87  H    Isotropic =    30.1128   Anisotropy =    11.4187

     88  H    Isotropic =    30.0513   Anisotropy =     9.2722

     89  H    Isotropic =    29.7031   Anisotropy =    11.9762

     90  H    Isotropic =    29.9274   Anisotropy =     7.2535

     91  O    Isotropic =   206.7260   Anisotropy =    65.6093

     92  H    Isotropic =    27.6371   Anisotropy =    12.5969

     93  O    Isotropic =   205.1836   Anisotropy =    65.9505

     94  H    Isotropic =    27.6222   Anisotropy =    13.0606

 The electronic state is 1-A.
 Alpha  occ. eigenvalues --  -77.32636 -77.32617 -19.27377 -19.27324 -19.27023
 Alpha  occ. eigenvalues --  -19.26959 -19.24484 -19.24091 -14.45212 -10.33748
 Alpha  occ. eigenvalues --  -10.33714 -10.33297 -10.33124 -10.32916 -10.32768
 Alpha  occ. eigenvalues --  -10.31529 -10.29847 -10.29816 -10.29702 -10.29552
 Alpha  occ. eigenvalues --  -10.28846 -10.28770 -10.28205 -10.28015 -10.28004
 Alpha  occ. eigenvalues --  -10.27947 -10.27927 -10.27908 -10.27803 -10.27535
 Alpha  occ. eigenvalues --  -10.27512 -10.27493 -10.27440 -10.27276 -10.27265
 Alpha  occ. eigenvalues --  -10.27195 -10.27166 -10.27165 -10.27093 -10.27091
 Alpha  occ. eigenvalues --  -10.26838 -10.26392 -10.25886 -10.25739 -10.25720
 Alpha  occ. eigenvalues --  -10.25674 -10.25582 -10.25580 -10.25517 -10.25402
 Alpha  occ. eigenvalues --  -10.25149 -10.24268  -6.77420  -6.77407  -4.93812
 Alpha  occ. eigenvalues --   -4.93760  -4.93755  -4.93753  -4.93305  -4.93286
 Alpha  occ. eigenvalues --   -3.33057  -2.10220  -2.09338  -2.06244  -1.19402
 Alpha  occ. eigenvalues --   -1.18578  -1.15433  -1.15098  -1.15070  -1.14937
 Alpha  occ. eigenvalues --   -1.03137  -0.97894  -0.96342  -0.95547  -0.95126
 Alpha  occ. eigenvalues --   -0.95068  -0.92131  -0.91167  -0.89933  -0.89149
 Alpha  occ. eigenvalues --   -0.88628  -0.88331  -0.85495  -0.85225  -0.85153
 Alpha  occ. eigenvalues --   -0.84974  -0.83764  -0.83349  -0.83145  -0.82389
 Alpha  occ. eigenvalues --   -0.81007  -0.80260  -0.78484  -0.78015  -0.77483
 Alpha  occ. eigenvalues --   -0.75995  -0.73167  -0.72863  -0.72613  -0.72068
 Alpha  occ. eigenvalues --   -0.71520  -0.71195  -0.70877  -0.70810  -0.69986
 Alpha  occ. eigenvalues --   -0.68564  -0.67061  -0.66756  -0.66384  -0.64872
 Alpha  occ. eigenvalues --   -0.64590  -0.64507  -0.63954  -0.63048  -0.62462
 Alpha  occ. eigenvalues --   -0.61941  -0.61367  -0.60822  -0.60564  -0.59900
 Alpha  occ. eigenvalues --   -0.58935  -0.58600  -0.58369  -0.57827  -0.57320
 Alpha  occ. eigenvalues --   -0.56801  -0.56663  -0.56126  -0.55258  -0.54977
 Alpha  occ. eigenvalues --   -0.54487  -0.54303  -0.54201  -0.54105  -0.53893
 Alpha  occ. eigenvalues --   -0.53794  -0.53214  -0.53139  -0.52903  -0.52863
 Alpha  occ. eigenvalues --   -0.52721  -0.52459  -0.51688  -0.51579  -0.51431
 Alpha  occ. eigenvalues --   -0.51280  -0.50881  -0.50765  -0.50746  -0.50269
 Alpha  occ. eigenvalues --   -0.50009  -0.49786  -0.49206  -0.48949  -0.48520
 Alpha  occ. eigenvalues --   -0.48437  -0.48322  -0.48283  -0.47968  -0.47509
 Alpha  occ. eigenvalues --   -0.47371  -0.47107  -0.46616  -0.45572  -0.45482
 Alpha  occ. eigenvalues --   -0.45319  -0.45246  -0.44955  -0.44565  -0.44084
 Alpha  occ. eigenvalues --   -0.44028  -0.43735  -0.43689  -0.43467  -0.43273
 Alpha  occ. eigenvalues --   -0.43123  -0.42909  -0.42487  -0.42227  -0.41759
 Alpha  occ. eigenvalues --   -0.41488  -0.41211  -0.40883  -0.39443  -0.38590
 Alpha  occ. eigenvalues --   -0.38388  -0.37959  -0.37045  -0.36695  -0.35938
 Alpha  occ. eigenvalues --   -0.35664  -0.35475  -0.35169  -0.33655  -0.33288
 Alpha  occ. eigenvalues --   -0.32019  -0.31802  -0.31471  -0.31157  -0.30316
 Alpha virt. eigenvalues --   -0.17033  -0.15309  -0.14581  -0.13012  -0.11630
 Alpha virt. eigenvalues --   -0.11020  -0.10970  -0.10483  -0.10156  -0.09806
 Alpha virt. eigenvalues --   -0.09084  -0.08429  -0.07479  -0.07141  -0.06573

 Mulliken charges:
               1
     1  P    0.790931
     2  P    0.671076
     3  O   -0.307797
     4  O   -0.318235
     5  O   -0.339303
     6  O   -0.319009
     7  N   -0.433076
     8  C    0.103084
     9  C   -0.226779
    10  H    0.134706
    11  C   -0.128358
    12  H    0.119094
    13  C    0.024181
    14  C   -0.141090
    15  H    0.116738
    16  C   -0.083151
    17  H    0.125271
    18  C   -0.070973
    19  H    0.123916
    20  C   -0.111745
    21  H    0.154137
    22  C    0.014136
    23  C   -0.006008
    24  C    0.035218
    25  C   -0.002193
    26  C   -0.113732
    27  H    0.155869
    28  C   -0.071570
    29  H    0.123620
    30  C   -0.082547
    31  H    0.125292
    32  C   -0.142581
    33  H    0.117987
    34  C    0.034414
    35  C   -0.164128
    36  H    0.120968
    37  C   -0.141502
    38  H    0.126429
    39  C    0.091288
    40  C    0.105268
    41  C   -0.066304
    42  H    0.145264
    43  C   -0.218104
    44  H    0.131784
    45  C    0.147297
    46  C   -0.179342
    47  H    0.150465
    48  C   -0.145870
    49  H    0.146582
    50  C    0.061179
    51  C   -0.157470
    52  H    0.138526
    53  C   -0.141175
    54  H    0.131196
    55  C    0.131087
    56  C   -0.173215
    57  H    0.150526
    58  C   -0.088235
    59  H    0.150430
    60  C    0.045349
    61  H    0.162406
    62  C   -0.372175
    63  H    0.130002
    64  H    0.145760
    65  H    0.148645
    66  C   -0.374183
    67  H    0.143571
    68  H    0.141374
    69  H    0.140860
    70  Rh  -0.633557
    71  C   -0.014679
    72  C   -0.113865
    73  C   -0.037764
    74  C   -0.093402
    75  H    0.218674
    76  C   -0.361664
    77  H    0.232385
    78  C   -0.227104
    79  C   -0.351138
    80  H    0.229994
    81  H    0.196844
    82  C   -0.221281
    83  H    0.167518
    84  H    0.176171
    85  H    0.176938
    86  H    0.135096
    87  H    0.171335
    88  H    0.168414
    89  H    0.177162
    90  H    0.144086
    91  O   -0.272098
    92  H    0.283418
    93  O   -0.270925
    94  H    0.283366
 Sum of Mulliken charges =   1.00000

 Dipole moment (field-independent basis, Debye):
    X=              0.4546    Y=              3.2935    Z=              1.6251  Tot=              3.7006
 Quadrupole moment (field-independent basis, Debye-Ang):
   XX=           -247.5658   YY=           -271.8907   ZZ=           -298.4136
   XY=             19.9072   XZ=             -6.6727   YZ=            -10.3541

 Summary of Natural Population Analysis:

                                       Natural Population
                Natural  -----------------------------------------------
    Atom  No    Charge         Core      Valence    Rydberg      Total
 -----------------------------------------------------------------------
      P    1    1.87108      9.99539     3.03273    0.10080    13.12892
      P    2    1.86475      9.99555     3.03965    0.10005    13.13525
      O    3   -0.74178      1.99979     6.72821    0.01378     8.74178
      O    4   -0.75207      1.99979     6.73869    0.01359     8.75207
      O    5   -0.74991      1.99977     6.73570    0.01444     8.74991
      O    6   -0.74606      1.99977     6.73170    0.01459     8.74606
      N    7   -1.04663      1.99958     6.02350    0.02355     8.04663
      C    8    0.25349      1.99862     3.72525    0.02264     5.74651
      C    9   -0.24832      1.99906     4.23407    0.01519     6.24832
      H   10    0.22709      0.00000     0.77125    0.00166     0.77291
      C   11   -0.14886      1.99914     4.13593    0.01379     6.14886
      H   12    0.21798      0.00000     0.78063    0.00139     0.78202
      C   13   -0.06459      1.99910     4.04953    0.01596     6.06459
      C   14   -0.17071      1.99914     4.15759    0.01397     6.17071
      H   15    0.21383      0.00000     0.78472    0.00145     0.78617
      C   16   -0.19438      1.99920     4.18038    0.01480     6.19438
      H   17    0.22013      0.00000     0.77869    0.00118     0.77987
      C   18   -0.18427      1.99920     4.17028    0.01479     6.18427
      H   19    0.21904      0.00000     0.77977    0.00119     0.78096
      C   20   -0.18814      1.99913     4.17492    0.01409     6.18814
      H   21    0.22179      0.00000     0.77649    0.00172     0.77821
      C   22   -0.03236      1.99904     4.01682    0.01650     6.03236
      C   23   -0.06054      1.99887     4.04238    0.01929     6.06054
      C   24   -0.06793      1.99887     4.04920    0.01986     6.06793
      C   25   -0.03060      1.99904     4.01480    0.01676     6.03060
      C   26   -0.18901      1.99913     4.17594    0.01393     6.18901
      H   27    0.22123      0.00000     0.77701    0.00176     0.77877
      C   28   -0.18321      1.99920     4.16922    0.01479     6.18321
      H   29    0.21905      0.00000     0.77977    0.00118     0.78095
      C   30   -0.19449      1.99920     4.18047    0.01482     6.19449
      H   31    0.22030      0.00000     0.77855    0.00115     0.77970
      C   32   -0.17024      1.99915     4.15686    0.01423     6.17024
      H   33    0.21414      0.00000     0.78423    0.00162     0.78586
      C   34   -0.06528      1.99909     4.05020    0.01598     6.06528
      C   35   -0.14657      1.99915     4.13327    0.01415     6.14657
      H   36    0.21872      0.00000     0.77973    0.00155     0.78128
      C   37   -0.24758      1.99906     4.23301    0.01552     6.24758
      H   38    0.22148      0.00000     0.77688    0.00165     0.77852
      C   39    0.25979      1.99860     3.71809    0.02352     5.74021
      C   40    0.22030      1.99865     3.75902    0.02203     5.77970
      C   41   -0.22662      1.99906     4.21286    0.01470     6.22662
      H   42    0.22172      0.00000     0.77611    0.00217     0.77828
      C   43   -0.26913      1.99908     4.25541    0.01463     6.26913
      H   44    0.21420      0.00000     0.78423    0.00157     0.78580
      C   45    0.28228      1.99876     3.69964    0.01932     5.71772
      C   46   -0.23368      1.99909     4.21966    0.01493     6.23368
      H   47    0.23456      0.00000     0.76413    0.00131     0.76544
      C   48   -0.22268      1.99907     4.20902    0.01459     6.22268
      H   49    0.22954      0.00000     0.76895    0.00151     0.77046
      C   50    0.20583      1.99865     3.77375    0.02177     5.79417
      C   51   -0.22263      1.99906     4.20850    0.01507     6.22263
      H   52    0.22460      0.00000     0.77381    0.00160     0.77540
      C   53   -0.27086      1.99908     4.25730    0.01448     6.27086
      H   54    0.21494      0.00000     0.78353    0.00154     0.78506
      C   55    0.28637      1.99876     3.69562    0.01925     5.71363
      C   56   -0.23505      1.99910     4.22103    0.01492     6.23505
      H   57    0.23356      0.00000     0.76513    0.00131     0.76644
      C   58   -0.21959      1.99906     4.20609    0.01445     6.21959
      H   59    0.23302      0.00000     0.76518    0.00179     0.76698
      C   60   -0.03763      1.99938     4.01725    0.02101     6.03763
      H   61    0.20957      0.00000     0.78772    0.00271     0.79043
      C   62   -0.60120      1.99942     4.59372    0.00807     6.60120
      H   63    0.20950      0.00000     0.78916    0.00134     0.79050
      H   64    0.21431      0.00000     0.78413    0.00156     0.78569
      H   65    0.22299      0.00000     0.77596    0.00104     0.77701
      C   66   -0.60457      1.99941     4.59747    0.00769     6.60457
      H   67    0.22052      0.00000     0.77825    0.00123     0.77948
      H   68    0.21638      0.00000     0.78259    0.00103     0.78362
      H   69    0.21837      0.00000     0.78023    0.00139     0.78163
     Rh   70   -0.54973     35.98376     9.53573    0.03024    45.54973
      C   71   -0.15815      1.99909     4.13888    0.02017     6.15815
      C   72   -0.16329      1.99910     4.14328    0.02090     6.16329
      C   73   -0.17448      1.99906     4.15528    0.02014     6.17448
      C   74   -0.14455      1.99907     4.12505    0.02042     6.14455
      H   75    0.23617      0.00000     0.76125    0.00257     0.76383
      C   76   -0.42548      1.99936     4.41377    0.01235     6.42548
      H   77    0.23719      0.00000     0.76030    0.00251     0.76281
      C   78   -0.42343      1.99936     4.41119    0.01288     6.42343
      C   79   -0.42448      1.99936     4.41349    0.01163     6.42448
      H   80    0.23456      0.00000     0.76294    0.00251     0.76544
      H   81    0.23842      0.00000     0.75979    0.00179     0.76158
      C   82   -0.42429      1.99935     4.41247    0.01247     6.42429
      H   83    0.21191      0.00000     0.78588    0.00221     0.78809
      H   84    0.23370      0.00000     0.76482    0.00148     0.76630
      H   85    0.23694      0.00000     0.76126    0.00180     0.76306
      H   86    0.22055      0.00000     0.77803    0.00142     0.77945
      H   87    0.23025      0.00000     0.76830    0.00145     0.76975
      H   88    0.21587      0.00000     0.78226    0.00187     0.78413
      H   89    0.23691      0.00000     0.76126    0.00183     0.76309
      H   90    0.22566      0.00000     0.77279    0.00155     0.77434
      O   91   -0.62479      1.99979     6.61347    0.01153     8.62479
      H   92    0.47420      0.00000     0.52187    0.00393     0.52580
      O   93   -0.62337      1.99979     6.61207    0.01151     8.62337
      H   94    0.47437      0.00000     0.52171    0.00391     0.52563
 =======================================================================
   * Total *    1.00000    155.93335   270.96868    1.09797   428.00000

 Normal termination of Gaussian 16 at Mon Jan  1 16:14:35 2001.
