 Gaussian 16, Revision B.01,
 Gaussian 16:  ES64L-G16RevB.01 20-Dec-2017

 ------------------------------------------
 # nmr=giao b3lyp/genecp pop=nbo scfcyc=200
 ------------------------------------------

 -------------
 Ligand 39 SPE
 -------------
 Symbolic Z-matrix:
 Charge =  1 Multiplicity = 1

                         Standard orientation:
 ---------------------------------------------------------------------
 Center     Atomic      Atomic             Coordinates (Angstroms)
 Number     Number       Type             X           Y           Z
 ---------------------------------------------------------------------
      1         15           0       -1.289420   -0.397430   -0.041070
      2         15           0        1.289410   -0.397560    0.041560
      3          8           0       -2.169330   -0.040090   -1.353720
      4          8           0       -2.157670    0.231730    1.190040
      5          8           0        2.169760   -0.040590    1.354000
      6          8           0        2.157340    0.231800   -1.189690
      7          6           0       -2.844129    1.200171   -1.461550
      8          6           0       -2.376339    2.072000   -2.456080
      9          1           0       -1.546759    1.765610   -3.078460
     10          6           0       -2.984399    3.287391   -2.607700
     11          1           0       -2.645859    3.972620   -3.375110
     12          6           0       -4.037729    3.682661   -1.747970
     13          6           0       -4.621189    4.969891   -1.853040
     14          1           0       -4.269189    5.636421   -2.631420
     15          6           0       -5.596909    5.374331   -0.980460
     16          1           0       -6.031129    6.362331   -1.065590
     17          6           0       -6.024139    4.505721    0.044550
     18          1           0       -6.775519    4.839011    0.749430
     19          6           0       -5.493769    3.245661    0.163310
     20          1           0       -5.830379    2.600411    0.961670
     21          6           0       -4.500609    2.782241   -0.736280
     22          6           0       -3.914839    1.473261   -0.639670
     23          6           0       -4.399490    0.454661    0.331560
     24          6           0       -5.761230   -0.002689    0.358720
     25          6           0       -6.709350    0.364111   -0.629680
     26          1           0       -6.406190    1.010941   -1.440210
     27          6           0       -8.000520   -0.097549   -0.577090
     28          1           0       -8.704290    0.190981   -1.347710
     29          6           0       -8.420850   -0.946919    0.467040
     30          1           0       -9.445770   -1.293939    0.499640
     31          6           0       -7.526550   -1.340719    1.427490
     32          1           0       -7.834060   -2.007399    2.224450
     33          6           0       -6.180140   -0.899679    1.392880
     34          6           0       -5.239310   -1.348989    2.351310
     35          1           0       -5.570200   -2.007049    3.145610
     36          6           0       -3.925210   -0.977239    2.267240
     37          1           0       -3.186850   -1.320689    2.979820
     38          6           0       -3.526970   -0.102559    1.242340
     39          6           0        2.844581    1.199660    1.461920
     40          6           0        2.377071    2.071280    2.456760
     41          1           0        1.547681    1.764750    3.079330
     42          6           0        2.985171    3.286640    2.608460
     43          1           0        2.646861    3.971710    3.376120
     44          6           0        4.038261    3.682090    1.748520
     45          6           0        4.621751    4.969290    1.853690
     46          1           0        4.269971    5.635670    2.632310
     47          6           0        5.597221    5.373920    0.980920
     48          1           0        6.031471    6.361900    1.066130
     49          6           0        6.024171    4.505530   -0.044390
     50          1           0        6.775351    4.838959   -0.749410
     51          6           0        5.493761    3.245490   -0.163270
     52          1           0        5.830151    2.600410   -0.961860
     53          6           0        4.500851    2.781890    0.736500
     54          6           0        3.915041    1.472940    0.639770
     55          6           0        4.399400    0.454530   -0.331810
     56          6           0        5.761140   -0.002800   -0.359470
     57          6           0        6.709560    0.363819    0.628710
     58          1           0        6.406640    1.010490    1.439460
     59          6           0        8.000710   -0.097831    0.575640
     60          1           0        8.704720    0.190559    1.346100
     61          6           0        8.420740   -0.947001   -0.468780
     62          1           0        9.445650   -1.294011   -0.501760
     63          6           0        7.526140   -1.340621   -1.429030
     64          1           0        7.833410   -2.007151   -2.226210
     65          6           0        6.179740   -0.899590   -1.393930
     66          6           0        5.238620   -1.348720   -2.352160
     67          1           0        5.569270   -2.006640   -3.146680
     68          6           0        3.924540   -0.976990   -2.267620
     69          1           0        3.185980   -1.320310   -2.980050
     70          6           0        3.526620   -0.102500   -1.242440
     71         45           0       -0.000080   -2.293680    0.000120
     72          6           0       -1.496800   -3.981760    0.486860
     73          6           0       -1.426740   -3.835390   -0.879330
     74          6           0        1.496580   -3.981850   -0.486470
     75          6           0        1.426540   -3.835360    0.879710
     76          1           0       -2.294770   -3.448910    0.993190
     77          6           0       -0.802820   -5.053920    1.305030
     78          1           0       -2.187440   -3.221550   -1.351730
     79          6           0       -0.585000   -4.636420   -1.839690
     80          6           0        0.802570   -5.054070   -1.304540
     81          1           0        2.294550   -3.449050   -0.992870
     82          1           0        2.187260   -3.221510    1.352050
     83          6           0        0.584770   -4.636270    1.840130
     84          1           0       -0.726490   -5.969060    0.719160
     85          1           0       -1.437340   -5.295820    2.158940
     86          1           0       -1.142900   -5.527820   -2.152400
     87          1           0       -0.455630   -4.037170   -2.743230
     88          1           0        1.437090   -5.296080   -2.158420
     89          1           0        0.726200   -5.969150   -0.718570
     90          1           0        1.142630   -5.527670    2.152930
     91          1           0        0.455430   -4.036930    2.743620
     92          8           0        0.000030    0.669040    0.000540
 ---------------------------------------------------------------------

 SCF Done:  E(RB3LYP) =  -3020.95363129     A.U. after   20 cycles

      1  P    Isotropic =   158.7046   Anisotropy =   218.8135

      2  P    Isotropic =   158.6944   Anisotropy =   218.8229

      3  O    Isotropic =   130.0838   Anisotropy =    78.1208

      4  O    Isotropic =   124.3909   Anisotropy =    97.5513

      5  O    Isotropic =   130.0946   Anisotropy =    78.1135

      6  O    Isotropic =   124.3812   Anisotropy =    97.5539

      7  C    Isotropic =    29.8194   Anisotropy =    98.8604

      8  C    Isotropic =    60.9270   Anisotropy =   148.8381

      9  H    Isotropic =    24.2738   Anisotropy =     7.9628

     10  C    Isotropic =    46.6991   Anisotropy =   165.9173

     11  H    Isotropic =    23.7436   Anisotropy =     7.5598

     12  C    Isotropic =    45.0643   Anisotropy =   214.6185

     13  C    Isotropic =    49.9132   Anisotropy =   164.5680

     14  H    Isotropic =    23.7748   Anisotropy =     7.5789

     15  C    Isotropic =    51.2375   Anisotropy =   185.7426

     16  H    Isotropic =    24.0967   Anisotropy =     4.2384

     17  C    Isotropic =    50.5792   Anisotropy =   187.0919

     18  H    Isotropic =    24.3026   Anisotropy =     7.8303

     19  C    Isotropic =    51.5154   Anisotropy =   177.5944

     20  H    Isotropic =    24.5738   Anisotropy =    14.8703

     21  C    Isotropic =    45.7796   Anisotropy =   203.8051

     22  C    Isotropic =    55.5485   Anisotropy =   137.5830

     23  C    Isotropic =    52.6810   Anisotropy =   140.5490

     24  C    Isotropic =    44.8524   Anisotropy =   204.6179

     25  C    Isotropic =    50.7223   Anisotropy =   179.3532

     26  H    Isotropic =    24.4444   Anisotropy =    14.5785

     27  C    Isotropic =    50.1604   Anisotropy =   187.9321

     28  H    Isotropic =    24.2483   Anisotropy =     7.7272

     29  C    Isotropic =    50.9394   Anisotropy =   186.6805

     30  H    Isotropic =    24.0354   Anisotropy =     4.3344

     31  C    Isotropic =    50.4501   Anisotropy =   164.4681

     32  H    Isotropic =    23.7017   Anisotropy =     7.5951

     33  C    Isotropic =    45.1307   Anisotropy =   212.9327

     34  C    Isotropic =    47.3424   Anisotropy =   164.8674

     35  H    Isotropic =    23.6457   Anisotropy =     7.5527

     36  C    Isotropic =    62.0182   Anisotropy =   145.8985

     37  H    Isotropic =    24.2072   Anisotropy =     7.4274

     38  C    Isotropic =    30.8255   Anisotropy =    98.8214

     39  C    Isotropic =    29.8192   Anisotropy =    98.8559

     40  C    Isotropic =    60.9279   Anisotropy =   148.8384

     41  H    Isotropic =    24.2737   Anisotropy =     7.9630

     42  C    Isotropic =    46.6992   Anisotropy =   165.9161

     43  H    Isotropic =    23.7434   Anisotropy =     7.5594

     44  C    Isotropic =    45.0645   Anisotropy =   214.6186

     45  C    Isotropic =    49.9135   Anisotropy =   164.5667

     46  H    Isotropic =    23.7746   Anisotropy =     7.5785

     47  C    Isotropic =    51.2372   Anisotropy =   185.7422

     48  H    Isotropic =    24.0966   Anisotropy =     4.2382

     49  C    Isotropic =    50.5778   Anisotropy =   187.0944

     50  H    Isotropic =    24.3025   Anisotropy =     7.8305

     51  C    Isotropic =    51.5142   Anisotropy =   177.5967

     52  H    Isotropic =    24.5735   Anisotropy =    14.8703

     53  C    Isotropic =    45.7821   Anisotropy =   203.8019

     54  C    Isotropic =    55.5478   Anisotropy =   137.5875

     55  C    Isotropic =    52.6820   Anisotropy =   140.5433

     56  C    Isotropic =    44.8493   Anisotropy =   204.6118

     57  C    Isotropic =    50.7239   Anisotropy =   179.3544

     58  H    Isotropic =    24.4444   Anisotropy =    14.5785

     59  C    Isotropic =    50.1605   Anisotropy =   187.9321

     60  H    Isotropic =    24.2482   Anisotropy =     7.7272

     61  C    Isotropic =    50.9399   Anisotropy =   186.6846

     62  H    Isotropic =    24.0352   Anisotropy =     4.3346

     63  C    Isotropic =    50.4494   Anisotropy =   164.4699

     64  H    Isotropic =    23.7015   Anisotropy =     7.5953

     65  C    Isotropic =    45.1322   Anisotropy =   212.9375

     66  C    Isotropic =    47.3410   Anisotropy =   164.8693

     67  H    Isotropic =    23.6457   Anisotropy =     7.5527

     68  C    Isotropic =    62.0180   Anisotropy =   145.8995

     69  H    Isotropic =    24.2072   Anisotropy =     7.4278

     70  C    Isotropic =    30.8271   Anisotropy =    98.8227

     71  Rh   Isotropic =  -294.8341   Anisotropy =   357.0114

     72  C    Isotropic =    73.0903   Anisotropy =   130.6946

     73  C    Isotropic =    68.7874   Anisotropy =   130.7112

     74  C    Isotropic =    73.0959   Anisotropy =   130.6843

     75  C    Isotropic =    68.7864   Anisotropy =   130.7134

     76  H    Isotropic =    26.8393   Anisotropy =     8.7667

     77  C    Isotropic =   154.3190   Anisotropy =    24.4495

     78  H    Isotropic =    26.1240   Anisotropy =     2.8617

     79  C    Isotropic =   148.2960   Anisotropy =    30.0853

     80  C    Isotropic =   154.3195   Anisotropy =    24.4482

     81  H    Isotropic =    26.8400   Anisotropy =     8.7663

     82  H    Isotropic =    26.1235   Anisotropy =     2.8609

     83  C    Isotropic =   148.2956   Anisotropy =    30.0852

     84  H    Isotropic =    29.8009   Anisotropy =     9.0344

     85  H    Isotropic =    29.9014   Anisotropy =    11.5457

     86  H    Isotropic =    29.2182   Anisotropy =    12.0526

     87  H    Isotropic =    29.0711   Anisotropy =     7.2686

     88  H    Isotropic =    29.9015   Anisotropy =    11.5457

     89  H    Isotropic =    29.8009   Anisotropy =     9.0345

     90  H    Isotropic =    29.2180   Anisotropy =    12.0527

     91  H    Isotropic =    29.0708   Anisotropy =     7.2685

     92  O    Isotropic =   -35.8180   Anisotropy =   197.8600

 The electronic state is 1-A.
 Alpha  occ. eigenvalues --  -77.34546 -77.34546 -19.28174 -19.28174 -19.28024
 Alpha  occ. eigenvalues --  -19.27929 -19.27928 -10.33903 -10.33902 -10.33526
 Alpha  occ. eigenvalues --  -10.33525 -10.30720 -10.30720 -10.30506 -10.30506
 Alpha  occ. eigenvalues --  -10.28920 -10.28920 -10.28734 -10.28734 -10.28562
 Alpha  occ. eigenvalues --  -10.28561 -10.28551 -10.28551 -10.27966 -10.27966
 Alpha  occ. eigenvalues --  -10.27531 -10.27531 -10.27409 -10.27409 -10.27300
 Alpha  occ. eigenvalues --  -10.27300 -10.27212 -10.27212 -10.26845 -10.26844
 Alpha  occ. eigenvalues --  -10.26586 -10.26586 -10.26516 -10.26515 -10.25810
 Alpha  occ. eigenvalues --  -10.25810 -10.25644 -10.25644 -10.25579 -10.25579
 Alpha  occ. eigenvalues --  -10.25512 -10.25512 -10.25293 -10.25293 -10.25221
 Alpha  occ. eigenvalues --  -10.25221 -10.25153 -10.25153 -10.25016 -10.25016
 Alpha  occ. eigenvalues --   -6.79243  -6.79242  -4.95661  -4.95657  -4.95592
 Alpha  occ. eigenvalues --   -4.95591  -4.95079  -4.95078  -3.34170  -2.11388
 Alpha  occ. eigenvalues --   -2.10431  -2.07328  -1.21788  -1.20117  -1.15836
 Alpha  occ. eigenvalues --   -1.15815  -1.14966  -0.97883  -0.97780  -0.96129
 Alpha  occ. eigenvalues --   -0.96128  -0.95881  -0.92119  -0.91941  -0.90996
 Alpha  occ. eigenvalues --   -0.90989  -0.90754  -0.89319  -0.88937  -0.88936
 Alpha  occ. eigenvalues --   -0.84971  -0.84962  -0.84572  -0.83873  -0.83006
 Alpha  occ. eigenvalues --   -0.83001  -0.82246  -0.82196  -0.81741  -0.80132
 Alpha  occ. eigenvalues --   -0.80095  -0.79212  -0.78528  -0.76628  -0.72808
 Alpha  occ. eigenvalues --   -0.72559  -0.72316  -0.71948  -0.71909  -0.70775
 Alpha  occ. eigenvalues --   -0.70698  -0.69972  -0.69838  -0.68955  -0.68338
 Alpha  occ. eigenvalues --   -0.67096  -0.66591  -0.66541  -0.64940  -0.64423
 Alpha  occ. eigenvalues --   -0.63772  -0.63371  -0.62979  -0.61873  -0.61693
 Alpha  occ. eigenvalues --   -0.61243  -0.61165  -0.60995  -0.59832  -0.59665
 Alpha  occ. eigenvalues --   -0.58539  -0.58280  -0.58256  -0.57561  -0.57476
 Alpha  occ. eigenvalues --   -0.57130  -0.56388  -0.56257  -0.54967  -0.54958
 Alpha  occ. eigenvalues --   -0.54869  -0.54140  -0.53980  -0.53890  -0.53854
 Alpha  occ. eigenvalues --   -0.53799  -0.53763  -0.53034  -0.52781  -0.52624
 Alpha  occ. eigenvalues --   -0.52448  -0.51449  -0.51391  -0.51262  -0.51153
 Alpha  occ. eigenvalues --   -0.50912  -0.50668  -0.50523  -0.50456  -0.50119
 Alpha  occ. eigenvalues --   -0.49253  -0.49045  -0.49006  -0.48389  -0.48284
 Alpha  occ. eigenvalues --   -0.48211  -0.47892  -0.47690  -0.47297  -0.47295
 Alpha  occ. eigenvalues --   -0.47225  -0.46898  -0.45919  -0.45852  -0.45416
 Alpha  occ. eigenvalues --   -0.44987  -0.44462  -0.44445  -0.44246  -0.43918
 Alpha  occ. eigenvalues --   -0.43472  -0.43353  -0.43177  -0.42999  -0.42655
 Alpha  occ. eigenvalues --   -0.42439  -0.41705  -0.41600  -0.41257  -0.41237
 Alpha  occ. eigenvalues --   -0.40951  -0.40858  -0.39177  -0.39005  -0.38374
 Alpha  occ. eigenvalues --   -0.38214  -0.37709  -0.37425  -0.36780  -0.36780
 Alpha  occ. eigenvalues --   -0.36231  -0.33669  -0.33620  -0.33040  -0.33019
 Alpha  occ. eigenvalues --   -0.32965  -0.31008  -0.31007  -0.30075  -0.30072
 Alpha virt. eigenvalues --   -0.18096  -0.16503  -0.14440  -0.14375  -0.12752
 Alpha virt. eigenvalues --   -0.12723  -0.11003  -0.10885  -0.10821  -0.10124
 Alpha virt. eigenvalues --   -0.09978  -0.09977  -0.07503  -0.07274  -0.07167

 Mulliken charges:
               1
     1  P    0.772823
     2  P    0.772837
     3  O   -0.299199
     4  O   -0.285268
     5  O   -0.299205
     6  O   -0.285271
     7  C    0.110189
     8  C   -0.125821
     9  H    0.131250
    10  C   -0.160609
    11  H    0.120605
    12  C    0.031184
    13  C   -0.133006
    14  H    0.118249
    15  C   -0.085070
    16  H    0.124028
    17  C   -0.072079
    18  H    0.122335
    19  C   -0.118228
    20  H    0.154254
    21  C    0.000896
    22  C    0.044652
    23  C    0.009946
    24  C    0.031283
    25  C   -0.116479
    26  H    0.156647
    27  C   -0.070255
    28  H    0.124970
    29  C   -0.083774
    30  H    0.125649
    31  C   -0.137260
    32  H    0.117449
    33  C    0.024511
    34  C   -0.138916
    35  H    0.119656
    36  C   -0.206867
    37  H    0.139162
    38  C    0.063445
    39  C    0.110183
    40  C   -0.125808
    41  H    0.131246
    42  C   -0.160609
    43  H    0.120607
    44  C    0.031201
    45  C   -0.133009
    46  H    0.118248
    47  C   -0.085066
    48  H    0.124029
    49  C   -0.072084
    50  H    0.122336
    51  C   -0.118225
    52  H    0.154258
    53  C    0.000875
    54  C    0.044642
    55  C    0.009972
    56  C    0.031269
    57  C   -0.116475
    58  H    0.156651
    59  C   -0.070266
    60  H    0.124970
    61  C   -0.083767
    62  H    0.125650
    63  C   -0.137267
    64  H    0.117448
    65  C    0.024511
    66  C   -0.138919
    67  H    0.119653
    68  C   -0.206849
    69  H    0.139159
    70  C    0.063448
    71  Rh  -0.664715
    72  C   -0.024198
    73  C   -0.097981
    74  C   -0.024183
    75  C   -0.098016
    76  H    0.216818
    77  C   -0.351074
    78  H    0.196770
    79  C   -0.219718
    80  C   -0.351073
    81  H    0.216814
    82  H    0.196784
    83  C   -0.219708
    84  H    0.169374
    85  H    0.175689
    86  H    0.181691
    87  H    0.145579
    88  H    0.175692
    89  H    0.169370
    90  H    0.181688
    91  H    0.145577
    92  O   -0.341907
 Sum of Mulliken charges =   1.00000

 Dipole moment (field-independent basis, Debye):
    X=              0.0001    Y=             -5.6669    Z=              0.0000  Tot=              5.6669
 Quadrupole moment (field-independent basis, Debye-Ang):
   XX=           -223.6720   YY=           -261.1651   ZZ=           -320.7830
   XY=              0.0056   XZ=             -7.7550   YZ=             -0.0009

 Summary of Natural Population Analysis:

                                       Natural Population
                Natural  -----------------------------------------------
    Atom  No    Charge         Core      Valence    Rydberg      Total
 -----------------------------------------------------------------------
      P    1    1.93287      9.99567     2.95902    0.11244    13.06713
      P    2    1.93288      9.99567     2.95901    0.11244    13.06712
      O    3   -0.74320      1.99979     6.73031    0.01309     8.74320
      O    4   -0.72836      1.99979     6.71493    0.01364     8.72836
      O    5   -0.74320      1.99979     6.73031    0.01309     8.74320
      O    6   -0.72837      1.99979     6.71494    0.01364     8.72837
      C    7    0.25840      1.99859     3.71990    0.02311     5.74160
      C    8   -0.23512      1.99906     4.22099    0.01508     6.23512
      H    9    0.23145      0.00000     0.76709    0.00146     0.76855
      C   10   -0.14240      1.99915     4.12909    0.01416     6.14240
      H   11    0.21925      0.00000     0.77922    0.00153     0.78075
      C   12   -0.06155      1.99910     4.04658    0.01587     6.06155
      C   13   -0.16919      1.99915     4.15582    0.01423     6.16919
      H   14    0.21430      0.00000     0.78408    0.00162     0.78570
      C   15   -0.19456      1.99920     4.18054    0.01482     6.19456
      H   16    0.21962      0.00000     0.77923    0.00115     0.78038
      C   17   -0.18430      1.99920     4.17028    0.01482     6.18430
      H   18    0.21827      0.00000     0.78054    0.00119     0.78173
      C   19   -0.18898      1.99913     4.17596    0.01389     6.18898
      H   20    0.22002      0.00000     0.77820    0.00178     0.77998
      C   21   -0.03062      1.99904     4.01463    0.01696     6.03062
      C   22   -0.06805      1.99886     4.04947    0.01972     6.06805
      C   23   -0.05676      1.99887     4.03847    0.01942     6.05676
      C   24   -0.03274      1.99904     4.01700    0.01670     6.03274
      C   25   -0.18652      1.99913     4.17330    0.01409     6.18652
      H   26    0.22314      0.00000     0.77515    0.00171     0.77686
      C   27   -0.18369      1.99920     4.16971    0.01477     6.18369
      H   28    0.21952      0.00000     0.77929    0.00119     0.78048
      C   29   -0.19300      1.99920     4.17903    0.01477     6.19300
      H   30    0.22028      0.00000     0.77855    0.00118     0.77972
      C   31   -0.17109      1.99914     4.15797    0.01398     6.17109
      H   32    0.21398      0.00000     0.78456    0.00145     0.78602
      C   33   -0.06349      1.99910     4.04842    0.01597     6.06349
      C   34   -0.14796      1.99914     4.13486    0.01396     6.14796
      H   35    0.21838      0.00000     0.78024    0.00138     0.78162
      C   36   -0.24997      1.99906     4.23559    0.01532     6.24997
      H   37    0.22810      0.00000     0.77037    0.00154     0.77190
      C   38    0.24596      1.99860     3.73295    0.02249     5.75404
      C   39    0.25839      1.99859     3.71991    0.02311     5.74161
      C   40   -0.23513      1.99906     4.22099    0.01507     6.23513
      H   41    0.23145      0.00000     0.76709    0.00146     0.76855
      C   42   -0.14240      1.99915     4.12909    0.01416     6.14240
      H   43    0.21925      0.00000     0.77922    0.00153     0.78075
      C   44   -0.06155      1.99910     4.04658    0.01587     6.06155
      C   45   -0.16919      1.99915     4.15582    0.01423     6.16919
      H   46    0.21430      0.00000     0.78408    0.00162     0.78570
      C   47   -0.19455      1.99920     4.18054    0.01482     6.19455
      H   48    0.21962      0.00000     0.77923    0.00115     0.78038
      C   49   -0.18430      1.99920     4.17028    0.01482     6.18430
      H   50    0.21827      0.00000     0.78054    0.00119     0.78173
      C   51   -0.18898      1.99913     4.17595    0.01389     6.18898
      H   52    0.22002      0.00000     0.77820    0.00178     0.77998
      C   53   -0.03063      1.99904     4.01463    0.01696     6.03063
      C   54   -0.06804      1.99886     4.04946    0.01972     6.06804
      C   55   -0.05677      1.99887     4.03848    0.01942     6.05677
      C   56   -0.03273      1.99904     4.01700    0.01670     6.03273
      C   57   -0.18652      1.99913     4.17331    0.01409     6.18652
      H   58    0.22314      0.00000     0.77515    0.00171     0.77686
      C   59   -0.18369      1.99920     4.16971    0.01477     6.18369
      H   60    0.21952      0.00000     0.77929    0.00119     0.78048
      C   61   -0.19300      1.99920     4.17903    0.01477     6.19300
      H   62    0.22028      0.00000     0.77855    0.00118     0.77972
      C   63   -0.17109      1.99914     4.15797    0.01398     6.17109
      H   64    0.21398      0.00000     0.78456    0.00145     0.78602
      C   65   -0.06349      1.99910     4.04843    0.01597     6.06349
      C   66   -0.14796      1.99914     4.13485    0.01396     6.14796
      H   67    0.21838      0.00000     0.78024    0.00138     0.78162
      C   68   -0.24997      1.99906     4.23558    0.01532     6.24997
      H   69    0.22810      0.00000     0.77037    0.00154     0.77190
      C   70    0.24596      1.99860     3.73295    0.02249     5.75404
     Rh   71   -0.60575     35.98398     9.59616    0.02561    45.60575
      C   72   -0.16048      1.99905     4.14104    0.02039     6.16048
      C   73   -0.14238      1.99906     4.12215    0.02116     6.14238
      C   74   -0.16050      1.99905     4.14106    0.02039     6.16050
      C   75   -0.14236      1.99906     4.12213    0.02116     6.14236
      H   76    0.23420      0.00000     0.76325    0.00256     0.76580
      C   77   -0.42517      1.99936     4.41406    0.01174     6.42517
      H   78    0.24226      0.00000     0.75624    0.00151     0.75774
      C   79   -0.42783      1.99936     4.41603    0.01244     6.42783
      C   80   -0.42517      1.99936     4.41406    0.01174     6.42517
      H   81    0.23420      0.00000     0.76325    0.00256     0.76580
      H   82    0.24226      0.00000     0.75624    0.00151     0.75774
      C   83   -0.42783      1.99936     4.41603    0.01244     6.42783
      H   84    0.21371      0.00000     0.78425    0.00203     0.78629
      H   85    0.23325      0.00000     0.76534    0.00140     0.76675
      H   86    0.24090      0.00000     0.75738    0.00171     0.75910
      H   87    0.22559      0.00000     0.77293    0.00148     0.77441
      H   88    0.23326      0.00000     0.76534    0.00140     0.76674
      H   89    0.21371      0.00000     0.78425    0.00203     0.78629
      H   90    0.24091      0.00000     0.75738    0.00171     0.75909
      H   91    0.22559      0.00000     0.77293    0.00148     0.77441
      O   92   -0.96640      1.99984     6.95456    0.01199     8.96640
 =======================================================================
   * Total *    1.00000    161.92990   274.91874    1.15136   438.00000

 Normal termination of Gaussian 16 at Wed Nov  6 00:36:37 2024.
