 Gaussian 16, Revision B.01,
 Gaussian 16:  ES64L-G16RevB.01 20-Dec-2017

 ------------------------------------------
 # nmr=giao b3lyp/genecp pop=nbo scfcyc=200
 ------------------------------------------

 ------------
 Ligand 3 SPE
 ------------
 Symbolic Z-matrix:
 Charge =  1 Multiplicity = 1

                         Standard orientation:
 ---------------------------------------------------------------------
 Center     Atomic      Atomic             Coordinates (Angstroms)
 Number     Number       Type             X           Y           Z
 ---------------------------------------------------------------------
      1          6           0       -0.011270   -1.966540    0.765890
      2          1           0       -0.305629   -2.954211    0.410010
      3          1           0        0.464200   -2.076660    1.741960
      4          6           0       -1.913161   -0.682622    2.658060
      5          1           0       -2.206190   -1.680092    2.984190
      6          1           0       -2.757151   -0.004342    2.785720
      7          1           0       -1.090861   -0.328991    3.279250
      8          6           0        0.879360   -1.734760   -2.033200
      9          1           0        1.162431   -2.787620   -2.038010
     10          1           0        1.480880   -1.198150   -2.766040
     11          1           0       -0.165970   -1.643591   -2.325720
     12          6           0       -1.399973    2.868019    0.013090
     13          1           0       -2.375542    2.424578   -0.149920
     14          6           0       -0.868612    2.747599    1.280490
     15          1           0       -1.481642    2.256369    2.028880
     16          6           0        0.303527    3.510700    1.845520
     17          1           0       -0.041413    4.471090    2.248690
     18          1           0        0.684727    2.949180    2.701300
     19          6           0        1.452897    3.747130    0.843850
     20          1           0        2.368237    3.937201    1.406710
     21          1           0        1.269666    4.647830    0.258890
     22          6           0        1.696898    2.574230   -0.087370
     23          1           0        2.571058    1.977041    0.145380
     24          6           0        1.144258    2.414010   -1.340640
     25          1           0        1.644278    1.730420   -2.019660
     26          6           0        0.124267    3.308160   -1.999970
     27          1           0        0.631587    4.138830   -2.506220
     28          1           0       -0.360232    2.730719   -2.790450
     29          6           0       -0.955443    3.861069   -1.044610
     30          1           0       -0.607984    4.776369   -0.566200
     31          1           0       -1.825803    4.146109   -1.637790
     32         15           0       -1.368321   -0.682021    0.891350
     33         15           0        1.110920   -0.981060   -0.360170
     34         45           0       -0.007341    1.066070    0.052300
     35          6           0       -2.806480   -1.364072   -0.101910
     36          6           0       -3.366509   -2.689532    0.443720
     37          6           0       -3.927191   -0.324043   -0.281060
     38          1           0       -2.367070   -1.553622   -1.088550
     39          6           0       -4.481519   -3.229823   -0.464340
     40          1           0       -3.777609   -2.528053    1.444920
     41          1           0       -2.576109   -3.438012    0.543700
     42          6           0       -5.051810   -0.870373   -1.173030
     43          1           0       -4.344091   -0.059473    0.697160
     44          1           0       -3.524261    0.592908   -0.715940
     45          6           0       -5.600150   -2.201534   -0.652300
     46          1           0       -4.879549   -4.153513   -0.038000
     47          1           0       -4.058159   -3.494173   -1.439760
     48          1           0       -5.851621   -0.129524   -1.242720
     49          1           0       -4.666090   -1.007683   -2.189450
     50          1           0       -6.356159   -2.589614   -1.338310
     51          1           0       -6.106170   -2.037274    0.305730
     52          6           0        2.876300   -1.364729    0.138390
     53          6           0        3.170091   -2.868169    0.287000
     54          6           0        3.892719   -0.699928   -0.809200
     55          1           0        2.969420   -0.893919    1.124260
     56          6           0        4.610581   -3.098738    0.769820
     57          1           0        3.036391   -3.366959   -0.678420
     58          1           0        2.470101   -3.334369    0.984620
     59          6           0        5.331070   -0.934327   -0.324640
     60          1           0        3.785510   -1.122948   -1.813510
     61          1           0        3.700529    0.372202   -0.896670
     62          6           0        5.632230   -2.425467   -0.150630
     63          1           0        4.803391   -4.172148    0.833230
     64          1           0        4.716331   -2.703018    1.785980
     65          1           0        6.030389   -0.484357   -1.033030
     66          1           0        5.477929   -0.416917    0.629900
     67          1           0        6.640821   -2.560677    0.245880
     68          1           0        5.616331   -2.915407   -1.130720
 ---------------------------------------------------------------------

 SCF Done:  E(RB3LYP) =  -1695.29201812     A.U. after   14 cycles

      1  C    Isotropic =   141.4467   Anisotropy =    48.3295

      2  H    Isotropic =    29.2247   Anisotropy =     8.3211

      3  H    Isotropic =    29.3179   Anisotropy =     4.9118

      4  C    Isotropic =   174.5349   Anisotropy =    21.1928

      5  H    Isotropic =    30.4120   Anisotropy =    10.1420

      6  H    Isotropic =    30.8208   Anisotropy =     8.9546

      7  H    Isotropic =    30.7986   Anisotropy =     8.5330

      8  C    Isotropic =   174.5641   Anisotropy =    22.0489

      9  H    Isotropic =    30.4452   Anisotropy =    10.2243

     10  H    Isotropic =    30.6330   Anisotropy =     8.7509

     11  H    Isotropic =    30.7131   Anisotropy =     7.9310

     12  C    Isotropic =    79.8687   Anisotropy =   120.5586

     13  H    Isotropic =    27.0681   Anisotropy =     6.7811

     14  C    Isotropic =    76.2750   Anisotropy =   117.1668

     15  H    Isotropic =    26.6690   Anisotropy =     4.2497

     16  C    Isotropic =   147.5678   Anisotropy =    30.5440

     17  H    Isotropic =    29.1293   Anisotropy =    12.4421

     18  H    Isotropic =    29.1466   Anisotropy =     7.7050

     19  C    Isotropic =   153.8041   Anisotropy =    25.2825

     20  H    Isotropic =    29.8591   Anisotropy =    11.2956

     21  H    Isotropic =    29.7874   Anisotropy =     9.0932

     22  C    Isotropic =    78.4988   Anisotropy =   122.3705

     23  H    Isotropic =    26.8262   Anisotropy =     6.9576

     24  C    Isotropic =    79.5283   Anisotropy =   113.9718

     25  H    Isotropic =    26.5667   Anisotropy =     4.4363

     26  C    Isotropic =   147.9339   Anisotropy =    29.9187

     27  H    Isotropic =    29.1333   Anisotropy =    12.3769

     28  H    Isotropic =    29.2339   Anisotropy =     7.7757

     29  C    Isotropic =   154.1562   Anisotropy =    24.8308

     30  H    Isotropic =    29.8467   Anisotropy =     9.2855

     31  H    Isotropic =    29.8946   Anisotropy =    11.3525

     32  P    Isotropic =   325.5794   Anisotropy =    78.8725

     33  P    Isotropic =   329.3279   Anisotropy =    77.8573

     34  Rh   Isotropic =  -314.1382   Anisotropy =   347.0286

     35  C    Isotropic =   136.4497   Anisotropy =    26.5865

     36  C    Isotropic =   156.4309   Anisotropy =     8.8457

     37  C    Isotropic =   152.5727   Anisotropy =    11.3071

     38  H    Isotropic =    30.2621   Anisotropy =     5.6815

     39  C    Isotropic =   154.2524   Anisotropy =     7.0913

     40  H    Isotropic =    30.7710   Anisotropy =     5.8021

     41  H    Isotropic =    30.3039   Anisotropy =     5.9518

     42  C    Isotropic =   154.0080   Anisotropy =     7.9532

     43  H    Isotropic =    30.8249   Anisotropy =     4.6890

     44  H    Isotropic =    30.1968   Anisotropy =     9.6341

     45  C    Isotropic =   156.2376   Anisotropy =     2.1561

     46  H    Isotropic =    29.9579   Anisotropy =    10.9041

     47  H    Isotropic =    30.5950   Anisotropy =     7.9283

     48  H    Isotropic =    29.9795   Anisotropy =    10.1616

     49  H    Isotropic =    30.4874   Anisotropy =     7.5869

     50  H    Isotropic =    30.0832   Anisotropy =    11.3958

     51  H    Isotropic =    30.6097   Anisotropy =     9.1017

     52  C    Isotropic =   135.9728   Anisotropy =    28.7995

     53  C    Isotropic =   155.7640   Anisotropy =     9.2501

     54  C    Isotropic =   153.5366   Anisotropy =    11.9468

     55  H    Isotropic =    30.1662   Anisotropy =     4.5843

     56  C    Isotropic =   154.3989   Anisotropy =     7.6818

     57  H    Isotropic =    30.7322   Anisotropy =     5.2101

     58  H    Isotropic =    30.4627   Anisotropy =     6.3460

     59  C    Isotropic =   154.4053   Anisotropy =     7.7333

     60  H    Isotropic =    30.7878   Anisotropy =     4.5424

     61  H    Isotropic =    30.6476   Anisotropy =     9.1436

     62  C    Isotropic =   156.2240   Anisotropy =     2.3188

     63  H    Isotropic =    29.9991   Anisotropy =    10.7764

     64  H    Isotropic =    30.5513   Anisotropy =     8.2423

     65  H    Isotropic =    30.0506   Anisotropy =    10.2524

     66  H    Isotropic =    30.5526   Anisotropy =     7.6875

     67  H    Isotropic =    30.0977   Anisotropy =    11.4312

     68  H    Isotropic =    30.6126   Anisotropy =     8.9809

 The electronic state is 1-A.
 Alpha  occ. eigenvalues --  -77.23781 -77.23709 -10.30807 -10.30200 -10.30095
 Alpha  occ. eigenvalues --  -10.29683 -10.29631 -10.29545 -10.29414 -10.29397
 Alpha  occ. eigenvalues --  -10.29364 -10.28013 -10.27984 -10.27788 -10.27761
 Alpha  occ. eigenvalues --  -10.27740 -10.27648 -10.27647 -10.27598 -10.26010
 Alpha  occ. eigenvalues --  -10.25999 -10.25989 -10.25945 -10.25336 -10.25311
 Alpha  occ. eigenvalues --   -6.69823  -6.69760  -4.86124  -4.86057  -4.86017
 Alpha  occ. eigenvalues --   -4.85957  -4.85717  -4.85652  -3.32045  -2.08938
 Alpha  occ. eigenvalues --   -2.08277  -2.05480  -0.95023  -0.94440  -0.94136
 Alpha  occ. eigenvalues --   -0.89869  -0.89736  -0.88519  -0.86791  -0.84660
 Alpha  occ. eigenvalues --   -0.84622  -0.83949  -0.83461  -0.81930  -0.80873
 Alpha  occ. eigenvalues --   -0.78349  -0.73507  -0.72478  -0.71398  -0.71248
 Alpha  occ. eigenvalues --   -0.71041  -0.66725  -0.66647  -0.66442  -0.65551
 Alpha  occ. eigenvalues --   -0.65511  -0.63049  -0.60705  -0.58829  -0.58546
 Alpha  occ. eigenvalues --   -0.57674  -0.56972  -0.56706  -0.56225  -0.55032
 Alpha  occ. eigenvalues --   -0.54503  -0.54485  -0.54303  -0.54114  -0.54015
 Alpha  occ. eigenvalues --   -0.53854  -0.53451  -0.53120  -0.53012  -0.52310
 Alpha  occ. eigenvalues --   -0.51878  -0.51015  -0.49036  -0.48792  -0.48730
 Alpha  occ. eigenvalues --   -0.48678  -0.48316  -0.47964  -0.47694  -0.47176
 Alpha  occ. eigenvalues --   -0.46860  -0.46492  -0.45094  -0.44861  -0.44724
 Alpha  occ. eigenvalues --   -0.44670  -0.44042  -0.43803  -0.43677  -0.42978
 Alpha  occ. eigenvalues --   -0.42365  -0.41792  -0.41752  -0.40523  -0.40467
 Alpha  occ. eigenvalues --   -0.40370  -0.40017  -0.37051  -0.36908  -0.35542
 Alpha  occ. eigenvalues --   -0.35100  -0.34284  -0.31265
 Alpha virt. eigenvalues --   -0.16715  -0.14368  -0.09908  -0.08954  -0.08860
 Alpha virt. eigenvalues --   -0.08619  -0.07544  -0.07114  -0.06844  -0.05959
 Alpha virt. eigenvalues --   -0.05517  -0.05160  -0.04781  -0.04513  -0.04029

 Mulliken charges:
               1
     1  C   -0.548720
     2  H    0.205231
     3  H    0.207464
     4  C   -0.482946
     5  H    0.180312
     6  H    0.167214
     7  H    0.167422
     8  C   -0.466548
     9  H    0.167178
    10  H    0.169256
    11  H    0.156877
    12  C   -0.019166
    13  H    0.188944
    14  C   -0.115870
    15  H    0.182557
    16  C   -0.217879
    17  H    0.172754
    18  H    0.130113
    19  C   -0.352084
    20  H    0.169773
    21  H    0.169715
    22  C   -0.028597
    23  H    0.180936
    24  C   -0.086851
    25  H    0.174040
    26  C   -0.219666
    27  H    0.172896
    28  H    0.133090
    29  C   -0.342809
    30  H    0.167513
    31  H    0.169230
    32  P    0.401320
    33  P    0.402211
    34  Rh  -0.512653
    35  C   -0.173356
    36  C   -0.257273
    37  C   -0.257971
    38  H    0.140873
    39  C   -0.236903
    40  H    0.135537
    41  H    0.131167
    42  C   -0.243160
    43  H    0.130458
    44  H    0.117116
    45  C   -0.231665
    46  H    0.150967
    47  H    0.118837
    48  H    0.148510
    49  H    0.120649
    50  H    0.150423
    51  H    0.120151
    52  C   -0.170116
    53  C   -0.256300
    54  C   -0.307684
    55  H    0.166877
    56  C   -0.234443
    57  H    0.131538
    58  H    0.137166
    59  C   -0.239142
    60  H    0.143209
    61  H    0.143025
    62  C   -0.233152
    63  H    0.149605
    64  H    0.120951
    65  H    0.149683
    66  H    0.121164
    67  H    0.151554
    68  H    0.119450
 Sum of Mulliken charges =   1.00000

 Dipole moment (field-independent basis, Debye):
    X=             -0.1429    Y=             -0.9249    Z=              0.5841  Tot=              1.1031
 Quadrupole moment (field-independent basis, Debye-Ang):
   XX=           -148.3536   YY=           -157.2434   ZZ=           -175.7625
   XY=              0.1631   XZ=             -2.3590   YZ=             -0.2762

 Summary of Natural Population Analysis:

                                       Natural Population
                Natural  -----------------------------------------------
    Atom  No    Charge         Core      Valence    Rydberg      Total
 -----------------------------------------------------------------------
      C    1   -0.99361      1.99944     4.97694    0.01723     6.99361
      H    2    0.25137      0.00000     0.74633    0.00231     0.74863
      H    3    0.25970      0.00000     0.73877    0.00153     0.74030
      C    4   -0.90769      1.99942     4.89842    0.00985     6.90769
      H    5    0.24088      0.00000     0.75739    0.00173     0.75912
      H    6    0.24247      0.00000     0.75628    0.00125     0.75753
      H    7    0.24358      0.00000     0.75526    0.00115     0.75642
      C    8   -0.90426      1.99942     4.89444    0.01041     6.90426
      H    9    0.23651      0.00000     0.76156    0.00193     0.76349
      H   10    0.24300      0.00000     0.75582    0.00118     0.75700
      H   11    0.23898      0.00000     0.75970    0.00132     0.76102
      C   12   -0.17320      1.99904     4.15430    0.01986     6.17320
      H   13    0.22271      0.00000     0.77462    0.00267     0.77729
      C   14   -0.15225      1.99905     4.13300    0.02020     6.15225
      H   15    0.22108      0.00000     0.77716    0.00176     0.77892
      C   16   -0.42096      1.99936     4.40914    0.01246     6.42096
      H   17    0.23423      0.00000     0.76398    0.00179     0.76577
      H   18    0.21811      0.00000     0.78038    0.00150     0.78189
      C   19   -0.42487      1.99936     4.41350    0.01201     6.42487
      H   20    0.22904      0.00000     0.76957    0.00140     0.77096
      H   21    0.21490      0.00000     0.78315    0.00195     0.78510
      C   22   -0.16341      1.99904     4.14443    0.01993     6.16341
      H   23    0.22127      0.00000     0.77637    0.00236     0.77873
      C   24   -0.16211      1.99905     4.14272    0.02034     6.16211
      H   25    0.22285      0.00000     0.77513    0.00202     0.77715
      C   26   -0.42149      1.99936     4.40963    0.01250     6.42149
      H   27    0.23455      0.00000     0.76365    0.00180     0.76545
      H   28    0.21914      0.00000     0.77937    0.00149     0.78086
      C   29   -0.42405      1.99936     4.41282    0.01187     6.42405
      H   30    0.21451      0.00000     0.78353    0.00196     0.78549
      H   31    0.22923      0.00000     0.76936    0.00141     0.77077
      P   32    1.12398      9.99679     3.83127    0.04796    13.87602
      P   33    1.12386      9.99681     3.83157    0.04775    13.87614
     Rh   34   -0.42517     35.98557     9.41380    0.02580    45.42517
      C   35   -0.46463      1.99936     4.44815    0.01711     6.46463
      C   36   -0.39461      1.99938     4.38430    0.01094     6.39461
      C   37   -0.39167      1.99937     4.38182    0.01048     6.39167
      H   38    0.21587      0.00000     0.78116    0.00298     0.78413
      C   39   -0.38174      1.99942     4.37253    0.00980     6.38174
      H   40    0.19573      0.00000     0.80180    0.00247     0.80427
      H   41    0.20125      0.00000     0.79649    0.00227     0.79875
      C   42   -0.38271      1.99942     4.37351    0.00978     6.38271
      H   43    0.19275      0.00000     0.80488    0.00237     0.80725
      H   44    0.20950      0.00000     0.78876    0.00174     0.79050
      C   45   -0.39042      1.99942     4.38145    0.00956     6.39042
      H   46    0.21737      0.00000     0.78125    0.00137     0.78263
      H   47    0.19283      0.00000     0.80531    0.00187     0.80717
      H   48    0.21645      0.00000     0.78218    0.00137     0.78355
      H   49    0.19345      0.00000     0.80469    0.00185     0.80655
      H   50    0.21777      0.00000     0.78090    0.00132     0.78223
      H   51    0.19459      0.00000     0.80361    0.00180     0.80541
      C   52   -0.46739      1.99936     4.45182    0.01621     6.46739
      C   53   -0.39319      1.99938     4.38308    0.01073     6.39319
      C   54   -0.39280      1.99937     4.38283    0.01060     6.39280
      H   55    0.22149      0.00000     0.77589    0.00262     0.77851
      C   56   -0.38199      1.99942     4.37276    0.00982     6.38199
      H   57    0.19340      0.00000     0.80401    0.00259     0.80660
      H   58    0.20372      0.00000     0.79438    0.00190     0.79628
      C   59   -0.38249      1.99942     4.37327    0.00980     6.38249
      H   60    0.19472      0.00000     0.80289    0.00239     0.80528
      H   61    0.20610      0.00000     0.79210    0.00180     0.79390
      C   62   -0.39031      1.99942     4.38132    0.00957     6.39031
      H   63    0.21716      0.00000     0.78146    0.00138     0.78284
      H   64    0.19413      0.00000     0.80401    0.00186     0.80587
      H   65    0.21671      0.00000     0.78192    0.00137     0.78329
      H   66    0.19376      0.00000     0.80438    0.00186     0.80624
      H   67    0.21797      0.00000     0.78071    0.00132     0.78203
      H   68    0.19435      0.00000     0.80384    0.00181     0.80565
 =======================================================================
   * Total *    1.00000    101.96383   151.53680    0.49937   254.00000

 Normal termination of Gaussian 16 at Tue Nov  5 12:04:21 2024.
