 Gaussian 16, Revision B.01,
 Gaussian 16:  ES64L-G16RevB.01 20-Dec-2017

 ------------------------------------------
 # nmr=giao b3lyp/genecp pop=nbo scfcyc=200
 ------------------------------------------

 -------------
 Ligand 41 SPE
 -------------
 Symbolic Z-matrix:
 Charge =  1 Multiplicity = 1

                         Standard orientation:
 ---------------------------------------------------------------------
 Center     Atomic      Atomic             Coordinates (Angstroms)
 Number     Number       Type             X           Y           Z
 ---------------------------------------------------------------------
      1         15           0        1.270910   -0.161720   -0.133831
      2         15           0       -1.320900   -0.169750   -0.185991
      3          8           0        2.101900    0.010170    1.270759
      4          8           0        2.346450    0.410150   -1.241291
      5          8           0       -2.429640    0.017010   -1.378361
      6          8           0       -2.135940    0.403900    1.128509
      7          7           0       -0.025560    0.963910   -0.246681
      8          6           0        3.061870    1.002810    1.520689
      9          6           0        2.783850    1.863900    2.596839
     10          1           0        1.875060    1.713200    3.164409
     11          6           0        3.672120    2.854900    2.908499
     12          1           0        3.479480    3.516560    3.744309
     13          6           0        4.838360    3.050540    2.129319
     14          6           0        5.720880    4.127130    2.393609
     15          1           0        5.504870    4.781040    3.230239
     16          6           0        6.815580    4.351400    1.600589
     17          1           0        7.480060    5.180730    1.806979
     18          6           0        7.066030    3.507600    0.499719
     19          1           0        7.915570    3.703920   -0.142381
     20          6           0        6.242270    2.443720    0.228229
     21          1           0        6.451010    1.815880   -0.625671
     22          6           0        5.114790    2.163680    1.041039
     23          6           0        4.225320    1.061980    0.783709
     24          6           0        4.519240    0.042990   -0.260561
     25          6           0        5.739080   -0.719100   -0.268411
     26          6           0        6.668230   -0.684050    0.802069
     27          1           0        6.461040   -0.065560    1.663249
     28          6           0        7.819260   -1.430600    0.765679
     29          1           0        8.508940   -1.392300    1.599549
     30          6           0        8.112700   -2.249790   -0.343651
     31          1           0        9.030400   -2.823780   -0.362111
     32          6           0        7.227400   -2.326750   -1.386661
     33          1           0        7.433440   -2.967030   -2.236261
     34          6           0        6.018910   -1.586690   -1.371931
     35          6           0        5.074340   -1.709350   -2.420231
     36          1           0        5.305970   -2.344970   -3.266351
     37          6           0        3.874690   -1.055300   -2.357341
     38          1           0        3.129700   -1.150470   -3.136401
     39          6           0        3.607170   -0.213400   -1.263181
     40          6           0       -3.450930    0.982200   -1.411481
     41          6           0       -3.471750    1.801100   -2.554281
     42          1           0       -2.737230    1.630280   -3.328661
     43          6           0       -4.427420    2.771470   -2.669631
     44          1           0       -4.462590    3.398850   -3.551991
     45          6           0       -5.362920    2.989890   -1.629631
     46          6           0       -6.297150    4.053200   -1.695821
     47          1           0       -6.301970    4.685110   -2.576071
     48          6           0       -7.166110    4.292040   -0.663631
     49          1           0       -7.871180    5.111530   -0.720691
     50          6           0       -7.129110    3.475990    0.485219
     51          1           0       -7.798140    3.683940    1.310859
     52          6           0       -6.250730    2.424920    0.572009
     53          1           0       -6.235500    1.817630    1.465399
     54          6           0       -5.351280    2.132770   -0.484531
     55          6           0       -4.411410    1.044330   -0.422941
     56          6           0       -4.465400    0.028980    0.662939
     57          6           0       -5.651900   -0.736100    0.940109
     58          6           0       -6.798350   -0.701160    0.106619
     59          1           0       -6.792140   -0.081010   -0.777841
     60          6           0       -7.910580   -1.450020    0.399589
     61          1           0       -8.770370   -1.411150   -0.257471
     62          6           0       -7.945550   -2.272250    1.544219
     63          1           0       -8.834720   -2.847950    1.767609
     64          6           0       -6.847370   -2.350470    2.359929
     65          1           0       -6.855330   -2.993570    3.232069
     66          6           0       -5.674430   -1.607750    2.075359
     67          6           0       -4.516880   -1.734010    2.882179
     68          1           0       -4.550500   -2.376010    3.754159
     69          6           0       -3.363390   -1.075860    2.554829
     70          1           0       -2.460250   -1.177030    3.142069
     71          6           0       -3.352800   -0.226000    1.434499
     72          6           0       -0.131350    2.428390    0.024149
     73          1           0        0.338340    2.627500    0.989739
     74          1           0       -1.197540    2.608950    0.158479
     75         45           0       -0.027730   -2.039770   -0.251231
     76          6           0        1.437630   -3.729210   -0.852621
     77          6           0        1.421450   -3.630360    0.518149
     78          6           0       -1.513060   -3.741720    0.232439
     79          6           0       -1.493310   -3.545240   -1.128851
     80          1           0        2.219010   -3.183070   -1.369621
     81          6           0        0.704920   -4.766790   -1.681671
     82          1           0        2.203000   -3.037100    0.982089
     83          6           0        0.611110   -4.459950    1.481419
     84          6           0       -0.798350   -4.848600    0.984169
     85          1           0       -2.286170   -3.224110    0.789879
     86          1           0       -2.265130   -2.908060   -1.548981
     87          6           0       -0.698080   -4.320550   -2.148571
     88          1           0        0.642630   -5.702350   -1.127111
     89          1           0        1.305510   -4.982510   -2.566841
     90          1           0        1.173050   -5.365690    1.741759
     91          1           0        0.519810   -3.891520    2.409299
     92          1           0       -1.403220   -5.117630    1.851579
     93          1           0       -0.750630   -5.742490    0.363339
     94          1           0       -1.275410   -5.196510   -2.469831
     95          1           0       -0.597340   -3.691370   -3.035441
     96          6           0        0.411140    3.435420   -1.028031
     97          6           0        1.925730    3.651960   -0.887681
     98          1           0        2.189020    3.967570    0.124539
     99          1           0        2.490770    2.753520   -1.125291
    100          1           0        2.252310    4.437330   -1.572551
    101          6           0       -0.298410    4.769280   -0.718941
    102          1           0       -0.119840    5.087860    0.311599
    103          1           0        0.076180    5.556830   -1.375101
    104          1           0       -1.378150    4.693220   -0.867791
    105          6           0        0.077930    2.999760   -2.459081
    106          1           0       -0.997200    2.882230   -2.596611
    107          1           0        0.420400    3.757480   -3.166871
    108          1           0        0.565710    2.058950   -2.717571
 ---------------------------------------------------------------------

 SCF Done:  E(RB3LYP) =  -3197.68991121     A.U. after   20 cycles

      1  P    Isotropic =   159.8350   Anisotropy =   182.4236

      2  P    Isotropic =   159.5214   Anisotropy =   195.5998

      3  O    Isotropic =   136.6770   Anisotropy =    50.8187

      4  O    Isotropic =   129.1845   Anisotropy =    78.4199

      5  O    Isotropic =   134.8436   Anisotropy =    57.0862

      6  O    Isotropic =   137.0848   Anisotropy =    73.2241

      7  N    Isotropic =    53.3083   Anisotropy =    55.3441

      8  C    Isotropic =    25.6060   Anisotropy =   109.8653

      9  C    Isotropic =    61.4147   Anisotropy =   146.9646

     10  H    Isotropic =    24.1569   Anisotropy =     8.0066

     11  C    Isotropic =    46.4364   Anisotropy =   165.7869

     12  H    Isotropic =    23.6431   Anisotropy =     7.5128

     13  C    Isotropic =    45.7979   Anisotropy =   213.6209

     14  C    Isotropic =    49.8816   Anisotropy =   163.3632

     15  H    Isotropic =    23.7653   Anisotropy =     7.6738

     16  C    Isotropic =    51.2586   Anisotropy =   184.4263

     17  H    Isotropic =    24.1242   Anisotropy =     4.0645

     18  C    Isotropic =    50.3440   Anisotropy =   186.8238

     19  H    Isotropic =    24.3508   Anisotropy =     7.8950

     20  C    Isotropic =    51.0020   Anisotropy =   177.4716

     21  H    Isotropic =    24.6361   Anisotropy =    14.7394

     22  C    Isotropic =    45.1644   Anisotropy =   206.0285

     23  C    Isotropic =    55.0653   Anisotropy =   139.5624

     24  C    Isotropic =    51.9107   Anisotropy =   141.2084

     25  C    Isotropic =    44.3314   Anisotropy =   204.1391

     26  C    Isotropic =    51.4700   Anisotropy =   180.6531

     27  H    Isotropic =    24.4916   Anisotropy =    14.8408

     28  C    Isotropic =    50.4764   Anisotropy =   187.5762

     29  H    Isotropic =    24.2734   Anisotropy =     7.8435

     30  C    Isotropic =    51.5025   Anisotropy =   187.1332

     31  H    Isotropic =    24.0291   Anisotropy =     4.2503

     32  C    Isotropic =    50.6801   Anisotropy =   165.0826

     33  H    Isotropic =    23.6960   Anisotropy =     7.7672

     34  C    Isotropic =    45.5286   Anisotropy =   214.1086

     35  C    Isotropic =    46.8591   Anisotropy =   163.8690

     36  H    Isotropic =    23.6350   Anisotropy =     7.6652

     37  C    Isotropic =    60.5478   Anisotropy =   147.1734

     38  H    Isotropic =    24.1901   Anisotropy =     7.7293

     39  C    Isotropic =    29.7582   Anisotropy =   101.4186

     40  C    Isotropic =    27.3860   Anisotropy =   105.3827

     41  C    Isotropic =    59.3621   Anisotropy =   150.0828

     42  H    Isotropic =    24.1798   Anisotropy =     7.5202

     43  C    Isotropic =    47.2090   Anisotropy =   164.5245

     44  H    Isotropic =    23.6446   Anisotropy =     7.6901

     45  C    Isotropic =    45.9991   Anisotropy =   213.1004

     46  C    Isotropic =    50.6213   Anisotropy =   165.1209

     47  H    Isotropic =    23.6830   Anisotropy =     7.7294

     48  C    Isotropic =    51.8589   Anisotropy =   186.4371

     49  H    Isotropic =    24.0523   Anisotropy =     4.1774

     50  C    Isotropic =    50.7986   Anisotropy =   186.9554

     51  H    Isotropic =    24.3016   Anisotropy =     7.8639

     52  C    Isotropic =    51.7931   Anisotropy =   179.1779

     53  H    Isotropic =    24.5824   Anisotropy =    14.8142

     54  C    Isotropic =    44.7225   Anisotropy =   202.5857

     55  C    Isotropic =    55.9802   Anisotropy =   137.2922

     56  C    Isotropic =    53.4419   Anisotropy =   140.7619

     57  C    Isotropic =    44.7127   Anisotropy =   203.7099

     58  C    Isotropic =    51.0884   Anisotropy =   179.6654

     59  H    Isotropic =    24.6681   Anisotropy =    14.8397

     60  C    Isotropic =    50.5568   Anisotropy =   187.3025

     61  H    Isotropic =    24.3198   Anisotropy =     7.8718

     62  C    Isotropic =    51.4410   Anisotropy =   186.2131

     63  H    Isotropic =    24.0775   Anisotropy =     4.2408

     64  C    Isotropic =    50.5929   Anisotropy =   164.0369

     65  H    Isotropic =    23.7170   Anisotropy =     7.7567

     66  C    Isotropic =    45.4452   Anisotropy =   212.6839

     67  C    Isotropic =    47.3460   Anisotropy =   164.6059

     68  H    Isotropic =    23.6225   Anisotropy =     7.6917

     69  C    Isotropic =    60.6591   Anisotropy =   147.6994

     70  H    Isotropic =    24.0892   Anisotropy =     7.6705

     71  C    Isotropic =    29.8084   Anisotropy =   103.6513

     72  C    Isotropic =   119.8216   Anisotropy =    46.2877

     73  H    Isotropic =    28.8421   Anisotropy =     4.2697

     74  H    Isotropic =    29.2120   Anisotropy =     7.8829

     75  Rh   Isotropic =  -264.2830   Anisotropy =   319.8461

     76  C    Isotropic =    73.7935   Anisotropy =   130.3680

     77  C    Isotropic =    69.3944   Anisotropy =   130.3754

     78  C    Isotropic =    74.9503   Anisotropy =   129.1542

     79  C    Isotropic =    70.0214   Anisotropy =   129.4594

     80  H    Isotropic =    26.9490   Anisotropy =    10.5089

     81  C    Isotropic =   154.3198   Anisotropy =    24.6177

     82  H    Isotropic =    26.4224   Anisotropy =     4.4285

     83  C    Isotropic =   148.4557   Anisotropy =    29.8303

     84  C    Isotropic =   154.4067   Anisotropy =    24.3742

     85  H    Isotropic =    27.4077   Anisotropy =    10.8589

     86  H    Isotropic =    26.3406   Anisotropy =     3.1261

     87  C    Isotropic =   148.5982   Anisotropy =    29.9713

     88  H    Isotropic =    29.9174   Anisotropy =     9.2978

     89  H    Isotropic =    30.0040   Anisotropy =    11.5061

     90  H    Isotropic =    29.4302   Anisotropy =    12.1004

     91  H    Isotropic =    29.3087   Anisotropy =     6.8543

     92  H    Isotropic =    30.1311   Anisotropy =    11.3482

     93  H    Isotropic =    29.9769   Anisotropy =     9.3529

     94  H    Isotropic =    29.3645   Anisotropy =    12.3209

     95  H    Isotropic =    29.2096   Anisotropy =     7.3128

     96  C    Isotropic =   147.9253   Anisotropy =    12.0073

     97  C    Isotropic =   157.1439   Anisotropy =    47.0804

     98  H    Isotropic =    33.0753   Anisotropy =    13.0411

     99  H    Isotropic =    30.9462   Anisotropy =    11.0792

    100  H    Isotropic =    32.0641   Anisotropy =     7.8057

    101  C    Isotropic =   153.7411   Anisotropy =    49.6743

    102  H    Isotropic =    31.6869   Anisotropy =     7.9259

    103  H    Isotropic =    31.5052   Anisotropy =    10.4146

    104  H    Isotropic =    32.1023   Anisotropy =     9.7594

    105  C    Isotropic =   158.9901   Anisotropy =    34.2007

    106  H    Isotropic =    30.7767   Anisotropy =    12.7930

    107  H    Isotropic =    31.1573   Anisotropy =     9.2311

    108  H    Isotropic =    30.3670   Anisotropy =     4.4425

 The electronic state is 1-A.
 Alpha  occ. eigenvalues --  -77.32585 -77.32544 -19.27305 -19.27230 -19.27098
 Alpha  occ. eigenvalues --  -19.27088 -14.45525 -10.33646 -10.33541 -10.33494
 Alpha  occ. eigenvalues --  -10.33438 -10.30241 -10.29574 -10.29505 -10.29301
 Alpha  occ. eigenvalues --  -10.29295 -10.28791 -10.28673 -10.28494 -10.28439
 Alpha  occ. eigenvalues --  -10.27897 -10.27844 -10.27815 -10.27788 -10.27625
 Alpha  occ. eigenvalues --  -10.27609 -10.27578 -10.27548 -10.27332 -10.27273
 Alpha  occ. eigenvalues --  -10.27150 -10.27081 -10.27080 -10.27001 -10.26907
 Alpha  occ. eigenvalues --  -10.26874 -10.26866 -10.26712 -10.26638 -10.26623
 Alpha  occ. eigenvalues --  -10.26553 -10.25770 -10.25718 -10.25605 -10.25544
 Alpha  occ. eigenvalues --  -10.25540 -10.25477 -10.25470 -10.25409 -10.25402
 Alpha  occ. eigenvalues --  -10.25373 -10.25280 -10.25265 -10.25215 -10.25199
 Alpha  occ. eigenvalues --  -10.25087 -10.25073 -10.23379 -10.23155 -10.22640
 Alpha  occ. eigenvalues --   -6.77352  -6.77316  -4.93750  -4.93712  -4.93694
 Alpha  occ. eigenvalues --   -4.93651  -4.93210  -4.93183  -3.32824  -2.10014
 Alpha  occ. eigenvalues --   -2.09098  -2.06000  -1.19328  -1.19027  -1.14977
 Alpha  occ. eigenvalues --   -1.14945  -1.02865  -0.97751  -0.97573  -0.96094
 Alpha  occ. eigenvalues --   -0.96060  -0.94829  -0.91974  -0.91876  -0.90936
 Alpha  occ. eigenvalues --   -0.90899  -0.90273  -0.89637  -0.88911  -0.88866
 Alpha  occ. eigenvalues --   -0.88338  -0.84920  -0.84880  -0.84260  -0.83841
 Alpha  occ. eigenvalues --   -0.82922  -0.82891  -0.82200  -0.82147  -0.80800
 Alpha  occ. eigenvalues --   -0.80272  -0.80035  -0.79957  -0.78194  -0.77790
 Alpha  occ. eigenvalues --   -0.76425  -0.76001  -0.74883  -0.72546  -0.72101
 Alpha  occ. eigenvalues --   -0.72018  -0.71624  -0.70915  -0.70612  -0.70520
 Alpha  occ. eigenvalues --   -0.69856  -0.69723  -0.68471  -0.67681  -0.66576
 Alpha  occ. eigenvalues --   -0.66513  -0.66059  -0.64613  -0.64123  -0.64027
 Alpha  occ. eigenvalues --   -0.62754  -0.61813  -0.61720  -0.61303  -0.61174
 Alpha  occ. eigenvalues --   -0.60869  -0.60353  -0.59937  -0.59750  -0.59374
 Alpha  occ. eigenvalues --   -0.58267  -0.58220  -0.57890  -0.57268  -0.57056
 Alpha  occ. eigenvalues --   -0.56492  -0.55945  -0.55676  -0.54904  -0.54856
 Alpha  occ. eigenvalues --   -0.54515  -0.54406  -0.53960  -0.53876  -0.53843
 Alpha  occ. eigenvalues --   -0.53586  -0.52917  -0.52896  -0.52756  -0.52662
 Alpha  occ. eigenvalues --   -0.52589  -0.52346  -0.52170  -0.51368  -0.51308
 Alpha  occ. eigenvalues --   -0.51096  -0.51048  -0.50867  -0.50700  -0.50535
 Alpha  occ. eigenvalues --   -0.50394  -0.50252  -0.49456  -0.48644  -0.48506
 Alpha  occ. eigenvalues --   -0.48289  -0.48248  -0.48145  -0.48127  -0.47982
 Alpha  occ. eigenvalues --   -0.47865  -0.47226  -0.47100  -0.46561  -0.46543
 Alpha  occ. eigenvalues --   -0.46333  -0.45572  -0.45420  -0.45229  -0.45103
 Alpha  occ. eigenvalues --   -0.44647  -0.44385  -0.43915  -0.43884  -0.43774
 Alpha  occ. eigenvalues --   -0.43428  -0.43419  -0.43399  -0.43171  -0.42999
 Alpha  occ. eigenvalues --   -0.42821  -0.42222  -0.41715  -0.41561  -0.41540
 Alpha  occ. eigenvalues --   -0.41124  -0.41047  -0.40992  -0.40809  -0.40515
 Alpha  occ. eigenvalues --   -0.39962  -0.39041  -0.38388  -0.38283  -0.37986
 Alpha  occ. eigenvalues --   -0.37555  -0.36792  -0.36728  -0.36391  -0.35447
 Alpha  occ. eigenvalues --   -0.34961  -0.33511  -0.33439  -0.32993  -0.32833
 Alpha  occ. eigenvalues --   -0.31725  -0.30972  -0.30932  -0.30044  -0.29966
 Alpha virt. eigenvalues --   -0.16821  -0.14734  -0.14407  -0.14340  -0.12785
 Alpha virt. eigenvalues --   -0.12661  -0.10931  -0.10723  -0.10292  -0.09982
 Alpha virt. eigenvalues --   -0.09797  -0.08593  -0.07314  -0.07264  -0.06651

 Mulliken charges:
               1
     1  P    0.792946
     2  P    0.788555
     3  O   -0.318734
     4  O   -0.302924
     5  O   -0.307120
     6  O   -0.311587
     7  N   -0.391182
     8  C    0.242967
     9  C   -0.229760
    10  H    0.135703
    11  C   -0.113490
    12  H    0.122156
    13  C   -0.004521
    14  C   -0.150245
    15  H    0.115132
    16  C   -0.078742
    17  H    0.124203
    18  C   -0.073445
    19  H    0.122308
    20  C   -0.102733
    21  H    0.153581
    22  C    0.060086
    23  C   -0.114513
    24  C    0.104605
    25  C   -0.051079
    26  C   -0.110445
    27  H    0.155788
    28  C   -0.071635
    29  H    0.123747
    30  C   -0.082359
    31  H    0.125190
    32  C   -0.141807
    33  H    0.116390
    34  C    0.039198
    35  C   -0.136274
    36  H    0.119260
    37  C   -0.250871
    38  H    0.140560
    39  C    0.056772
    40  C    0.151677
    41  C   -0.211037
    42  H    0.157855
    43  C   -0.148907
    44  H    0.120804
    45  C    0.028975
    46  C   -0.138675
    47  H    0.116004
    48  C   -0.082297
    49  H    0.124271
    50  C   -0.073552
    51  H    0.122213
    52  C   -0.110137
    53  H    0.152910
    54  C   -0.014398
    55  C    0.021019
    56  C   -0.020850
    57  C    0.013174
    58  C   -0.101270
    59  H    0.156987
    60  C   -0.077341
    61  H    0.123724
    62  C   -0.078984
    63  H    0.124784
    64  C   -0.150078
    65  H    0.115646
    66  C    0.020433
    67  C   -0.120111
    68  H    0.119178
    69  C   -0.220848
    70  H    0.130469
    71  C    0.116248
    72  C   -0.211335
    73  H    0.160805
    74  H    0.177621
    75  Rh  -0.706603
    76  C   -0.031157
    77  C   -0.102537
    78  C   -0.046232
    79  C   -0.085750
    80  H    0.230646
    81  C   -0.345588
    82  H    0.194873
    83  C   -0.215924
    84  C   -0.356372
    85  H    0.235089
    86  H    0.197782
    87  C   -0.217223
    88  H    0.166959
    89  H    0.171015
    90  H    0.176688
    91  H    0.140385
    92  H    0.170680
    93  H    0.168002
    94  H    0.176267
    95  H    0.141481
    96  C    0.090288
    97  C   -0.394903
    98  H    0.132504
    99  H    0.160911
   100  H    0.136562
   101  C   -0.391065
   102  H    0.127462
   103  H    0.142033
   104  H    0.137904
   105  C   -0.378852
   106  H    0.105558
   107  H    0.140135
   108  H    0.138327
 Sum of Mulliken charges =   1.00000

 Dipole moment (field-independent basis, Debye):
    X=             -0.0104    Y=             -3.6853    Z=              0.0321  Tot=              3.6854
 Quadrupole moment (field-independent basis, Debye-Ang):
   XX=           -255.2445   YY=           -307.4007   ZZ=           -350.2807
   XY=             -2.3691   XZ=             -2.8311   YZ=              2.1217

 Summary of Natural Population Analysis:

                                       Natural Population
                Natural  -----------------------------------------------
    Atom  No    Charge         Core      Valence    Rydberg      Total
 -----------------------------------------------------------------------
      P    1    1.87655      9.99535     3.02800    0.10009    13.12345
      P    2    1.88355      9.99527     3.02090    0.10027    13.11645
      O    3   -0.75182      1.99978     6.73820    0.01385     8.75182
      O    4   -0.74141      1.99979     6.72778    0.01384     8.74141
      O    5   -0.75108      1.99978     6.73728    0.01402     8.75108
      O    6   -0.74104      1.99979     6.72775    0.01350     8.74104
      N    7   -1.02959      1.99960     6.00772    0.02228     8.02959
      C    8    0.26772      1.99860     3.71084    0.02283     5.73228
      C    9   -0.24576      1.99906     4.23137    0.01533     6.24576
      H   10    0.22750      0.00000     0.77096    0.00154     0.77250
      C   11   -0.14646      1.99914     4.13312    0.01420     6.14646
      H   12    0.21881      0.00000     0.77965    0.00154     0.78119
      C   13   -0.06606      1.99909     4.05093    0.01604     6.06606
      C   14   -0.17009      1.99915     4.15669    0.01425     6.17009
      H   15    0.21390      0.00000     0.78447    0.00163     0.78610
      C   16   -0.19584      1.99920     4.18181    0.01483     6.19584
      H   17    0.21972      0.00000     0.77913    0.00115     0.78028
      C   18   -0.18404      1.99920     4.17003    0.01481     6.18404
      H   19    0.21836      0.00000     0.78045    0.00119     0.78164
      C   20   -0.19013      1.99913     4.17705    0.01395     6.19013
      H   21    0.22025      0.00000     0.77798    0.00177     0.77975
      C   22   -0.02894      1.99903     4.01301    0.01690     6.02894
      C   23   -0.07190      1.99886     4.05328    0.01976     6.07190
      C   24   -0.06025      1.99887     4.04205    0.01934     6.06025
      C   25   -0.03317      1.99904     4.01717    0.01697     6.03317
      C   26   -0.18688      1.99913     4.17384    0.01391     6.18688
      H   27    0.22265      0.00000     0.77563    0.00172     0.77735
      C   28   -0.18448      1.99920     4.17048    0.01481     6.18448
      H   29    0.21917      0.00000     0.77965    0.00118     0.78083
      C   30   -0.19395      1.99920     4.17993    0.01482     6.19395
      H   31    0.22008      0.00000     0.77877    0.00115     0.77992
      C   32   -0.17168      1.99915     4.15829    0.01424     6.17168
      H   33    0.21380      0.00000     0.78457    0.00163     0.78620
      C   34   -0.06445      1.99910     4.04936    0.01599     6.06445
      C   35   -0.14984      1.99914     4.13654    0.01416     6.14984
      H   36    0.21825      0.00000     0.78019    0.00156     0.78175
      C   37   -0.25033      1.99906     4.23598    0.01529     6.25033
      H   38    0.23022      0.00000     0.76829    0.00150     0.76978
      C   39    0.25058      1.99862     3.72794    0.02287     5.74942
      C   40    0.26595      1.99859     3.71283    0.02262     5.73405
      C   41   -0.24340      1.99906     4.22925    0.01508     6.24340
      H   42    0.23026      0.00000     0.76807    0.00167     0.76974
      C   43   -0.14717      1.99914     4.13400    0.01403     6.14717
      H   44    0.21907      0.00000     0.77940    0.00153     0.78093
      C   45   -0.06591      1.99909     4.05072    0.01610     6.06591
      C   46   -0.17044      1.99915     4.15704    0.01426     6.17044
      H   47    0.21409      0.00000     0.78429    0.00162     0.78591
      C   48   -0.19563      1.99920     4.18159    0.01485     6.19563
      H   49    0.21968      0.00000     0.77917    0.00115     0.78032
      C   50   -0.18504      1.99920     4.17100    0.01484     6.18504
      H   51    0.21834      0.00000     0.78047    0.00119     0.78166
      C   52   -0.18925      1.99913     4.17614    0.01398     6.18925
      H   53    0.22015      0.00000     0.77808    0.00178     0.77985
      C   54   -0.03106      1.99904     4.01514    0.01689     6.03106
      C   55   -0.07127      1.99887     4.05298    0.01942     6.07127
      C   56   -0.06180      1.99887     4.04368    0.01924     6.06180
      C   57   -0.03225      1.99904     4.01656    0.01665     6.03225
      C   58   -0.18723      1.99913     4.17399    0.01411     6.18723
      H   59    0.22241      0.00000     0.77585    0.00175     0.77759
      C   60   -0.18452      1.99920     4.17051    0.01480     6.18452
      H   61    0.21903      0.00000     0.77978    0.00119     0.78097
      C   62   -0.19448      1.99920     4.18048    0.01481     6.19448
      H   63    0.21991      0.00000     0.77891    0.00118     0.78009
      C   64   -0.17157      1.99914     4.15843    0.01400     6.17157
      H   65    0.21351      0.00000     0.78504    0.00146     0.78649
      C   66   -0.06555      1.99910     4.05048    0.01598     6.06555
      C   67   -0.15094      1.99914     4.13794    0.01385     6.15094
      H   68    0.21791      0.00000     0.78069    0.00140     0.78209
      C   69   -0.24854      1.99906     4.23412    0.01536     6.24854
      H   70    0.23003      0.00000     0.76842    0.00155     0.76997
      C   71    0.25124      1.99862     3.72705    0.02310     5.74876
      C   72   -0.21792      1.99922     4.19638    0.02232     6.21792
      H   73    0.20746      0.00000     0.78964    0.00290     0.79254
      H   74    0.21750      0.00000     0.77958    0.00292     0.78250
     Rh   75   -0.55951     35.98318     9.54732    0.02900    45.55951
      C   76   -0.16979      1.99908     4.15077    0.01995     6.16979
      C   77   -0.14665      1.99909     4.12717    0.02040     6.14665
      C   78   -0.16686      1.99908     4.14735    0.02043     6.16686
      C   79   -0.14751      1.99906     4.12828    0.02017     6.14751
      H   80    0.23593      0.00000     0.76151    0.00256     0.76407
      C   81   -0.42386      1.99936     4.41245    0.01205     6.42386
      H   82    0.23880      0.00000     0.75949    0.00172     0.76120
      C   83   -0.42540      1.99935     4.41319    0.01286     6.42540
      C   84   -0.42408      1.99936     4.41261    0.01210     6.42408
      H   85    0.23675      0.00000     0.76095    0.00231     0.76325
      H   86    0.23957      0.00000     0.75877    0.00166     0.76043
      C   87   -0.42508      1.99935     4.41343    0.01229     6.42508
      H   88    0.21208      0.00000     0.78594    0.00198     0.78792
      H   89    0.23035      0.00000     0.76821    0.00144     0.76965
      H   90    0.23762      0.00000     0.76060    0.00178     0.76238
      H   91    0.22367      0.00000     0.77486    0.00148     0.77633
      H   92    0.23064      0.00000     0.76791    0.00145     0.76936
      H   93    0.21200      0.00000     0.78601    0.00199     0.78800
      H   94    0.23745      0.00000     0.76070    0.00184     0.76255
      H   95    0.22373      0.00000     0.77479    0.00148     0.77627
      C   96   -0.04646      1.99946     4.03388    0.01312     6.04646
      C   97   -0.60149      1.99938     4.59392    0.00819     6.60149
      H   98    0.20358      0.00000     0.79471    0.00172     0.79642
      H   99    0.21651      0.00000     0.78142    0.00207     0.78349
      H  100    0.21100      0.00000     0.78761    0.00138     0.78900
      C  101   -0.58903      1.99938     4.58209    0.00756     6.58903
      H  102    0.20568      0.00000     0.79305    0.00126     0.79432
      H  103    0.21454      0.00000     0.78414    0.00132     0.78546
      H  104    0.20487      0.00000     0.79390    0.00123     0.79513
      C  105   -0.59849      1.99937     4.59033    0.00879     6.59849
      H  106    0.20053      0.00000     0.79740    0.00207     0.79947
      H  107    0.21332      0.00000     0.78535    0.00133     0.78668
      H  108    0.21109      0.00000     0.78759    0.00132     0.78891
 =======================================================================
   * Total *    1.00000    171.92505   304.85243    1.22252   478.00000

 Normal termination of Gaussian 16 at Wed Nov  6 01:05:40 2024.
