 Gaussian 16, Revision B.01,
 Gaussian 16:  ES64L-G16RevB.01 20-Dec-2017

 ------------------------------------------
 # nmr=giao b3lyp/genecp pop=nbo scfcyc=200
 ------------------------------------------

 -------------
 Ligand 42 SPE
 -------------
 Symbolic Z-matrix:
 Charge =  1 Multiplicity = 1

                         Standard orientation:
 ---------------------------------------------------------------------
 Center     Atomic      Atomic             Coordinates (Angstroms)
 Number     Number       Type             X           Y           Z
 ---------------------------------------------------------------------
      1         15           0       -0.347460   -0.021800   -0.191880
      2         15           0        2.130100   -0.790620   -0.458430
      3          8           0       -1.406450    0.106160   -1.448840
      4          8           0       -1.359810   -0.341070    1.063700
      5          8           0        3.013630   -1.814959    0.480660
      6          8           0        2.786530   -1.174249   -1.906370
      7          7           0        0.539550   -1.408510   -0.642610
      8          6           0       -2.478751    1.001040   -1.294570
      9          6           0       -2.419081    2.197140   -2.031130
     10          1           0       -1.582891    2.359020   -2.698600
     11          6           0       -3.428471    3.111569   -1.901990
     12          1           0       -3.409491    4.029889   -2.476380
     13          6           0       -4.499231    2.884309   -1.003130
     14          6           0       -5.507951    3.860009   -0.805800
     15          1           0       -5.463761    4.776189   -1.382760
     16          6           0       -6.512131    3.660159    0.104800
     17          1           0       -7.274911    4.414189    0.251570
     18          6           0       -6.543301    2.473019    0.864930
     19          1           0       -7.324231    2.329979    1.601250
     20          6           0       -5.593351    1.499079    0.684860
     21          1           0       -5.633241    0.598699    1.280690
     22          6           0       -4.552441    1.659259   -0.264530
     23          6           0       -3.536101    0.665529   -0.475900
     24          6           0       -3.581540   -0.675411    0.167160
     25          6           0       -4.695830   -1.568111   -0.004860
     26          6           0       -5.759300   -1.299891   -0.903600
     27          1           0       -5.741530   -0.394081   -1.491950
     28          6           0       -6.803760   -2.178481   -1.047840
     29          1           0       -7.599300   -1.953952   -1.747260
     30          6           0       -6.850260   -3.373081   -0.300700
     31          1           0       -7.685660   -4.051222   -0.419530
     32          6           0       -5.828540   -3.677601    0.559910
     33          1           0       -5.842699   -4.602261    1.124700
     34          6           0       -4.725230   -2.802551    0.718560
     35          6           0       -3.638220   -3.142881    1.559780
     36          1           0       -3.675240   -4.069401    2.119830
     37          6           0       -2.543180   -2.328711    1.648610
     38          1           0       -1.693310   -2.585920    2.266560
     39          6           0       -2.522040   -1.121331    0.928410
     40          6           0        3.191440   -1.675489    1.861220
     41          6           0        2.113260   -1.650450    2.737020
     42          1           0        1.100740   -1.709080    2.362730
     43          6           0        2.357580   -1.564590    4.105700
     44          1           0        1.522220   -1.549260    4.794470
     45          6           0        4.729440   -1.550099    3.696870
     46          1           0        5.746880   -1.521629    4.065790
     47          6           0        4.499430   -1.628319    2.327640
     48          1           0        5.318860   -1.661789    1.621750
     49          6           0        4.089850   -0.818099   -2.292810
     50          6           0        4.247260    0.270681   -3.140260
     51          1           0        3.378769    0.836121   -3.452530
     52          6           0        5.522850    0.594651   -3.592450
     53          1           0        5.655529    1.436311   -4.260430
     54          6           0        6.439540   -1.263839   -2.364090
     55          1           0        7.288310   -1.869899   -2.073480
     56          6           0        5.169250   -1.600339   -1.904970
     57          1           0        5.010520   -2.458999   -1.267640
     58          6           0        0.018000   -2.692810   -1.222940
     59          1           0       -1.027960   -2.727470   -0.910210
     60          6           0        0.734360   -3.897100   -0.596750
     61          1           0        0.722660   -3.781050    0.489790
     62          1           0        1.784560   -3.894430   -0.899630
     63          6           0        0.063930   -2.666850   -2.751140
     64          1           0       -0.425560   -1.772540   -3.135110
     65          1           0       -0.463020   -3.533420   -3.151370
     66          1           0        1.090950   -2.687640   -3.114960
     67         45           0        1.461869    1.296400    0.254550
     68          6           0        3.347989    2.178031    1.274220
     69          6           0        3.345309    2.557871   -0.046470
     70          6           0        0.570419    3.410240    0.468790
     71          6           0        0.492479    2.771110    1.685820
     72          1           0        3.904759    1.283051    1.528730
     73          6           0        2.935329    3.043061    2.448870
     74          1           0        3.932799    1.959781   -0.735900
     75          6           0        2.854779    3.865931   -0.614380
     76          6           0        1.602459    4.450360    0.075720
     77          1           0       -0.309051    3.360540   -0.164370
     78          1           0       -0.448331    2.289710    1.932880
     79          6           0        1.450219    2.894430    2.843320
     80          1           0        3.171519    4.085161    2.236570
     81          1           0        3.545929    2.763801    3.308730
     82          1           0        3.667859    4.602051   -0.587250
     83          1           0        2.636989    3.705851   -1.672520
     84          1           0        1.132669    5.155410   -0.611870
     85          1           0        1.887739    5.031940    0.951730
     86          1           0        1.149609    3.740370    3.474110
     87          1           0        1.333609    2.003810    3.463710
     88          6           0        6.619650   -0.168499   -3.203280
     89          1           0        7.609390    0.082332   -3.562250
     90          6           0        3.660640   -1.515299    4.588660
     91          1           0        3.843610   -1.459179    5.653880
     92          6           0        0.095021   -5.237280   -0.965510
     93          1           0        0.185601   -5.457030   -2.029820
     94          1           0        0.582301   -6.048740   -0.423070
     95          1           0       -0.966589   -5.256600   -0.706420
 ---------------------------------------------------------------------

 SCF Done:  E(RB3LYP) =  -2852.20286202     A.U. after   20 cycles

      1  P    Isotropic =   156.7212   Anisotropy =   189.5627

      2  P    Isotropic =   165.3823   Anisotropy =   200.9086

      3  O    Isotropic =   139.1657   Anisotropy =    73.6391

      4  O    Isotropic =   133.7015   Anisotropy =    59.5710

      5  O    Isotropic =   125.5787   Anisotropy =   107.1636

      6  O    Isotropic =   136.7937   Anisotropy =    84.4454

      7  N    Isotropic =    44.7642   Anisotropy =    80.9096

      8  C    Isotropic =    29.5513   Anisotropy =   104.2553

      9  C    Isotropic =    61.0716   Anisotropy =   146.5863

     10  H    Isotropic =    24.1962   Anisotropy =     7.6651

     11  C    Isotropic =    47.0445   Anisotropy =   164.4285

     12  H    Isotropic =    23.6217   Anisotropy =     7.5589

     13  C    Isotropic =    45.5819   Anisotropy =   212.8251

     14  C    Isotropic =    50.7684   Anisotropy =   165.1907

     15  H    Isotropic =    23.6817   Anisotropy =     7.6431

     16  C    Isotropic =    51.5067   Anisotropy =   186.9727

     17  H    Isotropic =    24.0246   Anisotropy =     4.3602

     18  C    Isotropic =    50.3290   Anisotropy =   187.7296

     19  H    Isotropic =    24.2455   Anisotropy =     7.8480

     20  C    Isotropic =    51.5881   Anisotropy =   179.8049

     21  H    Isotropic =    24.4747   Anisotropy =    14.6953

     22  C    Isotropic =    44.5103   Anisotropy =   204.0103

     23  C    Isotropic =    52.4474   Anisotropy =   139.1005

     24  C    Isotropic =    54.3152   Anisotropy =   138.2874

     25  C    Isotropic =    44.5843   Anisotropy =   202.9441

     26  C    Isotropic =    51.8267   Anisotropy =   179.6602

     27  H    Isotropic =    24.4950   Anisotropy =    14.9316

     28  C    Isotropic =    50.2794   Anisotropy =   187.7313

     29  H    Isotropic =    24.2192   Anisotropy =     7.9553

     30  C    Isotropic =    51.6294   Anisotropy =   187.1418

     31  H    Isotropic =    23.9917   Anisotropy =     4.3546

     32  C    Isotropic =    50.7033   Anisotropy =   165.5739

     33  H    Isotropic =    23.6040   Anisotropy =     7.7906

     34  C    Isotropic =    45.6950   Anisotropy =   213.0141

     35  C    Isotropic =    46.6387   Anisotropy =   164.8202

     36  H    Isotropic =    23.5290   Anisotropy =     7.7351

     37  C    Isotropic =    62.1149   Anisotropy =   144.6103

     38  H    Isotropic =    24.0733   Anisotropy =     7.6928

     39  C    Isotropic =    26.4893   Anisotropy =   108.0126

     40  C    Isotropic =    24.0035   Anisotropy =   117.2003

     41  C    Isotropic =    59.2491   Anisotropy =   159.3429

     42  H    Isotropic =    23.9237   Anisotropy =     6.1702

     43  C    Isotropic =    49.0809   Anisotropy =   186.7908

     44  H    Isotropic =    24.0401   Anisotropy =     7.0889

     45  C    Isotropic =    47.2121   Anisotropy =   189.8282

     46  H    Isotropic =    24.2262   Anisotropy =     5.0188

     47  C    Isotropic =    58.0809   Anisotropy =   156.7344

     48  H    Isotropic =    24.6606   Anisotropy =     8.1885

     49  C    Isotropic =    24.7643   Anisotropy =   111.1255

     50  C    Isotropic =    57.6436   Anisotropy =   154.4428

     51  H    Isotropic =    24.3371   Anisotropy =     8.0259

     52  C    Isotropic =    48.2585   Anisotropy =   187.2454

     53  H    Isotropic =    24.1505   Anisotropy =     6.2867

     54  C    Isotropic =    47.9401   Anisotropy =   187.8864

     55  H    Isotropic =    24.1166   Anisotropy =     5.9413

     56  C    Isotropic =    56.2103   Anisotropy =   161.1344

     57  H    Isotropic =    24.0448   Anisotropy =    10.0945

     58  C    Isotropic =   115.0419   Anisotropy =    56.5269

     59  H    Isotropic =    29.0253   Anisotropy =     9.4968

     60  C    Isotropic =   150.6202   Anisotropy =    21.8318

     61  H    Isotropic =    29.7780   Anisotropy =     4.3543

     62  H    Isotropic =    29.8152   Anisotropy =     6.8115

     63  C    Isotropic =   162.3384   Anisotropy =    30.4832

     64  H    Isotropic =    30.1825   Anisotropy =     4.4280

     65  H    Isotropic =    30.8809   Anisotropy =     9.5688

     66  H    Isotropic =    30.3035   Anisotropy =     6.4176

     67  Rh   Isotropic =  -274.0813   Anisotropy =   337.0455

     68  C    Isotropic =    72.2942   Anisotropy =   134.7919

     69  C    Isotropic =    73.1967   Anisotropy =   125.0829

     70  C    Isotropic =    75.5746   Anisotropy =   127.6055

     71  C    Isotropic =    70.6581   Anisotropy =   128.7744

     72  H    Isotropic =    27.8345   Anisotropy =     6.5868

     73  C    Isotropic =   154.8781   Anisotropy =    24.2785

     74  H    Isotropic =    26.5558   Anisotropy =     6.8339

     75  C    Isotropic =   148.5871   Anisotropy =    29.6831

     76  C    Isotropic =   154.7856   Anisotropy =    24.3549

     77  H    Isotropic =    27.1522   Anisotropy =     9.5945

     78  H    Isotropic =    26.4829   Anisotropy =     3.0207

     79  C    Isotropic =   148.9309   Anisotropy =    29.1815

     80  H    Isotropic =    30.3146   Anisotropy =     9.6025

     81  H    Isotropic =    30.7917   Anisotropy =    10.3463

     82  H    Isotropic =    29.4456   Anisotropy =    12.4814

     83  H    Isotropic =    29.2982   Anisotropy =     7.1272

     84  H    Isotropic =    30.1127   Anisotropy =    11.4129

     85  H    Isotropic =    30.1063   Anisotropy =     9.2701

     86  H    Isotropic =    29.7137   Anisotropy =    12.0650

     87  H    Isotropic =    29.8562   Anisotropy =     7.1399

     88  C    Isotropic =    50.5866   Anisotropy =   190.2297

     89  H    Isotropic =    24.2310   Anisotropy =     3.7805

     90  C    Isotropic =    51.8282   Anisotropy =   189.0935

     91  H    Isotropic =    24.3024   Anisotropy =     4.0443

     92  C    Isotropic =   172.0557   Anisotropy =    24.1022

     93  H    Isotropic =    31.1036   Anisotropy =     9.3860

     94  H    Isotropic =    30.7570   Anisotropy =    11.6899

     95  H    Isotropic =    31.6116   Anisotropy =     8.7753

 The electronic state is 1-A.
 Alpha  occ. eigenvalues --  -77.32894 -77.32669 -19.27404 -19.27364 -19.27291
 Alpha  occ. eigenvalues --  -19.27158 -14.45289 -10.33983 -10.33732 -10.33716
 Alpha  occ. eigenvalues --  -10.33610 -10.31299 -10.29878 -10.29844 -10.29766
 Alpha  occ. eigenvalues --  -10.29596 -10.28844 -10.28755 -10.28196 -10.28003
 Alpha  occ. eigenvalues --  -10.28001 -10.27937 -10.27884 -10.27842 -10.27569
 Alpha  occ. eigenvalues --  -10.27426 -10.27335 -10.27272 -10.27254 -10.27249
 Alpha  occ. eigenvalues --  -10.27200 -10.27195 -10.27186 -10.27120 -10.27049
 Alpha  occ. eigenvalues --  -10.27029 -10.26972 -10.26880 -10.26680 -10.26407
 Alpha  occ. eigenvalues --  -10.25866 -10.25720 -10.25718 -10.25694 -10.25653
 Alpha  occ. eigenvalues --  -10.25561 -10.25557 -10.25492 -10.25377 -10.24225
 Alpha  occ. eigenvalues --  -10.23999  -6.77650  -6.77472  -4.94001  -4.94000
 Alpha  occ. eigenvalues --   -4.93864  -4.93810  -4.93545  -4.93338  -3.33127
 Alpha  occ. eigenvalues --   -2.10294  -2.09409  -2.06309  -1.19452  -1.18877
 Alpha  occ. eigenvalues --   -1.15302  -1.15125  -1.03221  -0.97880  -0.96323
 Alpha  occ. eigenvalues --   -0.95684  -0.95251  -0.95150  -0.92125  -0.91148
 Alpha  occ. eigenvalues --   -0.89965  -0.89162  -0.89124  -0.88643  -0.85677
 Alpha  occ. eigenvalues --   -0.85135  -0.85039  -0.84708  -0.84041  -0.83858
 Alpha  occ. eigenvalues --   -0.83131  -0.82388  -0.81494  -0.81004  -0.80234
 Alpha  occ. eigenvalues --   -0.78502  -0.77796  -0.76331  -0.73847  -0.72417
 Alpha  occ. eigenvalues --   -0.72055  -0.71661  -0.71220  -0.71183  -0.70832
 Alpha  occ. eigenvalues --   -0.70696  -0.70013  -0.68936  -0.68407  -0.66742
 Alpha  occ. eigenvalues --   -0.66535  -0.66407  -0.64585  -0.64505  -0.63080
 Alpha  occ. eigenvalues --   -0.62747  -0.61957  -0.61383  -0.60946  -0.60563
 Alpha  occ. eigenvalues --   -0.60095  -0.59385  -0.59187  -0.58488  -0.58110
 Alpha  occ. eigenvalues --   -0.57389  -0.57135  -0.56959  -0.56781  -0.56300
 Alpha  occ. eigenvalues --   -0.56009  -0.55283  -0.54678  -0.54506  -0.54263
 Alpha  occ. eigenvalues --   -0.54192  -0.54075  -0.53767  -0.53246  -0.53186
 Alpha  occ. eigenvalues --   -0.52998  -0.52869  -0.52658  -0.52493  -0.52085
 Alpha  occ. eigenvalues --   -0.51813  -0.51523  -0.51272  -0.50937  -0.50689
 Alpha  occ. eigenvalues --   -0.50241  -0.49312  -0.48862  -0.48483  -0.48448
 Alpha  occ. eigenvalues --   -0.48274  -0.48198  -0.47608  -0.47332  -0.47084
 Alpha  occ. eigenvalues --   -0.46963  -0.46765  -0.46601  -0.46288  -0.45998
 Alpha  occ. eigenvalues --   -0.45877  -0.45643  -0.45343  -0.45150  -0.44845
 Alpha  occ. eigenvalues --   -0.44213  -0.44026  -0.43732  -0.43692  -0.43450
 Alpha  occ. eigenvalues --   -0.43340  -0.43155  -0.42775  -0.42575  -0.42274
 Alpha  occ. eigenvalues --   -0.41781  -0.41648  -0.41215  -0.40731  -0.39353
 Alpha  occ. eigenvalues --   -0.38573  -0.38468  -0.38046  -0.37096  -0.36880
 Alpha  occ. eigenvalues --   -0.35801  -0.35645  -0.35303  -0.35230  -0.34198
 Alpha  occ. eigenvalues --   -0.34145  -0.33639  -0.33267  -0.31988  -0.31142
 Alpha  occ. eigenvalues --   -0.30298
 Alpha virt. eigenvalues --   -0.17090  -0.15396  -0.14565  -0.12994  -0.11414
 Alpha virt. eigenvalues --   -0.10979  -0.10839  -0.10628  -0.10493  -0.10332
 Alpha virt. eigenvalues --   -0.10006  -0.08842  -0.07462  -0.07107  -0.06379

 Mulliken charges:
               1
     1  P    0.783474
     2  P    0.673411
     3  O   -0.305723
     4  O   -0.319351
     5  O   -0.332071
     6  O   -0.319746
     7  N   -0.436115
     8  C    0.104926
     9  C   -0.226124
    10  H    0.134911
    11  C   -0.128931
    12  H    0.119278
    13  C    0.024399
    14  C   -0.141011
    15  H    0.116822
    16  C   -0.082962
    17  H    0.125324
    18  C   -0.070912
    19  H    0.124096
    20  C   -0.111873
    21  H    0.154525
    22  C    0.012930
    23  C   -0.009885
    24  C    0.039589
    25  C   -0.000531
    26  C   -0.115942
    27  H    0.155517
    28  C   -0.070863
    29  H    0.123561
    30  C   -0.081819
    31  H    0.125336
    32  C   -0.141548
    33  H    0.117018
    34  C    0.038209
    35  C   -0.176461
    36  H    0.121615
    37  C   -0.141045
    38  H    0.127927
    39  C    0.099777
    40  C    0.103194
    41  C   -0.075188
    42  H    0.157075
    43  C   -0.180512
    44  H    0.131466
    45  C   -0.116649
    46  H    0.135686
    47  C   -0.142600
    48  H    0.144436
    49  C    0.093764
    50  C   -0.176411
    51  H    0.141635
    52  C   -0.091947
    53  H    0.133042
    54  C   -0.099762
    55  H    0.135782
    56  C   -0.120079
    57  H    0.151241
    58  C    0.061440
    59  H    0.157635
    60  C   -0.203590
    61  H    0.123667
    62  H    0.140827
    63  C   -0.404631
    64  H    0.145828
    65  H    0.148664
    66  H    0.140746
    67  Rh  -0.635046
    68  C   -0.004174
    69  C   -0.116187
    70  C   -0.034120
    71  C   -0.092324
    72  H    0.211030
    73  C   -0.356635
    74  H    0.234764
    75  C   -0.230242
    76  C   -0.351149
    77  H    0.228836
    78  H    0.197774
    79  C   -0.224490
    80  H    0.167070
    81  H    0.173662
    82  H    0.177947
    83  H    0.136663
    84  H    0.171910
    85  H    0.168372
    86  H    0.177706
    87  H    0.146465
    88  C   -0.096190
    89  H    0.136671
    90  C   -0.077117
    91  H    0.136856
    92  C   -0.392425
    93  H    0.134117
    94  H    0.144445
    95  H    0.121317
 Sum of Mulliken charges =   1.00000

 Dipole moment (field-independent basis, Debye):
    X=              2.9532    Y=              2.9893    Z=              1.5534  Tot=              4.4800
 Quadrupole moment (field-independent basis, Debye-Ang):
   XX=           -227.5944   YY=           -273.2348   ZZ=           -299.9431
   XY=              8.0062   XZ=              1.6039   YZ=             -7.9335

 Summary of Natural Population Analysis:

                                       Natural Population
                Natural  -----------------------------------------------
    Atom  No    Charge         Core      Valence    Rydberg      Total
 -----------------------------------------------------------------------
      P    1    1.87076      9.99539     3.03284    0.10101    13.12924
      P    2    1.86551      9.99551     3.03971    0.09927    13.13449
      O    3   -0.74157      1.99979     6.72803    0.01375     8.74157
      O    4   -0.75255      1.99979     6.73916    0.01360     8.75255
      O    5   -0.75017      1.99977     6.73517    0.01523     8.75017
      O    6   -0.74756      1.99977     6.73236    0.01543     8.74756
      N    7   -1.04383      1.99958     6.02148    0.02278     8.04383
      C    8    0.25307      1.99862     3.72572    0.02259     5.74693
      C    9   -0.24835      1.99906     4.23411    0.01518     6.24835
      H   10    0.22721      0.00000     0.77113    0.00165     0.77279
      C   11   -0.14871      1.99914     4.13578    0.01378     6.14871
      H   12    0.21809      0.00000     0.78052    0.00139     0.78191
      C   13   -0.06454      1.99910     4.04948    0.01596     6.06454
      C   14   -0.17072      1.99914     4.15761    0.01397     6.17072
      H   15    0.21387      0.00000     0.78468    0.00145     0.78613
      C   16   -0.19423      1.99920     4.18023    0.01480     6.19423
      H   17    0.22017      0.00000     0.77865    0.00118     0.77983
      C   18   -0.18414      1.99920     4.17015    0.01479     6.18414
      H   19    0.21914      0.00000     0.77968    0.00119     0.78086
      C   20   -0.18804      1.99913     4.17482    0.01409     6.18804
      H   21    0.22192      0.00000     0.77636    0.00172     0.77808
      C   22   -0.03236      1.99904     4.01682    0.01650     6.03236
      C   23   -0.06035      1.99887     4.04219    0.01929     6.06035
      C   24   -0.06805      1.99887     4.04936    0.01982     6.06805
      C   25   -0.03068      1.99904     4.01486    0.01678     6.03068
      C   26   -0.18901      1.99913     4.17595    0.01393     6.18901
      H   27    0.22120      0.00000     0.77704    0.00176     0.77880
      C   28   -0.18329      1.99920     4.16929    0.01480     6.18329
      H   29    0.21904      0.00000     0.77978    0.00118     0.78096
      C   30   -0.19449      1.99920     4.18047    0.01482     6.19449
      H   31    0.22028      0.00000     0.77857    0.00115     0.77972
      C   32   -0.17035      1.99915     4.15697    0.01424     6.17035
      H   33    0.21417      0.00000     0.78421    0.00162     0.78583
      C   34   -0.06537      1.99909     4.05022    0.01605     6.06537
      C   35   -0.14682      1.99915     4.13344    0.01423     6.14682
      H   36    0.21891      0.00000     0.77955    0.00154     0.78109
      C   37   -0.24737      1.99906     4.23284    0.01548     6.24737
      H   38    0.22314      0.00000     0.77524    0.00162     0.77686
      C   39    0.25993      1.99860     3.71799    0.02348     5.74007
      C   40    0.25564      1.99867     3.72301    0.02268     5.74436
      C   41   -0.25576      1.99905     4.24219    0.01452     6.25576
      H   42    0.22210      0.00000     0.77582    0.00209     0.77790
      C   43   -0.18521      1.99921     4.17099    0.01500     6.18521
      H   44    0.21914      0.00000     0.77965    0.00121     0.78086
      C   45   -0.18243      1.99922     4.16853    0.01468     6.18243
      H   46    0.22217      0.00000     0.77667    0.00116     0.77783
      C   47   -0.24250      1.99906     4.22833    0.01511     6.24250
      H   48    0.22604      0.00000     0.77204    0.00193     0.77396
      C   49    0.24110      1.99867     3.73772    0.02252     5.75890
      C   50   -0.24656      1.99906     4.23252    0.01498     6.24656
      H   51    0.22381      0.00000     0.77446    0.00173     0.77619
      C   52   -0.18709      1.99921     4.17317    0.01471     6.18709
      H   53    0.22038      0.00000     0.77844    0.00117     0.77962
      C   54   -0.18420      1.99922     4.17019    0.01480     6.18420
      H   55    0.22118      0.00000     0.77766    0.00116     0.77882
      C   56   -0.24135      1.99905     4.22795    0.01436     6.24135
      H   57    0.23147      0.00000     0.76682    0.00171     0.76853
      C   58   -0.03490      1.99934     4.01278    0.02278     6.03490
      H   59    0.20864      0.00000     0.78834    0.00302     0.79136
      C   60   -0.39233      1.99940     4.38232    0.01060     6.39233
      H   61    0.19984      0.00000     0.79825    0.00191     0.80016
      H   62    0.20456      0.00000     0.79353    0.00190     0.79544
      C   63   -0.60929      1.99941     4.60190    0.00799     6.60929
      H   64    0.22162      0.00000     0.77712    0.00126     0.77838
      H   65    0.21821      0.00000     0.78067    0.00112     0.78179
      H   66    0.21772      0.00000     0.78093    0.00135     0.78228
     Rh   67   -0.54683     35.98376     9.53344    0.02964    45.54683
      C   68   -0.15779      1.99909     4.13868    0.02002     6.15779
      C   69   -0.16303      1.99910     4.14308    0.02086     6.16303
      C   70   -0.17395      1.99906     4.15475    0.02013     6.17395
      C   71   -0.14442      1.99907     4.12493    0.02041     6.14442
      H   72    0.23551      0.00000     0.76211    0.00238     0.76449
      C   73   -0.42504      1.99936     4.41336    0.01232     6.42504
      H   74    0.23802      0.00000     0.75971    0.00226     0.76198
      C   75   -0.42357      1.99935     4.41136    0.01286     6.42357
      C   76   -0.42458      1.99936     4.41362    0.01160     6.42458
      H   77    0.23478      0.00000     0.76274    0.00248     0.76522
      H   78    0.23877      0.00000     0.75947    0.00177     0.76123
      C   79   -0.42463      1.99935     4.41282    0.01245     6.42463
      H   80    0.21206      0.00000     0.78574    0.00220     0.78794
      H   81    0.23318      0.00000     0.76535    0.00147     0.76682
      H   82    0.23760      0.00000     0.76061    0.00179     0.76240
      H   83    0.22124      0.00000     0.77734    0.00142     0.77876
      H   84    0.23062      0.00000     0.76792    0.00145     0.76938
      H   85    0.21598      0.00000     0.78215    0.00187     0.78402
      H   86    0.23725      0.00000     0.76093    0.00182     0.76275
      H   87    0.22672      0.00000     0.77176    0.00151     0.77328
      C   88   -0.20284      1.99921     4.18885    0.01479     6.20284
      H   89    0.22224      0.00000     0.77661    0.00115     0.77776
      C   90   -0.20895      1.99921     4.19488    0.01487     6.20895
      H   91    0.22212      0.00000     0.77672    0.00116     0.77788
      C   92   -0.59185      1.99946     4.58624    0.00616     6.59185
      H   93    0.20595      0.00000     0.79272    0.00133     0.79405
      H   94    0.21772      0.00000     0.78123    0.00105     0.78228
      H   95    0.20180      0.00000     0.79680    0.00140     0.79820
 =======================================================================
   * Total *    1.00000    153.93454   264.99035    1.07512   420.00000

 Normal termination of Gaussian 16 at Wed Nov  6 00:49:09 2024.
