 Gaussian 16, Revision B.01,
 Gaussian 16:  ES64L-G16RevB.01 20-Dec-2017

 ------------------------------------------
 # nmr=giao b3lyp/genecp pop=nbo scfcyc=200
 ------------------------------------------

 -------------
 Ligand 47 SPE
 -------------
 Symbolic Z-matrix:
 Charge =  1 Multiplicity = 1

                         Standard orientation:
 ---------------------------------------------------------------------
 Center     Atomic      Atomic             Coordinates (Angstroms)
 Number     Number       Type             X           Y           Z
 ---------------------------------------------------------------------
      1         15           0       -0.151470    1.000751    0.176299
      2         15           0       -2.834910    0.605530    0.978609
      3          6           0        0.167010    2.215451   -1.177161
      4          6           0       -0.383250    2.001411   -2.442301
      5          1           0       -0.965800    1.107371   -2.630101
      6          6           0       -0.184140    2.930801   -3.459211
      7          1           0       -0.612120    2.757831   -4.438761
      8          6           0        0.567020    4.075631   -3.217941
      9          1           0        0.726330    4.796561   -4.009861
     10          6           0        1.120420    4.292071   -1.958261
     11          1           0        1.710950    5.179941   -1.770141
     12          6           0        0.923400    3.367371   -0.940011
     13          1           0        1.370930    3.538101    0.031529
     14          6           0       -1.456940    1.849471    1.230949
     15          1           0       -1.689190    2.844271    0.853229
     16          1           0       -1.193590    1.941531    2.281299
     17          6           0       -4.284750    1.589240    0.289839
     18          1           0       -4.394900    2.439520    0.969739
     19          6           0       -3.977500    2.124260   -1.112061
     20          1           0       -3.076120    2.736940   -1.142651
     21          1           0       -4.806980    2.747110   -1.453951
     22          1           0       -3.854370    1.309800   -1.828481
     23          6           0       -5.586010    0.778640    0.302369
     24          1           0       -5.521300   -0.100130   -0.342411
     25          1           0       -6.401520    1.397370   -0.077991
     26          1           0       -5.869710    0.446130    1.300969
     27          6           0       -3.367810    0.062700    2.701729
     28          1           0       -4.181120   -0.642820    2.505699
     29          6           0       -3.907280    1.206770    3.567249
     30          1           0       -4.211810    0.814900    4.540409
     31          1           0       -4.775970    1.696920    3.128219
     32          1           0       -3.145920    1.968380    3.751449
     33          6           0       -2.243880   -0.699789    3.413419
     34          1           0       -1.411480   -0.043619    3.675989
     35          1           0       -1.849040   -1.512019    2.802259
     36          1           0       -2.623180   -1.125870    4.344569
     37         45           0       -1.524190   -0.902479   -0.292071
     38          6           0       -0.302050   -2.071109   -1.838271
     39          6           0        0.086510   -2.453679   -0.572631
     40          6           0       -2.763400   -2.797020   -0.060331
     41          6           0       -3.144880   -2.147050   -1.217431
     42          1           0        0.292200   -1.304269   -2.322201
     43          6           0       -1.217580   -2.858439   -2.755761
     44          1           0        0.974410   -1.983089   -0.165061
     45          6           0       -0.370220   -3.678429    0.180309
     46          6           0       -1.866220   -4.018789    0.010109
     47          1           0       -3.361610   -2.610500    0.824659
     48          1           0       -4.029130   -1.521540   -1.162521
     49          6           0       -2.704720   -2.468330   -2.623851
     50          1           0       -1.087410   -3.925509   -2.576601
     51          1           0       -0.905970   -2.688539   -3.787691
     52          1           0        0.242090   -4.539669   -0.115101
     53          1           0       -0.157680   -3.513889    1.238699
     54          1           0       -2.180080   -4.631389    0.856829
     55          1           0       -2.018310   -4.634449   -0.876311
     56          1           0       -3.336910   -3.265810   -3.034201
     57          1           0       -2.899940   -1.588870   -3.241661
     58          6           0        1.420090    0.911991    1.156969
     59          6           0        2.617750    0.412451    0.555819
     60          6           0        1.425150    1.269671    2.493199
     61          6           0        3.797650    0.283751    1.349219
     62          6           0        2.683620    0.045921   -0.826721
     63          6           0        2.585700    1.149101    3.266069
     64          1           0        0.539320    1.657641    2.973079
     65          6           0        5.021020   -0.227579    0.748679
     66          6           0        3.741780    0.662631    2.705579
     67          6           0        3.824730   -0.426219   -1.386561
     68          1           0        1.810900    0.170421   -1.451111
     69          1           0        2.567100    1.441941    4.308019
     70          6           0        5.022040   -0.583359   -0.626711
     71          6           0        6.222640   -0.391199    1.471009
     72          1           0        4.621330    0.576961    3.326539
     73          1           0        3.844140   -0.688539   -2.437991
     74          6           0        6.199340   -1.079049   -1.225841
     75          6           0        7.360470   -0.878599    0.866029
     76          1           0        6.270110   -0.134939    2.519659
     77          6           0        7.353540   -1.226419   -0.493701
     78          1           0        6.179410   -1.342029   -2.276911
     79          1           0        8.267610   -0.993189    1.445879
     80          1           0        8.253120   -1.607229   -0.960181
 ---------------------------------------------------------------------

 SCF Done:  E(RB3LYP) =  -2152.70260848     A.U. after   17 cycles

      1  P    Isotropic =   327.8128   Anisotropy =   109.1589

      2  P    Isotropic =   301.8620   Anisotropy =   121.3931

      3  C    Isotropic =    40.3154   Anisotropy =   178.9704

      4  C    Isotropic =    43.9522   Anisotropy =   176.0624

      5  H    Isotropic =    23.0188   Anisotropy =     8.7644

      6  C    Isotropic =    49.7263   Anisotropy =   186.7880

      7  H    Isotropic =    24.0207   Anisotropy =     6.7640

      8  C    Isotropic =    45.3591   Anisotropy =   197.5356

      9  H    Isotropic =    24.0669   Anisotropy =     3.4751

     10  C    Isotropic =    47.4344   Anisotropy =   191.5308

     11  H    Isotropic =    24.4042   Anisotropy =     6.6562

     12  C    Isotropic =    47.9656   Anisotropy =   187.8635

     13  H    Isotropic =    24.7766   Anisotropy =    12.1765

     14  C    Isotropic =   141.8456   Anisotropy =    55.3138

     15  H    Isotropic =    29.1396   Anisotropy =     6.4085

     16  H    Isotropic =    27.5580   Anisotropy =     6.2813

     17  C    Isotropic =   147.3117   Anisotropy =    24.4383

     18  H    Isotropic =    29.9077   Anisotropy =     6.6093

     19  C    Isotropic =   164.0301   Anisotropy =    27.6865

     20  H    Isotropic =    30.9398   Anisotropy =     9.0718

     21  H    Isotropic =    30.5791   Anisotropy =    11.5493

     22  H    Isotropic =    30.5734   Anisotropy =     5.5712

     23  C    Isotropic =   166.6547   Anisotropy =    30.1553

     24  H    Isotropic =    31.1327   Anisotropy =     5.9717

     25  H    Isotropic =    30.5486   Anisotropy =    12.4592

     26  H    Isotropic =    30.7339   Anisotropy =     8.6335

     27  C    Isotropic =   150.0294   Anisotropy =    20.7735

     28  H    Isotropic =    29.7722   Anisotropy =     5.4375

     29  C    Isotropic =   168.5220   Anisotropy =    30.1005

     30  H    Isotropic =    30.4715   Anisotropy =    12.6419

     31  H    Isotropic =    30.6891   Anisotropy =     9.2837

     32  H    Isotropic =    30.9338   Anisotropy =     7.2749

     33  C    Isotropic =   163.2057   Anisotropy =    30.9405

     34  H    Isotropic =    30.6024   Anisotropy =     7.1202

     35  H    Isotropic =    29.8000   Anisotropy =     7.7504

     36  H    Isotropic =    30.3277   Anisotropy =    11.5891

     37  Rh   Isotropic =  -327.1430   Anisotropy =   381.2345

     38  C    Isotropic =    79.1859   Anisotropy =   121.7361

     39  C    Isotropic =    72.5352   Anisotropy =   125.1365

     40  C    Isotropic =    80.8655   Anisotropy =   120.1516

     41  C    Isotropic =    80.0453   Anisotropy =   112.0353

     42  H    Isotropic =    26.6227   Anisotropy =     5.7496

     43  C    Isotropic =   154.4686   Anisotropy =    24.1619

     44  H    Isotropic =    26.6890   Anisotropy =     8.9239

     45  C    Isotropic =   148.1824   Anisotropy =    29.6174

     46  C    Isotropic =   153.9960   Anisotropy =    25.2180

     47  H    Isotropic =    27.0865   Anisotropy =     6.3193

     48  H    Isotropic =    26.1679   Anisotropy =     5.0399

     49  C    Isotropic =   146.9105   Anisotropy =    30.7214

     50  H    Isotropic =    29.8496   Anisotropy =     9.4966

     51  H    Isotropic =    29.7153   Anisotropy =    11.3600

     52  H    Isotropic =    29.5408   Anisotropy =    11.7589

     53  H    Isotropic =    29.5444   Anisotropy =     6.0985

     54  H    Isotropic =    29.9820   Anisotropy =    11.6062

     55  H    Isotropic =    29.8593   Anisotropy =     9.7588

     56  H    Isotropic =    28.9520   Anisotropy =    12.8361

     57  H    Isotropic =    28.8298   Anisotropy =     7.5238

     58  C    Isotropic =    52.1895   Anisotropy =   149.4645

     59  C    Isotropic =    45.9523   Anisotropy =   202.9972

     60  C    Isotropic =    51.0979   Anisotropy =   182.7091

     61  C    Isotropic =    44.7722   Anisotropy =   200.4779

     62  C    Isotropic =    58.8635   Anisotropy =   156.3180

     63  C    Isotropic =    54.7943   Anisotropy =   177.4773

     64  H    Isotropic =    23.8763   Anisotropy =    12.0040

     65  C    Isotropic =    48.3722   Anisotropy =   199.7708

     66  C    Isotropic =    51.3528   Anisotropy =   186.3141

     67  C    Isotropic =    49.0420   Anisotropy =   158.9284

     68  H    Isotropic =    24.9191   Anisotropy =    11.2495

     69  H    Isotropic =    23.8242   Anisotropy =     6.8583

     70  C    Isotropic =    47.2151   Anisotropy =   210.6017

     71  C    Isotropic =    56.8488   Anisotropy =   177.7189

     72  H    Isotropic =    22.5016   Anisotropy =     9.4005

     73  H    Isotropic =    24.2541   Anisotropy =    11.2677

     74  C    Isotropic =    50.0929   Anisotropy =   163.4967

     75  C    Isotropic =    49.5781   Anisotropy =   187.4217

     76  H    Isotropic =    22.8541   Anisotropy =    11.0746

     77  C    Isotropic =    49.6674   Anisotropy =   188.7927

     78  H    Isotropic =    23.9024   Anisotropy =     9.2347

     79  H    Isotropic =    23.7953   Anisotropy =     5.9347

     80  H    Isotropic =    23.9100   Anisotropy =     5.5127

 The electronic state is 1-A.
 Alpha  occ. eigenvalues --  -77.23868 -77.22790 -10.30248 -10.30233 -10.30173
 Alpha  occ. eigenvalues --  -10.29756 -10.29332 -10.29279 -10.29164 -10.29089
 Alpha  occ. eigenvalues --  -10.28906 -10.28739 -10.28520 -10.28245 -10.28188
 Alpha  occ. eigenvalues --  -10.28054 -10.27675 -10.27566 -10.27510 -10.27457
 Alpha  occ. eigenvalues --  -10.27455 -10.27386 -10.27380 -10.27349 -10.27247
 Alpha  occ. eigenvalues --  -10.27107 -10.27105 -10.27065 -10.27047 -10.26913
 Alpha  occ. eigenvalues --  -10.26878 -10.26780 -10.26780 -10.25808 -10.25691
 Alpha  occ. eigenvalues --  -10.25562 -10.25448  -6.69793  -6.68863  -4.86090
 Alpha  occ. eigenvalues --   -4.86013  -4.85691  -4.85161  -4.85036  -4.84769
 Alpha  occ. eigenvalues --   -3.31550  -2.08427  -2.07776  -2.05011  -0.98107
 Alpha  occ. eigenvalues --   -0.96327  -0.94581  -0.94514  -0.92521  -0.90464
 Alpha  occ. eigenvalues --   -0.89648  -0.89226  -0.88804  -0.88104  -0.86505
 Alpha  occ. eigenvalues --   -0.85151  -0.84979  -0.84499  -0.81922  -0.81185
 Alpha  occ. eigenvalues --   -0.80414  -0.79731  -0.79368  -0.77891  -0.75763
 Alpha  occ. eigenvalues --   -0.73749  -0.72204  -0.71814  -0.70970  -0.70670
 Alpha  occ. eigenvalues --   -0.70389  -0.69651  -0.68512  -0.65971  -0.65700
 Alpha  occ. eigenvalues --   -0.64601  -0.62933  -0.62670  -0.62172  -0.61106
 Alpha  occ. eigenvalues --   -0.60241  -0.59511  -0.58582  -0.57607  -0.56944
 Alpha  occ. eigenvalues --   -0.56878  -0.56713  -0.56318  -0.55955  -0.55635
 Alpha  occ. eigenvalues --   -0.55520  -0.54689  -0.53715  -0.53614  -0.53078
 Alpha  occ. eigenvalues --   -0.52799  -0.52627  -0.52571  -0.52279  -0.52087
 Alpha  occ. eigenvalues --   -0.51474  -0.51021  -0.50944  -0.50442  -0.50206
 Alpha  occ. eigenvalues --   -0.49733  -0.49446  -0.49404  -0.48622  -0.48250
 Alpha  occ. eigenvalues --   -0.47890  -0.47771  -0.46809  -0.46665  -0.46211
 Alpha  occ. eigenvalues --   -0.46045  -0.45918  -0.45833  -0.45757  -0.45661
 Alpha  occ. eigenvalues --   -0.45236  -0.44955  -0.44083  -0.43499  -0.43221
 Alpha  occ. eigenvalues --   -0.43065  -0.42696  -0.42369  -0.41655  -0.41540
 Alpha  occ. eigenvalues --   -0.41042  -0.40850  -0.38634  -0.36958  -0.36549
 Alpha  occ. eigenvalues --   -0.36091  -0.35913  -0.35391  -0.34864  -0.34637
 Alpha  occ. eigenvalues --   -0.33786  -0.32169  -0.31083  -0.30584
 Alpha virt. eigenvalues --   -0.16509  -0.14983  -0.13685  -0.13364  -0.12863
 Alpha virt. eigenvalues --   -0.11449  -0.09829  -0.09356  -0.08286  -0.07890
 Alpha virt. eigenvalues --   -0.07223  -0.06859  -0.06724  -0.06493  -0.05373

 Mulliken charges:
               1
     1  P    0.305210
     2  P    0.449943
     3  C   -0.323903
     4  C   -0.009895
     5  H    0.164581
     6  C   -0.107545
     7  H    0.128292
     8  C   -0.088749
     9  H    0.139799
    10  C   -0.094369
    11  H    0.135342
    12  C   -0.034807
    13  H    0.153276
    14  C   -0.620610
    15  H    0.226006
    16  H    0.192988
    17  C   -0.189469
    18  H    0.180056
    19  C   -0.390988
    20  H    0.149699
    21  H    0.159369
    22  H    0.125741
    23  C   -0.395593
    24  H    0.132144
    25  H    0.159222
    26  H    0.146845
    27  C   -0.212792
    28  H    0.174667
    29  C   -0.378874
    30  H    0.154535
    31  H    0.148367
    32  H    0.132246
    33  C   -0.388863
    34  H    0.119942
    35  H    0.145040
    36  H    0.159168
    37  Rh  -0.522792
    38  C   -0.062481
    39  C   -0.051294
    40  C   -0.030361
    41  C   -0.087981
    42  H    0.182050
    43  C   -0.358708
    44  H    0.220784
    45  C   -0.231749
    46  C   -0.352676
    47  H    0.180985
    48  H    0.169366
    49  C   -0.216123
    50  H    0.169872
    51  H    0.169092
    52  H    0.172767
    53  H    0.136844
    54  H    0.167633
    55  H    0.168919
    56  H    0.171805
    57  H    0.129522
    58  C   -0.197237
    59  C    0.146374
    60  C   -0.027581
    61  C    0.006844
    62  C   -0.078701
    63  C   -0.058377
    64  H    0.093739
    65  C    0.032646
    66  C   -0.146932
    67  C   -0.220827
    68  H    0.135201
    69  H    0.117468
    70  C   -0.000766
    71  C   -0.125334
    72  H    0.124295
    73  H    0.109727
    74  C   -0.120814
    75  C   -0.055051
    76  H    0.115701
    77  C   -0.085416
    78  H    0.116157
    79  H    0.121458
    80  H    0.125933
 Sum of Mulliken charges =   1.00000

 Dipole moment (field-independent basis, Debye):
    X=             -3.9175    Y=              0.5175    Z=              0.7340  Tot=              4.0192
 Quadrupole moment (field-independent basis, Debye-Ang):
   XX=           -182.9386   YY=           -222.9229   ZZ=           -215.7446
   XY=             -2.8926   XZ=             -2.2578   YZ=              3.2841

 Summary of Natural Population Analysis:

                                       Natural Population
                Natural  -----------------------------------------------
    Atom  No    Charge         Core      Valence    Rydberg      Total
 -----------------------------------------------------------------------
      P    1    1.08546      9.99664     3.86760    0.05029    13.91454
      P    2    1.10382      9.99682     3.85352    0.04585    13.89618
      C    3   -0.34125      1.99899     4.31730    0.02496     6.34125
      C    4   -0.19454      1.99908     4.17986    0.01560     6.19454
      H    5    0.22089      0.00000     0.77706    0.00205     0.77911
      C    6   -0.19721      1.99920     4.18331    0.01470     6.19721
      H    7    0.22057      0.00000     0.77819    0.00123     0.77943
      C    8   -0.17743      1.99921     4.16363    0.01460     6.17743
      H    9    0.22292      0.00000     0.77590    0.00118     0.77708
      C   10   -0.18780      1.99920     4.17410    0.01450     6.18780
      H   11    0.22344      0.00000     0.77534    0.00122     0.77656
      C   12   -0.19193      1.99909     4.17656    0.01628     6.19193
      H   13    0.22081      0.00000     0.77730    0.00189     0.77919
      C   14   -0.99008      1.99941     4.97220    0.01848     6.99008
      H   15    0.26362      0.00000     0.73448    0.00190     0.73638
      H   16    0.25076      0.00000     0.74686    0.00238     0.74924
      C   17   -0.46674      1.99941     4.45221    0.01512     6.46674
      H   18    0.22127      0.00000     0.77619    0.00254     0.77873
      C   19   -0.59338      1.99942     4.58641    0.00756     6.59338
      H   20    0.21182      0.00000     0.78661    0.00157     0.78818
      H   21    0.22348      0.00000     0.77501    0.00150     0.77652
      H   22    0.20970      0.00000     0.78871    0.00159     0.79030
      C   23   -0.59787      1.99941     4.59082    0.00764     6.59787
      H   24    0.20334      0.00000     0.79515    0.00150     0.79666
      H   25    0.22704      0.00000     0.77148    0.00149     0.77296
      H   26    0.20976      0.00000     0.78877    0.00147     0.79024
      C   27   -0.46400      1.99941     4.45034    0.01424     6.46400
      H   28    0.22320      0.00000     0.77485    0.00195     0.77680
      C   29   -0.60194      1.99941     4.59421    0.00832     6.60194
      H   30    0.22650      0.00000     0.77202    0.00148     0.77350
      H   31    0.21082      0.00000     0.78773    0.00145     0.78918
      H   32    0.20272      0.00000     0.79557    0.00171     0.79728
      C   33   -0.59080      1.99941     4.58387    0.00752     6.59080
      H   34    0.20026      0.00000     0.79800    0.00174     0.79974
      H   35    0.22084      0.00000     0.77773    0.00144     0.77916
      H   36    0.22309      0.00000     0.77541    0.00149     0.77691
     Rh   37   -0.38114     35.98598     9.36697    0.02819    45.38114
      C   38   -0.18566      1.99908     4.16701    0.01958     6.18566
      C   39   -0.15644      1.99909     4.13773    0.01962     6.15644
      C   40   -0.17130      1.99908     4.15275    0.01947     6.17130
      C   41   -0.16474      1.99909     4.14568    0.01997     6.16474
      H   42    0.22287      0.00000     0.77508    0.00205     0.77713
      C   43   -0.42295      1.99936     4.41170    0.01189     6.42295
      H   44    0.23646      0.00000     0.76143    0.00211     0.76354
      C   45   -0.41792      1.99935     4.40599    0.01259     6.41792
      C   46   -0.42398      1.99936     4.41268    0.01194     6.42398
      H   47    0.22057      0.00000     0.77738    0.00205     0.77943
      H   48    0.21999      0.00000     0.77779    0.00222     0.78001
      C   49   -0.41667      1.99935     4.40458    0.01275     6.41667
      H   50    0.21551      0.00000     0.78252    0.00197     0.78449
      H   51    0.22792      0.00000     0.77059    0.00149     0.77208
      H   52    0.23445      0.00000     0.76368    0.00188     0.76555
      H   53    0.21770      0.00000     0.78063    0.00167     0.78230
      H   54    0.22822      0.00000     0.77029    0.00149     0.77178
      H   55    0.21585      0.00000     0.78220    0.00195     0.78415
      H   56    0.23377      0.00000     0.76435    0.00188     0.76623
      H   57    0.21480      0.00000     0.78353    0.00166     0.78520
      C   58   -0.30443      1.99894     4.28261    0.02287     6.30443
      C   59   -0.05136      1.99902     4.03271    0.01963     6.05136
      C   60   -0.19355      1.99909     4.17891    0.01555     6.19355
      C   61   -0.02117      1.99907     4.00560    0.01650     6.02117
      C   62   -0.21324      1.99910     4.19899    0.01515     6.21324
      C   63   -0.19935      1.99918     4.18460    0.01557     6.19935
      H   64    0.19956      0.00000     0.79792    0.00252     0.80044
      C   65   -0.03066      1.99906     4.01530    0.01630     6.03066
      C   66   -0.15157      1.99914     4.13906    0.01337     6.15157
      C   67   -0.14484      1.99913     4.13176    0.01396     6.14484
      H   68    0.20876      0.00000     0.78855    0.00269     0.79124
      H   69    0.22107      0.00000     0.77774    0.00119     0.77893
      C   70   -0.06056      1.99909     4.04525    0.01621     6.06056
      C   71   -0.17845      1.99914     4.16575    0.01356     6.17845
      H   72    0.21530      0.00000     0.78310    0.00160     0.78470
      H   73    0.21257      0.00000     0.78551    0.00192     0.78743
      C   74   -0.17058      1.99915     4.15716    0.01426     6.17058
      C   75   -0.18394      1.99921     4.16990    0.01484     6.18394
      H   76    0.20558      0.00000     0.79243    0.00199     0.79442
      C   77   -0.18949      1.99920     4.17542    0.01487     6.18949
      H   78    0.21289      0.00000     0.78557    0.00154     0.78711
      H   79    0.21880      0.00000     0.78002    0.00117     0.78120
      H   80    0.22016      0.00000     0.77870    0.00114     0.77984
 =======================================================================
   * Total *    1.00000    125.95134   199.32139    0.72727   326.00000

 Normal termination of Gaussian 16 at Wed Nov  6 00:15:29 2024.
