 Gaussian 16, Revision B.01,
 Gaussian 16:  ES64L-G16RevB.01 20-Dec-2017

 ------------------------------------------
 # nmr=giao b3lyp/genecp pop=nbo scfcyc=200
 ------------------------------------------

 --------------
 Ligand 51b SPE
 --------------
 Symbolic Z-matrix:
 Charge =  1 Multiplicity = 1

                         Standard orientation:
 ---------------------------------------------------------------------
 Center     Atomic      Atomic             Coordinates (Angstroms)
 Number     Number       Type             X           Y           Z
 ---------------------------------------------------------------------
      1          6           0       -2.537010    1.002448   -0.394550
      2          1           0       -2.607540    1.866108    0.270310
      3          6           0       -3.725859    0.099077   -0.063770
      4          6           0       -4.733259   -0.161043   -0.995460
      5          1           0       -4.672039    0.244007   -1.995580
      6          6           0       -5.840688   -0.936034   -0.655230
      7          1           0       -6.611768   -1.118194   -1.393490
      8          6           0       -5.960798   -1.464634    0.623520
      9          1           0       -6.823568   -2.062024    0.889800
     10          6           0       -4.962878   -1.214303    1.562220
     11          1           0       -5.045068   -1.619233    2.563230
     12          6           0       -3.861689   -0.440693    1.220000
     13          1           0       -3.090339   -0.270772    1.959070
     14          6           0       -2.522630    1.534988   -1.830000
     15          1           0       -1.666500    2.189518   -1.977240
     16          1           0       -3.422680    2.119918   -2.023960
     17          1           0       -2.461439    0.727068   -2.557620
     18          6           0       -0.076510    1.608169    2.432770
     19          6           0       -1.409360    2.314159    2.734210
     20          1           0       -1.461110    2.503169    3.809810
     21          1           0       -2.270010    1.699368    2.477300
     22          1           0       -1.515721    3.277009    2.238810
     23          6           0        1.100340    2.496080    2.877870
     24          1           0        1.080229    3.480710    2.412780
     25          1           0        2.069160    2.043151    2.659940
     26          1           0        1.045060    2.637080    3.959970
     27          6           0       -0.044639    0.280949    3.213990
     28          1           0        0.902851   -0.244200    3.091140
     29          1           0       -0.843119   -0.395871    2.907200
     30          1           0       -0.178999    0.492289    4.277580
     31          6           0        0.502190    2.665580   -0.408730
     32          6           0        1.271550    2.494320   -1.566740
     33          1           0        1.670960    1.513990   -1.799130
     34          6           0        1.517319    3.561400   -2.421870
     35          1           0        2.111079    3.410111   -3.314580
     36          6           0        1.006048    4.821140   -2.127520
     37          1           0        1.200278    5.655460   -2.789560
     38          6           0        0.244258    5.005370   -0.978630
     39          1           0       -0.157072    5.983179   -0.743890
     40          6           0       -0.008751    3.937049   -0.125040
     41          1           0       -0.608861    4.113059    0.754130
     42          6           0       -2.320307   -3.048182   -0.702420
     43          1           0       -3.304668   -2.621722   -0.518110
     44          1           0       -2.330337   -4.114562   -0.487560
     45          6           0       -1.811827   -2.735572   -2.110070
     46          1           0       -1.089697   -3.476731   -2.458400
     47          1           0       -2.617628   -2.644782   -2.835540
     48          7           0       -1.230469    0.358549   -0.040100
     49          8           0       -1.363738   -2.431051    0.193340
     50          8           0       -1.154638   -1.450121   -2.018670
     51         15           0        0.218580    1.148720    0.605510
     52         15           0       -0.587738   -1.151131   -0.494110
     53         45           0        1.563801   -0.736060    0.067960
     54          6           0        3.767561    0.034261    0.093280
     55          6           0        3.459471   -0.450589    1.339070
     56          6           0        2.468173   -2.817789   -0.077040
     57          6           0        2.521272   -2.215679   -1.319380
     58          1           0        3.639720    1.099581   -0.064750
     59          6           0        4.570031   -0.698948   -0.963640
     60          1           0        3.147281    0.271991    2.084710
     61          6           0        3.773532   -1.818559    1.890710
     62          6           0        3.638793   -2.973389    0.875330
     63          1           0        1.617973   -3.460620    0.123520
     64          1           0        1.735622   -2.462100   -2.026640
     65          6           0        3.710342   -1.527349   -1.943370
     66          1           0        5.311382   -1.334208   -0.480010
     67          1           0        5.134771    0.036692   -1.538670
     68          1           0        4.784092   -1.816658    2.317730
     69          1           0        3.098282   -2.001499    2.729180
     70          1           0        3.510843   -3.903709    1.430660
     71          1           0        4.561133   -3.088678    0.306440
     72          1           0        4.340732   -2.269908   -2.448300
     73          1           0        3.335271   -0.872969   -2.733170
 ---------------------------------------------------------------------

 SCF Done:  E(RB3LYP) =  -2089.34257212     A.U. after   16 cycles

      1  C    Isotropic =   118.2796   Anisotropy =    46.1287

      2  H    Isotropic =    27.4147   Anisotropy =     3.2869

      3  C    Isotropic =    38.0569   Anisotropy =   186.3062

      4  C    Isotropic =    53.4405   Anisotropy =   184.5911

      5  H    Isotropic =    24.4771   Anisotropy =    11.4672

      6  C    Isotropic =    49.6094   Anisotropy =   188.6800

      7  H    Isotropic =    24.2952   Anisotropy =     5.3255

      8  C    Isotropic =    48.9931   Anisotropy =   191.9871

      9  H    Isotropic =    24.2183   Anisotropy =     3.6846

     10  C    Isotropic =    49.7567   Anisotropy =   188.3857

     11  H    Isotropic =    24.1483   Anisotropy =     6.8927

     12  C    Isotropic =    49.5563   Anisotropy =   182.5123

     13  H    Isotropic =    23.8484   Anisotropy =     9.4085

     14  C    Isotropic =   164.5158   Anisotropy =    22.2220

     15  H    Isotropic =    31.6707   Anisotropy =    12.0018

     16  H    Isotropic =    30.8885   Anisotropy =    11.3844

     17  H    Isotropic =    30.2550   Anisotropy =     4.7711

     18  C    Isotropic =   132.6340   Anisotropy =    34.3006

     19  C    Isotropic =   156.4542   Anisotropy =    37.5838

     20  H    Isotropic =    30.3563   Anisotropy =    10.4178

     21  H    Isotropic =    29.6240   Anisotropy =     7.1421

     22  H    Isotropic =    29.8181   Anisotropy =     8.6704

     23  C    Isotropic =   157.5963   Anisotropy =    35.3176

     24  H    Isotropic =    30.4581   Anisotropy =     7.9851

     25  H    Isotropic =    31.1051   Anisotropy =     6.1340

     26  H    Isotropic =    30.6690   Anisotropy =    10.6847

     27  C    Isotropic =   152.6612   Anisotropy =    38.6119

     28  H    Isotropic =    30.0485   Anisotropy =     8.0906

     29  H    Isotropic =    29.5999   Anisotropy =     5.6738

     30  H    Isotropic =    30.5064   Anisotropy =     9.7458

     31  C    Isotropic =    45.5664   Anisotropy =   169.3482

     32  C    Isotropic =    40.6823   Anisotropy =   182.0106

     33  H    Isotropic =    23.0112   Anisotropy =    10.3772

     34  C    Isotropic =    48.3552   Anisotropy =   189.5973

     35  H    Isotropic =    23.9177   Anisotropy =     7.0886

     36  C    Isotropic =    44.1050   Anisotropy =   199.5299

     37  H    Isotropic =    23.8976   Anisotropy =     3.8591

     38  C    Isotropic =    49.0904   Anisotropy =   189.2487

     39  H    Isotropic =    24.0789   Anisotropy =     5.9733

     40  C    Isotropic =    47.4897   Anisotropy =   184.1590

     41  H    Isotropic =    23.6739   Anisotropy =    11.0458

     42  C    Isotropic =   115.9120   Anisotropy =    73.9853

     43  H    Isotropic =    30.7301   Anisotropy =    11.6063

     44  H    Isotropic =    28.5445   Anisotropy =     9.6088

     45  C    Isotropic =   113.8890   Anisotropy =    73.4493

     46  H    Isotropic =    28.4464   Anisotropy =    11.0375

     47  H    Isotropic =    28.0254   Anisotropy =     8.7224

     48  N    Isotropic =    87.1899   Anisotropy =   128.8382

     49  O    Isotropic =   191.4072   Anisotropy =   119.3579

     50  O    Isotropic =   210.5375   Anisotropy =   114.9798

     51  P    Isotropic =   204.1848   Anisotropy =    90.3375

     52  P    Isotropic =   149.3650   Anisotropy =   171.2095

     53  Rh   Isotropic =  -275.5882   Anisotropy =   332.3811

     54  C    Isotropic =    69.6405   Anisotropy =   135.8579

     55  C    Isotropic =    70.1407   Anisotropy =   126.2205

     56  C    Isotropic =    80.7951   Anisotropy =   120.5037

     57  C    Isotropic =    78.9582   Anisotropy =   114.3065

     58  H    Isotropic =    26.6694   Anisotropy =     5.7600

     59  C    Isotropic =   154.3391   Anisotropy =    25.0974

     60  H    Isotropic =    26.0057   Anisotropy =     3.8868

     61  C    Isotropic =   148.6952   Anisotropy =    27.5477

     62  C    Isotropic =   154.3806   Anisotropy =    24.3048

     63  H    Isotropic =    27.1779   Anisotropy =     7.4517

     64  H    Isotropic =    26.5011   Anisotropy =     5.4075

     65  C    Isotropic =   146.9342   Anisotropy =    30.4344

     66  H    Isotropic =    29.7309   Anisotropy =     9.3643

     67  H    Isotropic =    29.8280   Anisotropy =    11.4105

     68  H    Isotropic =    29.1382   Anisotropy =    12.5554

     69  H    Isotropic =    29.1331   Anisotropy =     7.5716

     70  H    Isotropic =    29.8302   Anisotropy =    11.6826

     71  H    Isotropic =    29.7781   Anisotropy =     9.5183

     72  H    Isotropic =    29.0106   Anisotropy =    12.6206

     73  H    Isotropic =    28.9416   Anisotropy =     7.9790

 The electronic state is 1-A.
 Alpha  occ. eigenvalues --  -77.31535 -77.26099 -19.26442 -19.26226 -14.45157
 Alpha  occ. eigenvalues --  -10.34290 -10.33709 -10.32788 -10.31596 -10.30186
 Alpha  occ. eigenvalues --  -10.29918 -10.29785 -10.29756 -10.29393 -10.29057
 Alpha  occ. eigenvalues --  -10.28860 -10.28280 -10.28215 -10.28169 -10.28154
 Alpha  occ. eigenvalues --  -10.28137 -10.28135 -10.27982 -10.27775 -10.27167
 Alpha  occ. eigenvalues --  -10.27160 -10.26865 -10.26853 -10.26830 -10.26628
 Alpha  occ. eigenvalues --  -10.26564 -10.26453 -10.25553  -6.76406  -6.71740
 Alpha  occ. eigenvalues --   -4.92818  -4.92722  -4.92274  -4.88147  -4.87878
 Alpha  occ. eigenvalues --   -4.87643  -3.32517  -2.09571  -2.08776  -2.05822
 Alpha  occ. eigenvalues --   -1.19274  -1.12054  -1.02810  -0.97025  -0.95495
 Alpha  occ. eigenvalues --   -0.95123  -0.92932  -0.89917  -0.88898  -0.88635
 Alpha  occ. eigenvalues --   -0.87147  -0.86119  -0.85912  -0.84229  -0.82409
 Alpha  occ. eigenvalues --   -0.81029  -0.80108  -0.79758  -0.78488  -0.76375
 Alpha  occ. eigenvalues --   -0.75194  -0.74828  -0.71752  -0.71207  -0.70844
 Alpha  occ. eigenvalues --   -0.70002  -0.69559  -0.67139  -0.66517  -0.65282
 Alpha  occ. eigenvalues --   -0.63109  -0.62896  -0.62651  -0.61773  -0.60806
 Alpha  occ. eigenvalues --   -0.60565  -0.58985  -0.58225  -0.57880  -0.57451
 Alpha  occ. eigenvalues --   -0.56863  -0.56523  -0.56336  -0.55817  -0.55335
 Alpha  occ. eigenvalues --   -0.54964  -0.54553  -0.54220  -0.53809  -0.53596
 Alpha  occ. eigenvalues --   -0.53361  -0.53157  -0.52999  -0.52548  -0.51510
 Alpha  occ. eigenvalues --   -0.51255  -0.50345  -0.50112  -0.49466  -0.48759
 Alpha  occ. eigenvalues --   -0.48664  -0.48231  -0.48061  -0.47700  -0.47590
 Alpha  occ. eigenvalues --   -0.46762  -0.46644  -0.46482  -0.46219  -0.45994
 Alpha  occ. eigenvalues --   -0.45869  -0.45780  -0.45245  -0.45144  -0.44303
 Alpha  occ. eigenvalues --   -0.43874  -0.43687  -0.43260  -0.43068  -0.42410
 Alpha  occ. eigenvalues --   -0.41761  -0.41062  -0.38656  -0.38189  -0.37995
 Alpha  occ. eigenvalues --   -0.36781  -0.36594  -0.35660  -0.35476  -0.35043
 Alpha  occ. eigenvalues --   -0.34706  -0.34186  -0.31548
 Alpha virt. eigenvalues --   -0.16601  -0.15445  -0.13357  -0.12283  -0.11223
 Alpha virt. eigenvalues --   -0.10462  -0.10161  -0.08827  -0.07447  -0.06721
 Alpha virt. eigenvalues --   -0.06551  -0.06348  -0.05691  -0.05067  -0.04591

 Mulliken charges:
               1
     1  C   -0.041064
     2  H    0.178806
     3  C   -0.106805
     4  C   -0.115666
     5  H    0.142078
     6  C   -0.091351
     7  H    0.129280
     8  C   -0.100776
     9  H    0.131964
    10  C   -0.120367
    11  H    0.126415
    12  C   -0.022660
    13  H    0.111841
    14  C   -0.437602
    15  H    0.174527
    16  H    0.154181
    17  H    0.153432
    18  C   -0.018688
    19  C   -0.410188
    20  H    0.158873
    21  H    0.146632
    22  H    0.159385
    23  C   -0.402292
    24  H    0.156197
    25  H    0.139160
    26  H    0.154755
    27  C   -0.380336
    28  H    0.139362
    29  H    0.150215
    30  H    0.156925
    31  C   -0.254176
    32  C   -0.027268
    33  H    0.199279
    34  C   -0.114091
    35  H    0.132976
    36  C   -0.079580
    37  H    0.141227
    38  C   -0.118336
    39  H    0.134936
    40  C   -0.001455
    41  H    0.129068
    42  C   -0.074155
    43  H    0.146131
    44  H    0.161865
    45  C   -0.113676
    46  H    0.151612
    47  H    0.160147
    48  N   -0.418295
    49  O   -0.331838
    50  O   -0.350431
    51  P    0.359303
    52  P    0.777839
    53  Rh  -0.689400
    54  C   -0.027745
    55  C   -0.114719
    56  C    0.008318
    57  C   -0.115090
    58  H    0.197029
    59  C   -0.349250
    60  H    0.179104
    61  C   -0.218720
    62  C   -0.357970
    63  H    0.186850
    64  H    0.193374
    65  C   -0.228075
    66  H    0.168428
    67  H    0.172217
    68  H    0.175909
    69  H    0.137240
    70  H    0.173069
    71  H    0.168015
    72  H    0.175641
    73  H    0.138462
 Sum of Mulliken charges =   1.00000

 Dipole moment (field-independent basis, Debye):
    X=              1.1173    Y=             -0.2512    Z=             -0.4662  Tot=              1.2364
 Quadrupole moment (field-independent basis, Debye-Ang):
   XX=           -178.5003   YY=           -185.3864   ZZ=           -206.2097
   XY=              2.9457   XZ=              1.1703   YZ=              3.2722

 Summary of Natural Population Analysis:

                                       Natural Population
                Natural  -----------------------------------------------
    Atom  No    Charge         Core      Valence    Rydberg      Total
 -----------------------------------------------------------------------
      C    1   -0.05996      1.99926     4.03492    0.02578     6.05996
      H    2    0.21267      0.00000     0.78415    0.00318     0.78733
      C    3   -0.05334      1.99904     4.03446    0.01984     6.05334
      C    4   -0.21167      1.99911     4.19755    0.01501     6.21167
      H    5    0.21771      0.00000     0.78064    0.00165     0.78229
      C    6   -0.19930      1.99921     4.18464    0.01545     6.19930
      H    7    0.21979      0.00000     0.77899    0.00122     0.78021
      C    8   -0.19806      1.99920     4.18389    0.01497     6.19806
      H    9    0.22135      0.00000     0.77747    0.00118     0.77865
      C   10   -0.19766      1.99920     4.18331    0.01515     6.19766
      H   11    0.21895      0.00000     0.77980    0.00125     0.78105
      C   12   -0.20150      1.99910     4.18716    0.01524     6.20150
      H   13    0.20509      0.00000     0.79239    0.00252     0.79491
      C   14   -0.60864      1.99942     4.60046    0.00876     6.60864
      H   15    0.22005      0.00000     0.77824    0.00172     0.77995
      H   16    0.21907      0.00000     0.77977    0.00116     0.78093
      H   17    0.22051      0.00000     0.77806    0.00144     0.77949
      C   18   -0.28913      1.99943     4.27095    0.01876     6.28913
      C   19   -0.60178      1.99934     4.59376    0.00868     6.60178
      H   20    0.22430      0.00000     0.77392    0.00177     0.77570
      H   21    0.21225      0.00000     0.78616    0.00159     0.78775
      H   22    0.20343      0.00000     0.79506    0.00150     0.79657
      C   23   -0.60461      1.99935     4.59741    0.00785     6.60461
      H   24    0.21851      0.00000     0.78001    0.00148     0.78149
      H   25    0.20616      0.00000     0.79239    0.00146     0.79384
      H   26    0.22524      0.00000     0.77303    0.00174     0.77476
      C   27   -0.59919      1.99936     4.59177    0.00807     6.59919
      H   28    0.21554      0.00000     0.78272    0.00174     0.78446
      H   29    0.21546      0.00000     0.78306    0.00148     0.78454
      H   30    0.22217      0.00000     0.77609    0.00175     0.77783
      C   31   -0.38407      1.99897     4.35993    0.02517     6.38407
      C   32   -0.17884      1.99909     4.16446    0.01529     6.17884
      H   33    0.22387      0.00000     0.77397    0.00216     0.77613
      C   34   -0.19559      1.99919     4.18192    0.01448     6.19559
      H   35    0.22255      0.00000     0.77620    0.00124     0.77745
      C   36   -0.16997      1.99920     4.15622    0.01454     6.16997
      H   37    0.22485      0.00000     0.77398    0.00117     0.77515
      C   38   -0.19265      1.99920     4.17887    0.01459     6.19265
      H   39    0.22449      0.00000     0.77427    0.00124     0.77551
      C   40   -0.18940      1.99909     4.17441    0.01591     6.18940
      H   41    0.20882      0.00000     0.78875    0.00243     0.79118
      C   42   -0.10881      1.99930     4.09296    0.01655     6.10881
      H   43    0.20209      0.00000     0.79496    0.00295     0.79791
      H   44    0.20743      0.00000     0.79085    0.00172     0.79257
      C   45   -0.10249      1.99931     4.08681    0.01637     6.10249
      H   46    0.18166      0.00000     0.81654    0.00180     0.81834
      H   47    0.21169      0.00000     0.78654    0.00177     0.78831
      N   48   -1.03383      1.99958     6.00878    0.02547     8.03383
      O   49   -0.74470      1.99983     6.73348    0.01138     8.74470
      O   50   -0.74985      1.99983     6.73903    0.01099     8.74985
      P   51    1.31486      9.99616     3.62816    0.06082    13.68514
      P   52    1.87190      9.99541     3.02826    0.10443    13.12810
     Rh   53   -0.48641     35.98439     9.47678    0.02524    45.48641
      C   54   -0.16424      1.99907     4.14493    0.02024     6.16424
      C   55   -0.15914      1.99907     4.13898    0.02109     6.15914
      C   56   -0.17324      1.99905     4.15452    0.01966     6.17324
      C   57   -0.15539      1.99906     4.13577    0.02057     6.15539
      H   58    0.23035      0.00000     0.76764    0.00201     0.76965
      C   59   -0.42536      1.99936     4.41390    0.01210     6.42536
      H   60    0.22341      0.00000     0.77443    0.00216     0.77659
      C   61   -0.42431      1.99936     4.41245    0.01250     6.42431
      C   62   -0.42292      1.99936     4.41177    0.01178     6.42292
      H   63    0.23166      0.00000     0.76649    0.00184     0.76834
      H   64    0.22683      0.00000     0.77121    0.00196     0.77317
      C   65   -0.42087      1.99936     4.40906    0.01245     6.42087
      H   66    0.21365      0.00000     0.78407    0.00227     0.78635
      H   67    0.23058      0.00000     0.76802    0.00140     0.76942
      H   68    0.23689      0.00000     0.76132    0.00179     0.76311
      H   69    0.22081      0.00000     0.77768    0.00151     0.77919
      H   70    0.23121      0.00000     0.76740    0.00139     0.76879
      H   71    0.21444      0.00000     0.78370    0.00186     0.78556
      H   72    0.23546      0.00000     0.76275    0.00179     0.76454
      H   73    0.21917      0.00000     0.77937    0.00147     0.78083
 =======================================================================
   * Total *    1.00000    117.95323   185.30382    0.74295   304.00000

 Normal termination of Gaussian 16 at Mon Jan  1 16:13:53 2001.
