 Gaussian 16, Revision B.01,
 Gaussian 16:  ES64L-G16RevB.01 20-Dec-2017

 ------------------------------------------
 # nmr=giao b3lyp/genecp pop=nbo scfcyc=200
 ------------------------------------------

 -------------
 Ligand 52 SPE
 -------------
 Symbolic Z-matrix:
 Charge =  1 Multiplicity = 1

                         Standard orientation:
 ---------------------------------------------------------------------
 Center     Atomic      Atomic             Coordinates (Angstroms)
 Number     Number       Type             X           Y           Z
 ---------------------------------------------------------------------
      1          6           0        2.840051    0.909612    1.183229
      2          6           0        3.930160    1.784603    1.184259
      3          1           0        4.221530    2.313023    0.290459
      4          6           0        4.664100    1.997403    2.347529
      5          1           0        5.505780    2.678273    2.329419
      6          6           0        4.319420    1.344953    3.524999
      7          1           0        4.891450    1.514703    4.428369
      8          6           0        3.238941    0.467362    3.535039
      9          1           0        2.967011   -0.050088    4.446619
     10          6           0        2.511591    0.245742    2.373379
     11          1           0        1.679091   -0.447999    2.388879
     12          6           0        2.533360    1.173342   -1.897421
     13          6           0        1.601921    0.687921   -3.023311
     14          1           0        0.612990    1.140471   -2.952361
     15          1           0        1.488321   -0.397929   -3.019891
     16          1           0        2.031611    0.980342   -3.984461
     17          6           0        3.909841    0.495403   -2.051881
     18          1           0        3.847911   -0.590497   -1.979031
     19          1           0        4.639311    0.841343   -1.321371
     20          1           0        4.299931    0.731813   -3.044571
     21          6           0        2.681240    2.697752   -2.003401
     22          1           0        3.176420    2.926652   -2.951031
     23          1           0        3.285569    3.135292   -1.211321
     24          1           0        1.717559    3.197861   -2.007521
     25          6           0       -0.354560    2.550220    0.438269
     26          1           0       -1.390360    2.339900    0.715349
     27          6           0        0.337169    3.071041    1.695869
     28          1           0        0.318030    2.313961    2.477659
     29          1           0       -0.188791    3.951610    2.065729
     30          1           0        1.376689    3.344931    1.520259
     31          6           0       -0.433561    3.552820   -0.710581
     32          6           0       -1.160751    3.228020   -1.861221
     33          1           0       -1.630590    2.256210   -1.937861
     34          6           0       -1.295261    4.139550   -2.900721
     35          1           0       -1.865211    3.869509   -3.781321
     36          6           0       -0.714122    5.401600   -2.807071
     37          1           0       -0.823212    6.114450   -3.614681
     38          6           0       -0.004702    5.742190   -1.662791
     39          1           0        0.442467    6.724351   -1.572341
     40          6           0        0.131588    4.826081   -0.622041
     41          1           0        0.686528    5.121731    0.257529
     42          6           0       -3.135689   -0.683621   -0.967511
     43          6           0       -3.325458   -1.398831   -2.142351
     44          1           0       -2.597948   -1.304491   -2.938101
     45          6           0       -4.452828   -2.197402   -2.283811
     46          1           0       -4.609487   -2.752252   -3.199871
     47          6           0       -4.054758   -0.722472    0.086089
     48          6           0       -3.892589    0.092838    1.310899
     49          6           0       -3.675110    1.576858    3.698269
     50          1           0       -3.588160    2.135598    4.621189
     51          6           0       -2.555279    0.963169    3.154339
     52          1           0       -1.592609    1.017850    3.644819
     53          6           0       -2.667119    0.246239    1.970129
     54          7           0        0.168580    1.194961    0.033889
     55          8           0       -2.022969    0.162509   -0.894671
     56          8           0       -1.515119   -0.416910    1.527559
     57         15           0        1.780431    0.509181   -0.278681
     58         15           0       -0.746119   -0.230420    0.081639
     59         45           0        0.905702   -1.714219   -0.300041
     60          6           0       -0.011577   -3.590500    0.593019
     61          6           0       -0.292007   -3.567090   -0.759361
     62          6           0        2.581693   -3.131538   -1.088871
     63          6           0        2.810283   -2.873438    0.239679
     64          1           0       -0.769727   -3.189010    1.256079
     65          6           0        1.049434   -4.444269    1.263999
     66          1           0       -1.266607   -3.190270   -1.052871
     67          6           0        0.439343   -4.307529   -1.850701
     68          6           0        1.967623   -4.395458   -1.655421
     69          1           0        3.090242   -2.500968   -1.808841
     70          1           0        3.513612   -2.083918    0.482179
     71          6           0        2.421443   -3.748718    1.404979
     72          1           0        1.154964   -5.385379    0.724859
     73          1           0        0.696134   -4.709099    2.261729
     74          1           0        0.021804   -5.316530   -1.956551
     75          1           0        0.228803   -3.799859   -2.794801
     76          1           0        2.428694   -4.596598   -2.623881
     77          1           0        2.222424   -5.243028   -1.020321
     78          1           0        3.201794   -4.501878    1.570849
     79          1           0        2.417323   -3.125088    2.300829
     80          6           0       -4.902980    1.465958    3.053079
     81          1           0       -5.780050    1.950437    3.461909
     82          6           0       -5.003419    0.733658    1.879989
     83          1           0       -5.959019    0.660377    1.377159
     84          6           0       -5.177178   -1.546472   -0.081681
     85          1           0       -5.895748   -1.620343    0.724289
     86          6           0       -5.376878   -2.274442   -1.245741
     87          1           0       -6.253367   -2.901853   -1.343021
 ---------------------------------------------------------------------

 SCF Done:  E(RB3LYP) =  -2472.94433997     A.U. after   16 cycles

      1  C    Isotropic =    42.5656   Anisotropy =   165.9587

      2  C    Isotropic =    47.9001   Anisotropy =   185.5561

      3  H    Isotropic =    23.8159   Anisotropy =    11.3449

      4  C    Isotropic =    49.2238   Anisotropy =   189.1430

      5  H    Isotropic =    24.0915   Anisotropy =     5.8127

      6  C    Isotropic =    45.0235   Anisotropy =   197.6498

      7  H    Isotropic =    23.9234   Anisotropy =     3.8910

      8  C    Isotropic =    48.7766   Anisotropy =   189.1423

      9  H    Isotropic =    23.8100   Anisotropy =     7.3275

     10  C    Isotropic =    41.7401   Anisotropy =   188.9572

     11  H    Isotropic =    22.8507   Anisotropy =     9.8367

     12  C    Isotropic =   133.2269   Anisotropy =    34.2819

     13  C    Isotropic =   153.1135   Anisotropy =    39.5371

     14  H    Isotropic =    30.1874   Anisotropy =     6.1898

     15  H    Isotropic =    30.2633   Anisotropy =     7.2134

     16  H    Isotropic =    31.0673   Anisotropy =     9.4288

     17  C    Isotropic =   157.6825   Anisotropy =    38.7618

     18  H    Isotropic =    31.2558   Anisotropy =     6.7237

     19  H    Isotropic =    30.5058   Anisotropy =     8.4041

     20  H    Isotropic =    30.9393   Anisotropy =    10.9161

     21  C    Isotropic =   156.8788   Anisotropy =    39.1501

     22  H    Isotropic =    31.2670   Anisotropy =     9.7587

     23  H    Isotropic =    30.4532   Anisotropy =     7.3758

     24  H    Isotropic =    32.1412   Anisotropy =    16.6554

     25  C    Isotropic =   120.5419   Anisotropy =    39.0487

     26  H    Isotropic =    27.2552   Anisotropy =     7.3416

     27  C    Isotropic =   164.3654   Anisotropy =    12.1818

     28  H    Isotropic =    30.9114   Anisotropy =     3.0711

     29  H    Isotropic =    30.7968   Anisotropy =    10.5041

     30  H    Isotropic =    30.9916   Anisotropy =     5.7828

     31  C    Isotropic =    36.4609   Anisotropy =   191.0091

     32  C    Isotropic =    48.2768   Anisotropy =   187.0734

     33  H    Isotropic =    23.6762   Anisotropy =    10.2425

     34  C    Isotropic =    49.4676   Anisotropy =   188.0502

     35  H    Isotropic =    24.2903   Anisotropy =     7.6102

     36  C    Isotropic =    49.3762   Anisotropy =   191.2873

     37  H    Isotropic =    24.3391   Anisotropy =     3.7479

     38  C    Isotropic =    50.0125   Anisotropy =   187.9663

     39  H    Isotropic =    24.4118   Anisotropy =     5.5029

     40  C    Isotropic =    53.3212   Anisotropy =   184.3365

     41  H    Isotropic =    24.7951   Anisotropy =    11.5783

     42  C    Isotropic =    27.9396   Anisotropy =   110.4872

     43  C    Isotropic =    57.5011   Anisotropy =   154.1757

     44  H    Isotropic =    24.2473   Anisotropy =     8.1619

     45  C    Isotropic =    48.4021   Anisotropy =   186.1810

     46  H    Isotropic =    24.0730   Anisotropy =     5.8285

     47  C    Isotropic =    46.1002   Anisotropy =   160.4781

     48  C    Isotropic =    48.9044   Anisotropy =   159.0139

     49  C    Isotropic =    48.3982   Anisotropy =   185.8232

     50  H    Isotropic =    24.2505   Anisotropy =     6.2136

     51  C    Isotropic =    58.7855   Anisotropy =   151.5654

     52  H    Isotropic =    24.4381   Anisotropy =     8.4805

     53  C    Isotropic =    23.2582   Anisotropy =   112.9704

     54  N    Isotropic =    81.8336   Anisotropy =   102.7529

     55  O    Isotropic =   133.2915   Anisotropy =   102.2655

     56  O    Isotropic =   137.3610   Anisotropy =    66.4270

     57  P    Isotropic =   197.2365   Anisotropy =    83.3551

     58  P    Isotropic =   161.4543   Anisotropy =   195.8062

     59  Rh   Isotropic =  -275.9932   Anisotropy =   320.2770

     60  C    Isotropic =    77.5664   Anisotropy =   125.8628

     61  C    Isotropic =    83.0780   Anisotropy =   110.0694

     62  C    Isotropic =    70.3568   Anisotropy =   133.5648

     63  C    Isotropic =    69.1758   Anisotropy =   130.6975

     64  H    Isotropic =    26.7798   Anisotropy =     5.5224

     65  C    Isotropic =   153.8952   Anisotropy =    25.4458

     66  H    Isotropic =    26.7294   Anisotropy =     8.8583

     67  C    Isotropic =   147.2367   Anisotropy =    31.2519

     68  C    Isotropic =   154.5753   Anisotropy =    24.8995

     69  H    Isotropic =    26.6767   Anisotropy =     6.3316

     70  H    Isotropic =    26.6627   Anisotropy =     2.8079

     71  C    Isotropic =   148.9340   Anisotropy =    26.6871

     72  H    Isotropic =    29.8032   Anisotropy =     9.7129

     73  H    Isotropic =    29.8742   Anisotropy =    11.1454

     74  H    Isotropic =    29.1580   Anisotropy =    12.3925

     75  H    Isotropic =    29.1445   Anisotropy =     7.3993

     76  H    Isotropic =    29.9230   Anisotropy =    11.8612

     77  H    Isotropic =    29.8442   Anisotropy =     9.5672

     78  H    Isotropic =    29.3820   Anisotropy =    12.8976

     79  H    Isotropic =    29.2686   Anisotropy =     7.8461

     80  C    Isotropic =    51.5929   Anisotropy =   186.4771

     81  H    Isotropic =    24.2943   Anisotropy =     3.8374

     82  C    Isotropic =    46.6216   Anisotropy =   170.2927

     83  H    Isotropic =    24.1933   Anisotropy =     8.7570

     84  C    Isotropic =    46.7285   Anisotropy =   171.0618

     85  H    Isotropic =    24.1362   Anisotropy =     8.5888

     86  C    Isotropic =    50.6382   Anisotropy =   187.0996

     87  H    Isotropic =    24.1683   Anisotropy =     3.7886

 The electronic state is 1-A.
 Alpha  occ. eigenvalues --  -77.32052 -77.26044 -19.27127 -19.27036 -14.45018
 Alpha  occ. eigenvalues --  -10.33946 -10.33927 -10.32344 -10.31105 -10.29999
 Alpha  occ. eigenvalues --  -10.29694 -10.29445 -10.29204 -10.29009 -10.28958
 Alpha  occ. eigenvalues --  -10.28840 -10.28728 -10.28611 -10.28017 -10.27950
 Alpha  occ. eigenvalues --  -10.27895 -10.27886 -10.27720 -10.27633 -10.27532
 Alpha  occ. eigenvalues --  -10.27440 -10.27282 -10.27213 -10.27174 -10.27136
 Alpha  occ. eigenvalues --  -10.27093 -10.26974 -10.26824 -10.26734 -10.26447
 Alpha  occ. eigenvalues --  -10.26150 -10.25886 -10.25786 -10.25718 -10.25650
 Alpha  occ. eigenvalues --  -10.25609 -10.25559 -10.25491  -6.76850  -6.71641
 Alpha  occ. eigenvalues --   -4.93259  -4.93172  -4.92713  -4.88062  -4.87776
 Alpha  occ. eigenvalues --   -4.87543  -3.32280  -2.09362  -2.08520  -2.05578
 Alpha  occ. eigenvalues --   -1.19014  -1.14885  -1.02519  -0.97081  -0.96740
 Alpha  occ. eigenvalues --   -0.94853  -0.94799  -0.94523  -0.92383  -0.89533
 Alpha  occ. eigenvalues --   -0.88327  -0.88287  -0.88152  -0.86418  -0.85663
 Alpha  occ. eigenvalues --   -0.85193  -0.84200  -0.83216  -0.82395  -0.81811
 Alpha  occ. eigenvalues --   -0.80689  -0.79427  -0.78898  -0.78147  -0.77268
 Alpha  occ. eigenvalues --   -0.76333  -0.73352  -0.72379  -0.71489  -0.70924
 Alpha  occ. eigenvalues --   -0.70850  -0.69639  -0.69391  -0.69132  -0.68784
 Alpha  occ. eigenvalues --   -0.67029  -0.66145  -0.64413  -0.63325  -0.62821
 Alpha  occ. eigenvalues --   -0.62465  -0.62005  -0.60788  -0.60233  -0.60052
 Alpha  occ. eigenvalues --   -0.58858  -0.58322  -0.57507  -0.57196  -0.57076
 Alpha  occ. eigenvalues --   -0.56508  -0.56245  -0.56031  -0.55747  -0.55059
 Alpha  occ. eigenvalues --   -0.54651  -0.54591  -0.54139  -0.53965  -0.53866
 Alpha  occ. eigenvalues --   -0.53561  -0.53040  -0.52955  -0.52814  -0.52679
 Alpha  occ. eigenvalues --   -0.52545  -0.52247  -0.51914  -0.51005  -0.50388
 Alpha  occ. eigenvalues --   -0.49696  -0.49250  -0.48926  -0.48468  -0.48382
 Alpha  occ. eigenvalues --   -0.48156  -0.48081  -0.47884  -0.47507  -0.47109
 Alpha  occ. eigenvalues --   -0.46884  -0.46481  -0.46367  -0.46307  -0.46273
 Alpha  occ. eigenvalues --   -0.45992  -0.45655  -0.45363  -0.44805  -0.44367
 Alpha  occ. eigenvalues --   -0.44166  -0.43799  -0.43565  -0.43344  -0.43264
 Alpha  occ. eigenvalues --   -0.43180  -0.42706  -0.42433  -0.42040  -0.41607
 Alpha  occ. eigenvalues --   -0.38723  -0.38092  -0.37937  -0.37577  -0.36733
 Alpha  occ. eigenvalues --   -0.36382  -0.35403  -0.35168  -0.34769  -0.34279
 Alpha  occ. eigenvalues --   -0.34126  -0.34013  -0.33458  -0.32796  -0.31272
 Alpha virt. eigenvalues --   -0.16344  -0.15255  -0.13276  -0.13057  -0.11876
 Alpha virt. eigenvalues --   -0.10851  -0.10548  -0.10347  -0.09736  -0.09502
 Alpha virt. eigenvalues --   -0.08111  -0.08091  -0.06607  -0.06369  -0.06172

 Mulliken charges:
               1
     1  C   -0.154377
     2  C   -0.045989
     3  H    0.130560
     4  C   -0.119950
     5  H    0.134951
     6  C   -0.081132
     7  H    0.140420
     8  C   -0.102570
     9  H    0.131414
    10  C   -0.068230
    11  H    0.211037
    12  C    0.016990
    13  C   -0.411246
    14  H    0.158328
    15  H    0.137769
    16  H    0.157384
    17  C   -0.407482
    18  H    0.127365
    19  H    0.154143
    20  H    0.156825
    21  C   -0.356195
    22  H    0.148010
    23  H    0.134927
    24  H    0.159273
    25  C   -0.075048
    26  H    0.195754
    27  C   -0.410749
    28  H    0.140500
    29  H    0.169702
    30  H    0.146758
    31  C   -0.081424
    32  C   -0.133923
    33  H    0.198881
    34  C   -0.092741
    35  H    0.123043
    36  C   -0.102506
    37  H    0.127814
    38  C   -0.087734
    39  H    0.124905
    40  C   -0.078072
    41  H    0.131929
    42  C    0.056739
    43  C   -0.161639
    44  H    0.133137
    45  C   -0.101634
    46  H    0.132626
    47  C   -0.016153
    48  C    0.010283
    49  C   -0.121995
    50  H    0.131866
    51  C   -0.131789
    52  H    0.140792
    53  C    0.096758
    54  N   -0.415300
    55  O   -0.316537
    56  O   -0.316259
    57  P    0.286073
    58  P    0.776742
    59  Rh  -0.694023
    60  C   -0.009290
    61  C   -0.125297
    62  C   -0.020456
    63  C   -0.091252
    64  H    0.193067
    65  C   -0.357178
    66  H    0.247696
    67  C   -0.236571
    68  C   -0.338744
    69  H    0.182496
    70  H    0.206503
    71  C   -0.244765
    72  H    0.168544
    73  H    0.172180
    74  H    0.174112
    75  H    0.134867
    76  H    0.172061
    77  H    0.168332
    78  H    0.174597
    79  H    0.139680
    80  C   -0.062926
    81  H    0.133135
    82  C   -0.144112
    83  H    0.147011
    84  C   -0.141494
    85  H    0.148978
    86  C   -0.062919
    87  H    0.132738
 Sum of Mulliken charges =   1.00000

 Dipole moment (field-independent basis, Debye):
    X=              2.6049    Y=             -1.6940    Z=              0.4054  Tot=              3.1336
 Quadrupole moment (field-independent basis, Debye-Ang):
   XX=           -225.7725   YY=           -234.7307   ZZ=           -248.4988
   XY=              6.7266   XZ=              2.1826   YZ=              7.8564

 Summary of Natural Population Analysis:

                                       Natural Population
                Natural  -----------------------------------------------
    Atom  No    Charge         Core      Valence    Rydberg      Total
 -----------------------------------------------------------------------
      C    1   -0.37676      1.99895     4.35167    0.02614     6.37676
      C    2   -0.19146      1.99909     4.17657    0.01580     6.19146
      H    3    0.21155      0.00000     0.78595    0.00250     0.78845
      C    4   -0.19306      1.99919     4.17930    0.01457     6.19306
      H    5    0.22381      0.00000     0.77495    0.00123     0.77619
      C    6   -0.17316      1.99920     4.15936    0.01461     6.17316
      H    7    0.22401      0.00000     0.77482    0.00117     0.77599
      C    8   -0.19743      1.99919     4.18370    0.01454     6.19743
      H    9    0.22148      0.00000     0.77726    0.00126     0.77852
      C   10   -0.18518      1.99909     4.17019    0.01589     6.18518
      H   11    0.22419      0.00000     0.77367    0.00213     0.77581
      C   12   -0.28580      1.99942     4.26716    0.01923     6.28580
      C   13   -0.60077      1.99936     4.59315    0.00826     6.60077
      H   14    0.22271      0.00000     0.77560    0.00168     0.77729
      H   15    0.21497      0.00000     0.78348    0.00155     0.78503
      H   16    0.22245      0.00000     0.77587    0.00168     0.77755
      C   17   -0.60176      1.99935     4.59463    0.00778     6.60176
      H   18    0.20482      0.00000     0.79363    0.00155     0.79518
      H   19    0.21460      0.00000     0.78385    0.00155     0.78540
      H   20    0.22612      0.00000     0.77215    0.00173     0.77388
      C   21   -0.60590      1.99934     4.59635    0.01020     6.60590
      H   22    0.21974      0.00000     0.77856    0.00170     0.78026
      H   23    0.20126      0.00000     0.79715    0.00159     0.79874
      H   24    0.23367      0.00000     0.76438    0.00196     0.76633
      C   25   -0.06034      1.99924     4.03578    0.02533     6.06034
      H   26    0.22168      0.00000     0.77521    0.00312     0.77832
      C   27   -0.60545      1.99943     4.59731    0.00871     6.60545
      H   28    0.21506      0.00000     0.78313    0.00181     0.78494
      H   29    0.22667      0.00000     0.77221    0.00112     0.77333
      H   30    0.20973      0.00000     0.78833    0.00193     0.79027
      C   31   -0.05262      1.99904     4.03389    0.01969     6.05262
      C   32   -0.20877      1.99910     4.19469    0.01498     6.20877
      H   33    0.22516      0.00000     0.77261    0.00223     0.77484
      C   34   -0.19602      1.99920     4.18196    0.01486     6.19602
      H   35    0.21561      0.00000     0.78314    0.00124     0.78439
      C   36   -0.19637      1.99920     4.18231    0.01486     6.19637
      H   37    0.21872      0.00000     0.78009    0.00119     0.78128
      C   38   -0.19648      1.99920     4.18204    0.01524     6.19648
      H   39    0.21744      0.00000     0.78134    0.00122     0.78256
      C   40   -0.21073      1.99910     4.19707    0.01455     6.21073
      H   41    0.21301      0.00000     0.78541    0.00158     0.78699
      C   42    0.25738      1.99863     3.72099    0.02299     5.74262
      C   43   -0.23882      1.99906     4.22496    0.01479     6.23882
      H   44    0.22552      0.00000     0.77280    0.00168     0.77448
      C   45   -0.18381      1.99921     4.16996    0.01464     6.18381
      H   46    0.22206      0.00000     0.77679    0.00115     0.77794
      C   47   -0.08365      1.99895     4.06686    0.01784     6.08365
      C   48   -0.09191      1.99894     4.07492    0.01805     6.09191
      C   49   -0.18062      1.99921     4.16678    0.01463     6.18062
      H   50    0.22201      0.00000     0.77685    0.00114     0.77799
      C   51   -0.23671      1.99906     4.22288    0.01477     6.23671
      H   52    0.22255      0.00000     0.77582    0.00163     0.77745
      C   53    0.26454      1.99862     3.71304    0.02381     5.73546
      N   54   -1.02788      1.99956     6.00368    0.02465     8.02788
      O   55   -0.75479      1.99978     6.74085    0.01416     8.75479
      O   56   -0.75992      1.99978     6.74615    0.01399     8.75992
      P   57    1.30690      9.99620     3.63731    0.05959    13.69310
      P   58    1.88619      9.99519     3.01857    0.10004    13.11381
     Rh   59   -0.46486     35.98432     9.45190    0.02864    45.46486
      C   60   -0.15708      1.99906     4.13848    0.01953     6.15708
      C   61   -0.17721      1.99909     4.15766    0.02045     6.17721
      C   62   -0.17487      1.99908     4.15558    0.02022     6.17487
      C   63   -0.15252      1.99908     4.13306    0.02038     6.15252
      H   64    0.23511      0.00000     0.76300    0.00189     0.76489
      C   65   -0.42457      1.99936     4.41341    0.01180     6.42457
      H   66    0.23374      0.00000     0.76387    0.00239     0.76626
      C   67   -0.41738      1.99935     4.40502    0.01301     6.41738
      C   68   -0.42553      1.99936     4.41426    0.01191     6.42553
      H   69    0.22262      0.00000     0.77525    0.00213     0.77738
      H   70    0.23296      0.00000     0.76522    0.00182     0.76704
      C   71   -0.42127      1.99935     4.40910    0.01282     6.42127
      H   72    0.21525      0.00000     0.78281    0.00195     0.78475
      H   73    0.23011      0.00000     0.76844    0.00145     0.76989
      H   74    0.23439      0.00000     0.76374    0.00187     0.76561
      H   75    0.21640      0.00000     0.78208    0.00151     0.78360
      H   76    0.23043      0.00000     0.76809    0.00148     0.76957
      H   77    0.21572      0.00000     0.78229    0.00199     0.78428
      H   78    0.23585      0.00000     0.76225    0.00190     0.76415
      H   79    0.21755      0.00000     0.78067    0.00178     0.78245
      C   80   -0.20078      1.99920     4.18680    0.01478     6.20078
      H   81    0.22376      0.00000     0.77509    0.00115     0.77624
      C   82   -0.16689      1.99916     4.15374    0.01400     6.16689
      H   83    0.22129      0.00000     0.77717    0.00154     0.77871
      C   84   -0.16897      1.99916     4.15581    0.01401     6.16897
      H   85    0.22208      0.00000     0.77638    0.00154     0.77792
      C   86   -0.19845      1.99921     4.18448    0.01477     6.19845
      H   87    0.22371      0.00000     0.77515    0.00115     0.77629
 =======================================================================
   * Total *    1.00000    137.94266   229.13996    0.91738   368.00000

 Normal termination of Gaussian 16 at Wed Nov  6 01:17:41 2024.
