 Gaussian 16, Revision B.01,
 Gaussian 16:  ES64L-G16RevB.01 20-Dec-2017

 ------------------------------------------
 # nmr=giao b3lyp/genecp pop=nbo scfcyc=200
 ------------------------------------------

 -------------
 Ligand 58 SPE
 -------------
 Symbolic Z-matrix:
 Charge =  1 Multiplicity = 1

                         Standard orientation:
 ---------------------------------------------------------------------
 Center     Atomic      Atomic             Coordinates (Angstroms)
 Number     Number       Type             X           Y           Z
 ---------------------------------------------------------------------
      1         45           0        1.418440   -0.511802   -0.522019
      2         15           0        1.209482    1.596318    0.673831
      3         15           0       -0.799280   -0.373701    0.262581
      4          6           0        3.254751   -0.221453   -1.816479
      5          1           0        3.338141    0.856207   -1.899109
      6          6           0        2.964860   -0.927363   -3.117559
      7          1           0        3.893660   -1.034183   -3.691859
      8          1           0        2.322671   -0.274582   -3.712969
      9          6           0        2.282469   -2.303122   -2.962629
     10          1           0        1.770569   -2.541152   -3.896459
     11          1           0        3.029529   -3.085153   -2.826479
     12          6           0        1.273529   -2.355232   -1.829499
     13          1           0        0.234679   -2.399661   -2.136949
     14          6           0        1.544799   -2.734572   -0.526129
     15          1           0        0.703319   -3.056961    0.077891
     16          6           0        2.888689   -3.112273    0.045301
     17          1           0        3.086938   -4.172463   -0.157089
     18          1           0        2.822559   -3.025313    1.131951
     19          6           0        4.065369   -2.253753   -0.461839
     20          1           0        4.881939   -2.321764    0.258991
     21          1           0        4.456919   -2.656673   -1.395589
     22          6           0        3.706460   -0.792733   -0.649219
     23          1           0        4.087001   -0.118453    0.108391
     24          6           0        1.556672    2.697358    3.340541
     25          1           0        0.582682    2.301779    3.631741
     26          1           0        1.423093    3.729018    3.025941
     27          1           0        2.176692    2.709298    4.241231
     28          6           0        2.255592    1.831808    2.279131
     29          6           0        3.622202    2.447517    1.937051
     30          1           0        4.265392    2.392627    2.819051
     31          1           0        3.543603    3.498637    1.662601
     32          1           0        4.131572    1.918917    1.129541
     33          6           0        2.477941    0.426808    2.869091
     34          1           0        2.974721   -0.242903    2.168511
     35          1           0        1.544771   -0.044942    3.178741
     36          1           0        3.104061    0.514527    3.760801
     37          6           0        0.991122    3.235618   -0.312129
     38          6           0        2.292053    3.571588   -1.061379
     39          1           0        3.137203    3.747427   -0.399489
     40          1           0        2.135413    4.486188   -1.639039
     41          1           0        2.563252    2.787278   -1.767889
     42          6           0        0.579023    4.422129    0.570821
     43          1           0       -0.291837    4.203669    1.191351
     44          1           0        0.312444    5.263629   -0.074399
     45          1           0        1.388863    4.758328    1.216631
     46          6           0       -0.104448    2.986379   -1.362839
     47          1           0        0.128052    2.132239   -1.999939
     48          1           0       -0.177177    3.868779   -2.003609
     49          1           0       -1.088158    2.826910   -0.921889
     50          6           0       -0.511759    1.156369    1.304131
     51          1           0       -0.478529    0.900269    2.361281
     52          1           0       -1.266138    1.929380    1.170581
     53          6           0       -1.466880   -1.721370    1.334441
     54          6           0       -1.055910   -1.878280    2.661131
     55          1           0       -0.382360   -1.167391    3.121231
     56          6           0       -1.509371   -2.953730    3.417051
     57          1           0       -1.191591   -3.056740    4.447061
     58          6           0       -2.365911   -3.893550    2.852911
     59          1           0       -2.718282   -4.730360    3.442371
     60          6           0       -2.768131   -3.752479    1.529061
     61          1           0       -3.436962   -4.478179    1.083671
     62          6           0       -2.321491   -2.675100    0.771751
     63          1           0       -2.656521   -2.570870   -0.252439
     64          6           0       -2.145669    0.019570   -0.931669
     65          6           0       -3.445799    0.475351   -0.529619
     66          6           0       -1.848399   -0.114320   -2.272169
     67          6           0       -3.853679    0.631301    0.819281
     68          6           0       -4.395089    0.795371   -1.555049
     69          6           0       -2.793999    0.188011   -3.271549
     70          1           0       -0.859850   -0.442881   -2.564969
     71          6           0       -5.110619    1.085182    1.136271
     72          1           0       -3.177839    0.367671    1.620111
     73          6           0       -5.683189    1.260682   -1.191919
     74          6           0       -4.037349    0.637481   -2.916959
     75          1           0       -2.528129    0.068520   -4.314019
     76          6           0       -6.036039    1.407762    0.124111
     77          1           0       -5.396979    1.189302    2.175401
     78          1           0       -6.389279    1.497222   -1.978999
     79          1           0       -4.770329    0.879772   -3.677459
     80          1           0       -7.023428    1.763113    0.389571
 ---------------------------------------------------------------------

 SCF Done:  E(RB3LYP) =  -2077.65357736     A.U. after   16 cycles

      1  Rh   Isotropic =  -340.7986   Anisotropy =   388.4842

      2  P    Isotropic =   283.6014   Anisotropy =   136.2691

      3  P    Isotropic =   317.9636   Anisotropy =   103.0691

      4  C    Isotropic =    74.4918   Anisotropy =   120.2517

      5  H    Isotropic =    25.9661   Anisotropy =     3.7116

      6  C    Isotropic =   147.6555   Anisotropy =    28.6899

      7  H    Isotropic =    29.0316   Anisotropy =    12.8545

      8  H    Isotropic =    28.8805   Anisotropy =     7.5315

      9  C    Isotropic =   154.4921   Anisotropy =    24.1286

     10  H    Isotropic =    29.7249   Anisotropy =    11.6031

     11  H    Isotropic =    29.7986   Anisotropy =     9.8136

     12  C    Isotropic =    86.7574   Anisotropy =   110.0492

     13  H    Isotropic =    27.2054   Anisotropy =     6.0964

     14  C    Isotropic =    74.3359   Anisotropy =   120.7079

     15  H    Isotropic =    27.4584   Anisotropy =     5.4420

     16  C    Isotropic =   147.4844   Anisotropy =    29.4491

     17  H    Isotropic =    29.3545   Anisotropy =    12.3046

     18  H    Isotropic =    29.2840   Anisotropy =     6.4392

     19  C    Isotropic =   153.8565   Anisotropy =    25.1789

     20  H    Isotropic =    29.8571   Anisotropy =    11.2080

     21  H    Isotropic =    29.8069   Anisotropy =     9.7638

     22  C    Isotropic =    76.1470   Anisotropy =   126.0768

     23  H    Isotropic =    26.6904   Anisotropy =     5.1855

     24  C    Isotropic =   157.4544   Anisotropy =    39.0810

     25  H    Isotropic =    30.4842   Anisotropy =     6.3267

     26  H    Isotropic =    30.3648   Anisotropy =     7.5038

     27  H    Isotropic =    30.6766   Anisotropy =    11.0985

     28  C    Isotropic =   135.0350   Anisotropy =    33.7480

     29  C    Isotropic =   155.2573   Anisotropy =    34.9645

     30  H    Isotropic =    30.6251   Anisotropy =    10.6554

     31  H    Isotropic =    30.4350   Anisotropy =     7.8182

     32  H    Isotropic =    30.7899   Anisotropy =     5.3660

     33  C    Isotropic =   150.5356   Anisotropy =    42.7715

     34  H    Isotropic =    29.5204   Anisotropy =     7.8997

     35  H    Isotropic =    29.9332   Anisotropy =     6.6803

     36  H    Isotropic =    30.5993   Anisotropy =    10.0216

     37  C    Isotropic =   135.7345   Anisotropy =    32.4341

     38  C    Isotropic =   155.2538   Anisotropy =    40.2052

     39  H    Isotropic =    30.4201   Anisotropy =     7.1517

     40  H    Isotropic =    30.8872   Anisotropy =    10.7075

     41  H    Isotropic =    30.7197   Anisotropy =     6.3272

     42  C    Isotropic =   157.5857   Anisotropy =    34.1422

     43  H    Isotropic =    31.0251   Anisotropy =     6.1023

     44  H    Isotropic =    31.1246   Anisotropy =    10.7047

     45  H    Isotropic =    30.6638   Anisotropy =     8.6971

     46  C    Isotropic =   150.8587   Anisotropy =    41.5228

     47  H    Isotropic =    30.6601   Anisotropy =     7.4891

     48  H    Isotropic =    31.4338   Anisotropy =     8.5329

     49  H    Isotropic =    31.9418   Anisotropy =    10.9003

     50  C    Isotropic =   140.5823   Anisotropy =    49.9125

     51  H    Isotropic =    27.7944   Anisotropy =     4.3794

     52  H    Isotropic =    28.3717   Anisotropy =     7.4065

     53  C    Isotropic =    42.6837   Anisotropy =   172.2488

     54  C    Isotropic =    51.9843   Anisotropy =   183.2156

     55  H    Isotropic =    23.8300   Anisotropy =    10.1991

     56  C    Isotropic =    48.8019   Anisotropy =   190.0145

     57  H    Isotropic =    23.9635   Anisotropy =     6.6947

     58  C    Isotropic =    46.8518   Anisotropy =   195.5137

     59  H    Isotropic =    24.1716   Anisotropy =     3.1914

     60  C    Isotropic =    48.2315   Anisotropy =   191.5204

     61  H    Isotropic =    24.5437   Anisotropy =     6.9833

     62  C    Isotropic =    47.7592   Anisotropy =   190.8736

     63  H    Isotropic =    25.2015   Anisotropy =    12.2490

     64  C    Isotropic =    52.0584   Anisotropy =   149.0042

     65  C    Isotropic =    46.6568   Anisotropy =   203.3010

     66  C    Isotropic =    38.5964   Anisotropy =   178.5147

     67  C    Isotropic =    53.9676   Anisotropy =   171.5771

     68  C    Isotropic =    42.6921   Anisotropy =   216.5566

     69  C    Isotropic =    55.8466   Anisotropy =   175.8063

     70  H    Isotropic =    22.9946   Anisotropy =     9.9656

     71  C    Isotropic =    50.2893   Anisotropy =   186.7732

     72  H    Isotropic =    24.5547   Anisotropy =    12.9364

     73  C    Isotropic =    47.3879   Anisotropy =   168.7362

     74  C    Isotropic =    42.3945   Anisotropy =   174.8680

     75  H    Isotropic =    24.0464   Anisotropy =     6.9906

     76  C    Isotropic =    51.3374   Anisotropy =   187.3589

     77  H    Isotropic =    24.2707   Anisotropy =     8.7861

     78  H    Isotropic =    23.5830   Anisotropy =     6.8361

     79  H    Isotropic =    23.4274   Anisotropy =     6.3013

     80  H    Isotropic =    24.0421   Anisotropy =     4.3978

 The electronic state is 1-A.
 Alpha  occ. eigenvalues --  -77.23885 -77.22668 -10.31289 -10.31048 -10.30236
 Alpha  occ. eigenvalues --  -10.29699 -10.29679 -10.29279 -10.29191 -10.29079
 Alpha  occ. eigenvalues --  -10.28983 -10.28610 -10.28565 -10.28527 -10.28459
 Alpha  occ. eigenvalues --  -10.28141 -10.27873 -10.27684 -10.27598 -10.27522
 Alpha  occ. eigenvalues --  -10.27467 -10.27450 -10.27423 -10.27374 -10.27274
 Alpha  occ. eigenvalues --  -10.27216 -10.27078 -10.26961 -10.26917 -10.26897
 Alpha  occ. eigenvalues --  -10.26694 -10.26604 -10.26584 -10.26513 -10.26416
 Alpha  occ. eigenvalues --   -6.69839  -6.68635  -4.86120  -4.86065  -4.85744
 Alpha  occ. eigenvalues --   -4.84939  -4.84812  -4.84536  -3.31452  -2.08306
 Alpha  occ. eigenvalues --   -2.07668  -2.04940  -0.98039  -0.96457  -0.94507
 Alpha  occ. eigenvalues --   -0.93589  -0.92627  -0.91650  -0.89296  -0.89156
 Alpha  occ. eigenvalues --   -0.88075  -0.86549  -0.85316  -0.84663  -0.84400
 Alpha  occ. eigenvalues --   -0.82409  -0.80415  -0.79928  -0.79803  -0.79091
 Alpha  occ. eigenvalues --   -0.79082  -0.77852  -0.75421  -0.72828  -0.72039
 Alpha  occ. eigenvalues --   -0.71591  -0.70988  -0.70601  -0.69673  -0.66624
 Alpha  occ. eigenvalues --   -0.66123  -0.65887  -0.62977  -0.62566  -0.62235
 Alpha  occ. eigenvalues --   -0.61286  -0.60357  -0.60131  -0.59694  -0.58267
 Alpha  occ. eigenvalues --   -0.57164  -0.57136  -0.56339  -0.56167  -0.55613
 Alpha  occ. eigenvalues --   -0.55210  -0.55117  -0.54880  -0.54627  -0.53815
 Alpha  occ. eigenvalues --   -0.53687  -0.53659  -0.52863  -0.52770  -0.52708
 Alpha  occ. eigenvalues --   -0.52622  -0.52134  -0.50979  -0.50776  -0.50403
 Alpha  occ. eigenvalues --   -0.50089  -0.49693  -0.49354  -0.48975  -0.48669
 Alpha  occ. eigenvalues --   -0.48559  -0.48071  -0.47840  -0.47508  -0.47033
 Alpha  occ. eigenvalues --   -0.46880  -0.46251  -0.46045  -0.45815  -0.45414
 Alpha  occ. eigenvalues --   -0.45179  -0.45036  -0.44479  -0.44286  -0.44060
 Alpha  occ. eigenvalues --   -0.43604  -0.43055  -0.42985  -0.42915  -0.42504
 Alpha  occ. eigenvalues --   -0.42027  -0.40501  -0.40426  -0.39020  -0.37788
 Alpha  occ. eigenvalues --   -0.36479  -0.36050  -0.35347  -0.34828  -0.34670
 Alpha  occ. eigenvalues --   -0.34326  -0.33613  -0.32348  -0.30708
 Alpha virt. eigenvalues --   -0.16277  -0.15399  -0.14757  -0.12333  -0.11722
 Alpha virt. eigenvalues --   -0.11246  -0.09485  -0.09355  -0.08153  -0.07402
 Alpha virt. eigenvalues --   -0.06946  -0.06836  -0.06162  -0.05807  -0.05110

 Mulliken charges:
               1
     1  Rh  -0.448174
     2  P    0.405146
     3  P    0.293653
     4  C   -0.090200
     5  H    0.190877
     6  C   -0.219093
     7  H    0.172605
     8  H    0.127845
     9  C   -0.356180
    10  H    0.166766
    11  H    0.168305
    12  C   -0.057207
    13  H    0.191766
    14  C   -0.084845
    15  H    0.221192
    16  C   -0.227470
    17  H    0.170263
    18  H    0.133728
    19  C   -0.357624
    20  H    0.167254
    21  H    0.168424
    22  C   -0.046249
    23  H    0.172225
    24  C   -0.360401
    25  H    0.133707
    26  H    0.152731
    27  H    0.150457
    28  C   -0.082360
    29  C   -0.423120
    30  H    0.155071
    31  H    0.150177
    32  H    0.147822
    33  C   -0.370086
    34  H    0.137585
    35  H    0.113472
    36  H    0.160498
    37  C   -0.002890
    38  C   -0.402520
    39  H    0.154817
    40  H    0.156414
    41  H    0.124704
    42  C   -0.392601
    43  H    0.141683
    44  H    0.151911
    45  H    0.140253
    46  C   -0.428033
    47  H    0.154796
    48  H    0.157107
    49  H    0.155248
    50  C   -0.675331
    51  H    0.199931
    52  H    0.233932
    53  C   -0.211111
    54  C   -0.026620
    55  H    0.107520
    56  C   -0.122579
    57  H    0.129840
    58  C   -0.084665
    59  H    0.140536
    60  C   -0.109302
    61  H    0.133495
    62  C   -0.029043
    63  H    0.156876
    64  C   -0.359670
    65  C    0.236848
    66  C    0.032191
    67  C   -0.136472
    68  C   -0.023716
    69  C   -0.117409
    70  H    0.153163
    71  C   -0.102202
    72  H    0.153447
    73  C   -0.130220
    74  C   -0.135042
    75  H    0.120700
    76  C   -0.080787
    77  H    0.123271
    78  H    0.126511
    79  H    0.128341
    80  H    0.128121
 Sum of Mulliken charges =   1.00000

 Dipole moment (field-independent basis, Debye):
    X=              0.9945    Y=              0.7789    Z=              0.7028  Tot=              1.4456
 Quadrupole moment (field-independent basis, Debye-Ang):
   XX=           -192.3956   YY=           -210.9230   ZZ=           -209.3187
   XY=             -0.1111   XZ=              1.9826   YZ=              0.0741

 Summary of Natural Population Analysis:

                                       Natural Population
                Natural  -----------------------------------------------
    Atom  No    Charge         Core      Valence    Rydberg      Total
 -----------------------------------------------------------------------
     Rh    1   -0.35239     35.98587     9.33782    0.02870    45.35239
      P    2    1.06473      9.99687     3.89355    0.04485    13.93527
      P    3    1.12201      9.99651     3.82917    0.05231    13.87799
      C    4   -0.16716      1.99909     4.14800    0.02007     6.16716
      H    5    0.22264      0.00000     0.77513    0.00222     0.77736
      C    6   -0.41734      1.99935     4.40534    0.01265     6.41734
      H    7    0.23422      0.00000     0.76390    0.00189     0.76578
      H    8    0.21551      0.00000     0.78278    0.00172     0.78449
      C    9   -0.42171      1.99936     4.41048    0.01187     6.42171
      H   10    0.22701      0.00000     0.77148    0.00152     0.77299
      H   11    0.21559      0.00000     0.78242    0.00199     0.78441
      C   12   -0.19604      1.99908     4.17767    0.01929     6.19604
      H   13    0.22205      0.00000     0.77582    0.00213     0.77795
      C   14   -0.15187      1.99910     4.13346    0.01931     6.15187
      H   15    0.23093      0.00000     0.76690    0.00217     0.76907
      C   16   -0.41611      1.99935     4.40423    0.01254     6.41611
      H   17    0.23370      0.00000     0.76440    0.00190     0.76630
      H   18    0.21677      0.00000     0.78152    0.00170     0.78323
      C   19   -0.42573      1.99935     4.41431    0.01207     6.42573
      H   20    0.22799      0.00000     0.77050    0.00151     0.77201
      H   21    0.21652      0.00000     0.78151    0.00197     0.78348
      C   22   -0.17260      1.99908     4.15373    0.01978     6.17260
      H   23    0.21939      0.00000     0.77829    0.00232     0.78061
      C   24   -0.60653      1.99935     4.59836    0.00882     6.60653
      H   25    0.20322      0.00000     0.79511    0.00167     0.79678
      H   26    0.21430      0.00000     0.78405    0.00165     0.78570
      H   27    0.22176      0.00000     0.77648    0.00176     0.77824
      C   28   -0.25490      1.99942     4.23879    0.01669     6.25490
      C   29   -0.60397      1.99935     4.59631    0.00831     6.60397
      H   30    0.22232      0.00000     0.77586    0.00182     0.77768
      H   31    0.20968      0.00000     0.78860    0.00172     0.79032
      H   32    0.20757      0.00000     0.79089    0.00154     0.79243
      C   33   -0.59466      1.99936     4.58676    0.00854     6.59466
      H   34    0.21849      0.00000     0.77977    0.00174     0.78151
      H   35    0.19875      0.00000     0.79962    0.00163     0.80125
      H   36    0.22122      0.00000     0.77691    0.00188     0.77878
      C   37   -0.25994      1.99941     4.24332    0.01721     6.25994
      C   38   -0.60071      1.99935     4.59320    0.00816     6.60071
      H   39    0.21117      0.00000     0.78719    0.00163     0.78883
      H   40    0.22134      0.00000     0.77687    0.00179     0.77866
      H   41    0.20649      0.00000     0.79204    0.00147     0.79351
      C   42   -0.60607      1.99935     4.59785    0.00887     6.60607
      H   43    0.20743      0.00000     0.79075    0.00182     0.79257
      H   44    0.22255      0.00000     0.77568    0.00177     0.77745
      H   45    0.20731      0.00000     0.79099    0.00170     0.79269
      C   46   -0.60192      1.99936     4.59308    0.00948     6.60192
      H   47    0.21861      0.00000     0.77985    0.00153     0.78139
      H   48    0.22311      0.00000     0.77506    0.00184     0.77689
      H   49    0.20885      0.00000     0.78926    0.00189     0.79115
      C   50   -1.00769      1.99939     4.99000    0.01829     7.00769
      H   51    0.25587      0.00000     0.74189    0.00224     0.74413
      H   52    0.26227      0.00000     0.73544    0.00230     0.73773
      C   53   -0.34053      1.99899     4.31793    0.02362     6.34053
      C   54   -0.20274      1.99908     4.18832    0.01533     6.20274
      H   55    0.20173      0.00000     0.79563    0.00265     0.79827
      C   56   -0.18998      1.99920     4.17602    0.01476     6.18998
      H   57    0.22140      0.00000     0.77736    0.00124     0.77860
      C   58   -0.18276      1.99920     4.16884    0.01472     6.18276
      H   59    0.22353      0.00000     0.77530    0.00117     0.77647
      C   60   -0.18579      1.99920     4.17194    0.01465     6.18579
      H   61    0.22345      0.00000     0.77533    0.00121     0.77655
      C   62   -0.19721      1.99909     4.18281    0.01531     6.19721
      H   63    0.22273      0.00000     0.77550    0.00178     0.77727
      C   64   -0.32444      1.99894     4.30126    0.02425     6.32444
      C   65   -0.05529      1.99902     4.03469    0.02159     6.05529
      C   66   -0.17012      1.99910     4.15556    0.01546     6.17012
      C   67   -0.20312      1.99912     4.18855    0.01545     6.20312
      C   68   -0.06061      1.99910     4.04433    0.01718     6.06061
      C   69   -0.21584      1.99918     4.20110    0.01556     6.21584
      H   70    0.22055      0.00000     0.77726    0.00219     0.77945
      C   71   -0.17858      1.99921     4.16437    0.01500     6.17858
      H   72    0.20912      0.00000     0.78786    0.00303     0.79088
      C   73   -0.16272      1.99915     4.14925    0.01433     6.16272
      C   74   -0.13562      1.99915     4.12221    0.01426     6.13562
      H   75    0.22241      0.00000     0.77641    0.00118     0.77759
      C   76   -0.19292      1.99920     4.17867    0.01506     6.19292
      H   77    0.21920      0.00000     0.77948    0.00132     0.78080
      H   78    0.21769      0.00000     0.78073    0.00159     0.78231
      H   79    0.21954      0.00000     0.77890    0.00156     0.78046
      H   80    0.22289      0.00000     0.77602    0.00110     0.77711
 =======================================================================
   * Total *    1.00000    121.95325   193.34399    0.70276   316.00000

 Normal termination of Gaussian 16 at Mon Jan  1 16:32:02 2001.
