 Gaussian 16, Revision B.01,
 Gaussian 16:  ES64L-G16RevB.01 20-Dec-2017

 ------------------------------------------
 # nmr=giao b3lyp/genecp pop=nbo scfcyc=200
 ------------------------------------------

 -------------
 Ligand 62 SPE
 -------------
 Symbolic Z-matrix:
 Charge =  1 Multiplicity = 1

                         Standard orientation:
 ---------------------------------------------------------------------
 Center     Atomic      Atomic             Coordinates (Angstroms)
 Number     Number       Type             X           Y           Z
 ---------------------------------------------------------------------
      1         15           0       -0.484579   -1.169840    0.180120
      2         15           0        0.628340    1.283030    0.259690
      3          7           0       -0.728079    0.392640    0.924870
      4          6           0       -0.503369   -2.450890    1.503000
      5          6           0       -0.649798   -3.793990    1.133770
      6          6           0       -0.547058   -4.801040    2.086310
      7          6           0       -0.299308   -4.482940    3.418080
      8          6           0       -0.149028   -3.152090    3.792420
      9          6           0       -0.241549   -2.142740    2.839990
     10          6           0       -1.902609   -1.603091   -0.908810
     11          6           0       -1.788199   -1.329621   -2.275230
     12          6           0       -2.834999   -1.620591   -3.142200
     13          6           0       -4.004949   -2.189441   -2.650630
     14          6           0       -4.126399   -2.465951   -1.291890
     15          6           0       -3.081539   -2.177551   -0.423400
     16          6           0        0.044800    2.699380   -0.765870
     17          6           0       -0.350050    3.935220   -0.240210
     18          6           0       -0.806261    4.942560   -1.081240
     19          6           0       -0.871751    4.732179   -2.455910
     20          6           0       -0.476120    3.510530   -2.989270
     21          6           0       -0.018550    2.501070   -2.149260
     22          6           0        1.654900    2.014080    1.605350
     23          6           0        2.346450    3.214370    1.409530
     24          6           0        3.240430    3.676611    2.371810
     25          6           0        3.460180    2.947031    3.533660
     26          6           0        2.793880    1.739371    3.724890
     27          6           0        1.908080    1.271150    2.763610
     28          6           0       -1.884680    0.759619    1.797780
     29          6           0       -1.595050    1.979539    2.678740
     30          6           0       -3.220140    0.929229    1.080070
     31          6           0       -3.356170    1.577189   -0.145960
     32          6           0       -4.614060    1.768918   -0.709270
     33          6           0       -5.755480    1.322798   -0.051890
     34          6           0       -5.631170    0.676658    1.173510
     35          6           0       -4.372459    0.480009    1.729850
     36          1           0       -0.856448   -4.060021    0.104670
     37          1           0       -0.666098   -5.834830    1.787160
     38          1           0       -0.225428   -5.268070    4.159750
     39          1           0        0.040031   -2.897070    4.827690
     40          1           0       -0.117999   -1.113940    3.147420
     41          1           0       -0.875199   -0.890281   -2.658420
     42          1           0       -2.735549   -1.408891   -4.199470
     43          1           0       -4.820609   -2.419562   -3.324590
     44          1           0       -5.037539   -2.905742   -0.906710
     45          1           0       -3.189779   -2.401191    0.629230
     46          1           0       -0.297740    4.123400    0.823200
     47          1           0       -1.110451    5.893479   -0.662310
     48          1           0       -1.226531    5.520299   -3.108070
     49          1           0       -0.518520    3.344270   -4.058360
     50          1           0        0.293310    1.550950   -2.565570
     51          1           0        2.196190    3.796400    0.510950
     52          1           0        3.762049    4.611461    2.209360
     53          1           0        4.151600    3.311421    4.282770
     54          1           0        2.969570    1.158241    4.621580
     55          1           0        1.416821    0.320280    2.915090
     56          1           0       -2.006719   -0.091621    2.471910
     57          1           0       -2.481680    1.930199   -0.673860
     58          1           0       -4.701310    2.271398   -1.664770
     59          1           0       -6.733320    1.476758   -0.490650
     60          1           0       -6.512159    0.323168    1.694970
     61          1           0       -4.286829   -0.028641    2.684660
     62          1           0       -2.439490    2.128319    3.351640
     63          1           0       -1.496630    2.886579    2.084470
     64          1           0       -0.696570    1.847870    3.279320
     65         45           0        1.548531   -0.592050   -0.773260
     66          6           0        3.260481    0.232521   -2.064270
     67          6           0        3.719301    0.060991   -0.776900
     68          6           0        2.576561   -2.625510   -0.986810
     69          6           0        1.887821   -2.357490   -2.149580
     70          1           0        2.914040    1.225491   -2.330200
     71          6           0        3.532401   -0.699809   -3.230810
     72          1           0        3.727110    0.933861   -0.132990
     73          6           0        4.503441   -1.110479   -0.239750
     74          6           0        4.074981   -2.484449   -0.796760
     75          1           0        2.066582   -3.223000   -0.238970
     76          1           0        0.902461   -2.799690   -2.255510
     77          6           0        2.459011   -1.793400   -3.427600
     78          1           0        4.516291   -1.153199   -3.112620
     79          1           0        3.587011   -0.103889   -4.143450
     80          1           0        5.573201   -0.952669   -0.426400
     81          1           0        4.388391   -1.112939    0.846150
     82          1           0        4.408322   -3.257069   -0.101890
     83          1           0        4.583931   -2.688759   -1.738470
     84          1           0        2.869761   -2.606529   -4.039050
     85          1           0        1.630321   -1.379990   -4.007160
 ---------------------------------------------------------------------

 SCF Done:  E(RB3LYP) =  -2397.43694302     A.U. after   16 cycles

      1  P    Isotropic =   224.3226   Anisotropy =    79.0194

      2  P    Isotropic =   218.0539   Anisotropy =    76.1732

      3  N    Isotropic =   131.1166   Anisotropy =    85.1758

      4  C    Isotropic =    45.5282   Anisotropy =   161.8874

      5  C    Isotropic =    47.9225   Anisotropy =   191.2837

      6  C    Isotropic =    48.1560   Anisotropy =   191.6562

      7  C    Isotropic =    46.1540   Anisotropy =   195.8681

      8  C    Isotropic =    49.3187   Anisotropy =   189.0020

      9  C    Isotropic =    49.2065   Anisotropy =   188.3304

     10  C    Isotropic =    44.0772   Anisotropy =   175.1531

     11  C    Isotropic =    42.4402   Anisotropy =   181.8228

     12  C    Isotropic =    50.7147   Anisotropy =   186.7101

     13  C    Isotropic =    45.0510   Anisotropy =   199.6000

     14  C    Isotropic =    50.0926   Anisotropy =   191.8483

     15  C    Isotropic =    44.8359   Anisotropy =   198.8557

     16  C    Isotropic =    43.8191   Anisotropy =   178.6045

     17  C    Isotropic =    44.5372   Anisotropy =   193.5318

     18  C    Isotropic =    48.8193   Anisotropy =   190.0551

     19  C    Isotropic =    43.8119   Anisotropy =   199.2718

     20  C    Isotropic =    48.5915   Anisotropy =   188.7563

     21  C    Isotropic =    40.1741   Anisotropy =   181.4040

     22  C    Isotropic =    41.6273   Anisotropy =   167.4381

     23  C    Isotropic =    48.2555   Anisotropy =   186.2435

     24  C    Isotropic =    48.9789   Anisotropy =   188.9699

     25  C    Isotropic =    45.9560   Anisotropy =   195.0586

     26  C    Isotropic =    49.1099   Anisotropy =   189.3229

     27  C    Isotropic =    46.9954   Anisotropy =   193.5421

     28  C    Isotropic =   113.6581   Anisotropy =    52.9362

     29  C    Isotropic =   157.1579   Anisotropy =    30.5140

     30  C    Isotropic =    35.0189   Anisotropy =   192.2981

     31  C    Isotropic =    54.6200   Anisotropy =   187.1240

     32  C    Isotropic =    50.4354   Anisotropy =   190.0418

     33  C    Isotropic =    51.0531   Anisotropy =   189.8226

     34  C    Isotropic =    50.2300   Anisotropy =   188.1219

     35  C    Isotropic =    52.8290   Anisotropy =   167.5509

     36  H    Isotropic =    24.9916   Anisotropy =    11.7466

     37  H    Isotropic =    24.2078   Anisotropy =     6.5077

     38  H    Isotropic =    23.9518   Anisotropy =     3.4829

     39  H    Isotropic =    23.7810   Anisotropy =     6.9104

     40  H    Isotropic =    23.2199   Anisotropy =    10.6817

     41  H    Isotropic =    23.3174   Anisotropy =     9.5676

     42  H    Isotropic =    24.2562   Anisotropy =     6.7418

     43  H    Isotropic =    24.4101   Anisotropy =     3.2489

     44  H    Isotropic =    25.0072   Anisotropy =     5.7838

     45  H    Isotropic =    25.1130   Anisotropy =     9.4105

     46  H    Isotropic =    23.8180   Anisotropy =    10.2788

     47  H    Isotropic =    24.0804   Anisotropy =     5.9546

     48  H    Isotropic =    23.8452   Anisotropy =     3.5659

     49  H    Isotropic =    23.8252   Anisotropy =     7.0745

     50  H    Isotropic =    22.9444   Anisotropy =    10.5366

     51  H    Isotropic =    24.5532   Anisotropy =    11.9875

     52  H    Isotropic =    24.2103   Anisotropy =     6.2534

     53  H    Isotropic =    23.9997   Anisotropy =     3.7197

     54  H    Isotropic =    23.8199   Anisotropy =     7.0568

     55  H    Isotropic =    22.9838   Anisotropy =    10.0037

     56  H    Isotropic =    26.7271   Anisotropy =     5.7811

     57  H    Isotropic =    26.4469   Anisotropy =     6.1670

     58  H    Isotropic =    25.5517   Anisotropy =     7.9907

     59  H    Isotropic =    24.9227   Anisotropy =     3.8442

     60  H    Isotropic =    24.7032   Anisotropy =     5.1109

     61  H    Isotropic =    25.0788   Anisotropy =     9.9132

     62  H    Isotropic =    30.7646   Anisotropy =    10.1038

     63  H    Isotropic =    30.5410   Anisotropy =     5.1741

     64  H    Isotropic =    30.0767   Anisotropy =     7.6905

     65  Rh   Isotropic =  -275.4546   Anisotropy =   310.5232

     66  C    Isotropic =    79.0096   Anisotropy =   120.5063

     67  C    Isotropic =    71.3571   Anisotropy =   125.7791

     68  C    Isotropic =    74.0937   Anisotropy =   128.6938

     69  C    Isotropic =    77.8972   Anisotropy =   115.9756

     70  H    Isotropic =    27.0148   Anisotropy =     6.7551

     71  C    Isotropic =   154.2031   Anisotropy =    25.3215

     72  H    Isotropic =    27.4794   Anisotropy =     4.7505

     73  C    Isotropic =   148.6694   Anisotropy =    28.1935

     74  C    Isotropic =   154.1389   Anisotropy =    25.0172

     75  H    Isotropic =    27.4205   Anisotropy =     6.4415

     76  H    Isotropic =    26.5813   Anisotropy =     3.9358

     77  C    Isotropic =   147.8699   Anisotropy =    28.7519

     78  H    Isotropic =    29.7741   Anisotropy =     9.8906

     79  H    Isotropic =    29.7840   Anisotropy =    11.8049

     80  H    Isotropic =    29.5818   Anisotropy =    12.5561

     81  H    Isotropic =    29.7088   Anisotropy =     6.8831

     82  H    Isotropic =    30.1793   Anisotropy =    11.1124

     83  H    Isotropic =    29.9098   Anisotropy =     9.9588

     84  H    Isotropic =    29.0838   Anisotropy =    12.9632

     85  H    Isotropic =    28.9461   Anisotropy =     8.1083

 The electronic state is 1-A.
 Alpha  occ. eigenvalues --  -77.25990 -77.25515 -14.44387 -10.31875 -10.29602
 Alpha  occ. eigenvalues --  -10.29589 -10.29484 -10.28805 -10.28713 -10.28707
 Alpha  occ. eigenvalues --  -10.28625 -10.28582 -10.28553 -10.28542 -10.28366
 Alpha  occ. eigenvalues --  -10.28294 -10.28259 -10.28224 -10.27969 -10.27904
 Alpha  occ. eigenvalues --  -10.27832 -10.27780 -10.27723 -10.27662 -10.27621
 Alpha  occ. eigenvalues --  -10.27583 -10.27544 -10.27526 -10.27472 -10.27383
 Alpha  occ. eigenvalues --  -10.27221 -10.27158 -10.27107 -10.27090 -10.26980
 Alpha  occ. eigenvalues --  -10.26953 -10.26641 -10.25827 -10.25537 -10.25357
 Alpha  occ. eigenvalues --  -10.25301 -10.25292 -10.25089  -6.71556  -6.71144
 Alpha  occ. eigenvalues --   -4.87944  -4.87735  -4.87530  -4.87471  -4.87314
 Alpha  occ. eigenvalues --   -4.87062  -3.31288  -2.08261  -2.07564  -2.04668
 Alpha  occ. eigenvalues --   -1.01882  -0.96825  -0.96396  -0.96251  -0.95748
 Alpha  occ. eigenvalues --   -0.94189  -0.94092  -0.88887  -0.88343  -0.87734
 Alpha  occ. eigenvalues --   -0.87501  -0.85927  -0.85563  -0.85383  -0.85277
 Alpha  occ. eigenvalues --   -0.85014  -0.84859  -0.84574  -0.82818  -0.81523
 Alpha  occ. eigenvalues --   -0.80071  -0.77549  -0.76709  -0.75415  -0.72305
 Alpha  occ. eigenvalues --   -0.71571  -0.71178  -0.71026  -0.70690  -0.70399
 Alpha  occ. eigenvalues --   -0.70279  -0.69993  -0.69128  -0.68061  -0.67443
 Alpha  occ. eigenvalues --   -0.65555  -0.65192  -0.62714  -0.62275  -0.62017
 Alpha  occ. eigenvalues --   -0.61766  -0.61113  -0.59709  -0.59566  -0.58199
 Alpha  occ. eigenvalues --   -0.56891  -0.56557  -0.56385  -0.56137  -0.56012
 Alpha  occ. eigenvalues --   -0.55808  -0.55685  -0.55558  -0.55230  -0.54980
 Alpha  occ. eigenvalues --   -0.54379  -0.53671  -0.53392  -0.53116  -0.53063
 Alpha  occ. eigenvalues --   -0.52635  -0.52604  -0.52301  -0.52279  -0.52241
 Alpha  occ. eigenvalues --   -0.52089  -0.51546  -0.51192  -0.50345  -0.49227
 Alpha  occ. eigenvalues --   -0.49024  -0.48510  -0.48262  -0.47834  -0.47616
 Alpha  occ. eigenvalues --   -0.47416  -0.47106  -0.46693  -0.46505  -0.46125
 Alpha  occ. eigenvalues --   -0.45731  -0.45499  -0.45433  -0.45253  -0.44859
 Alpha  occ. eigenvalues --   -0.44645  -0.44509  -0.43986  -0.43511  -0.43456
 Alpha  occ. eigenvalues --   -0.43056  -0.42767  -0.42698  -0.42352  -0.41346
 Alpha  occ. eigenvalues --   -0.38101  -0.37856  -0.37567  -0.36611  -0.36506
 Alpha  occ. eigenvalues --   -0.36297  -0.36065  -0.35937  -0.35797  -0.35356
 Alpha  occ. eigenvalues --   -0.34715  -0.34180  -0.34146  -0.33540  -0.33522
 Alpha  occ. eigenvalues --   -0.32833  -0.30374
 Alpha virt. eigenvalues --   -0.15705  -0.14956  -0.14607  -0.13167  -0.12464
 Alpha virt. eigenvalues --   -0.12232  -0.11689  -0.11070  -0.10534  -0.10252
 Alpha virt. eigenvalues --   -0.09322  -0.09114  -0.09053  -0.07525  -0.06216

 Mulliken charges:
               1
     1  P    0.492176
     2  P    0.442097
     3  N   -0.466324
     4  C   -0.119919
     5  C   -0.121497
     6  C   -0.083312
     7  C   -0.098714
     8  C   -0.109873
     9  C   -0.115173
    10  C   -0.247245
    11  C   -0.051552
    12  C   -0.109495
    13  C   -0.094560
    14  C   -0.078697
    15  C   -0.019494
    16  C   -0.269989
    17  C   -0.060959
    18  C   -0.101100
    19  C   -0.089508
    20  C   -0.118542
    21  C   -0.030691
    22  C   -0.149031
    23  C   -0.073649
    24  C   -0.114027
    25  C   -0.081974
    26  C   -0.112934
    27  C   -0.082340
    28  C   -0.178932
    29  C   -0.377753
    30  C    0.044674
    31  C   -0.028887
    32  C   -0.140706
    33  C   -0.082746
    34  C   -0.099939
    35  C   -0.144686
    36  H    0.159265
    37  H    0.135979
    38  H    0.138496
    39  H    0.130281
    40  H    0.131699
    41  H    0.149351
    42  H    0.127371
    43  H    0.134272
    44  H    0.131900
    45  H    0.147225
    46  H    0.170796
    47  H    0.136727
    48  H    0.140200
    49  H    0.131151
    50  H    0.162281
    51  H    0.167281
    52  H    0.134848
    53  H    0.139330
    54  H    0.128802
    55  H    0.125895
    56  H    0.191425
    57  H    0.168734
    58  H    0.113743
    59  H    0.124901
    60  H    0.120460
    61  H    0.114729
    62  H    0.155880
    63  H    0.122804
    64  H    0.158418
    65  Rh  -0.695266
    66  C   -0.025049
    67  C   -0.111972
    68  C   -0.020490
    69  C   -0.109061
    70  H    0.194120
    71  C   -0.342405
    72  H    0.214560
    73  C   -0.224945
    74  C   -0.352189
    75  H    0.201146
    76  H    0.205171
    77  C   -0.227641
    78  H    0.167963
    79  H    0.167372
    80  H    0.169461
    81  H    0.135578
    82  H    0.168654
    83  H    0.164811
    84  H    0.172185
    85  H    0.129052
 Sum of Mulliken charges =   1.00000

 Dipole moment (field-independent basis, Debye):
    X=              1.5025    Y=             -0.2272    Z=             -0.2048  Tot=              1.5333
 Quadrupole moment (field-independent basis, Debye-Ang):
   XX=           -235.3881   YY=           -233.1811   ZZ=           -236.1949
   XY=              4.9177   XZ=              5.8636   YZ=             -5.8092

 Summary of Natural Population Analysis:

                                       Natural Population
                Natural  -----------------------------------------------
    Atom  No    Charge         Core      Valence    Rydberg      Total
 -----------------------------------------------------------------------
      P    1    1.35337      9.99596     3.58803    0.06264    13.64663
      P    2    1.34345      9.99593     3.59777    0.06285    13.65655
      N    3   -1.00048      1.99958     5.97727    0.02362     8.00048
      C    4   -0.36308      1.99898     4.33920    0.02489     6.36308
      C    5   -0.19663      1.99910     4.18242    0.01511     6.19663
      C    6   -0.19044      1.99920     4.17657    0.01468     6.19044
      C    7   -0.18079      1.99920     4.16690    0.01468     6.18079
      C    8   -0.19209      1.99919     4.17825    0.01465     6.19209
      C    9   -0.19791      1.99908     4.18331    0.01552     6.19791
      C   10   -0.37542      1.99898     4.34913    0.02731     6.37542
      C   11   -0.17893      1.99910     4.16400    0.01583     6.17893
      C   12   -0.20118      1.99919     4.18721    0.01479     6.20118
      C   13   -0.16884      1.99920     4.15492    0.01472     6.16884
      C   14   -0.19212      1.99920     4.17745    0.01548     6.19212
      C   15   -0.17350      1.99909     4.15625    0.01816     6.17350
      C   16   -0.38307      1.99897     4.35858    0.02552     6.38307
      C   17   -0.18658      1.99908     4.17176    0.01573     6.18658
      C   18   -0.19368      1.99919     4.17990    0.01459     6.19368
      C   19   -0.17012      1.99920     4.15641    0.01451     6.17012
      C   20   -0.19906      1.99919     4.18534    0.01453     6.19906
      C   21   -0.17729      1.99909     4.16302    0.01518     6.17729
      C   22   -0.36314      1.99897     4.33920    0.02497     6.36314
      C   23   -0.20108      1.99910     4.18692    0.01507     6.20108
      C   24   -0.19107      1.99920     4.17713    0.01475     6.19107
      C   25   -0.17990      1.99920     4.16600    0.01470     6.17990
      C   26   -0.19305      1.99919     4.17928    0.01458     6.19305
      C   27   -0.19405      1.99909     4.17914    0.01582     6.19405
      C   28   -0.06138      1.99924     4.03610    0.02605     6.06138
      C   29   -0.59438      1.99940     4.58675    0.00823     6.59438
      C   30   -0.04064      1.99904     4.02059    0.02101     6.04064
      C   31   -0.21015      1.99907     4.19474    0.01634     6.21015
      C   32   -0.19072      1.99921     4.17606    0.01545     6.19072
      C   33   -0.20083      1.99920     4.18663    0.01501     6.20083
      C   34   -0.19431      1.99920     4.17995    0.01516     6.19431
      C   35   -0.21030      1.99911     4.19639    0.01480     6.21030
      H   36    0.22146      0.00000     0.77685    0.00169     0.77854
      H   37    0.22319      0.00000     0.77559    0.00123     0.77681
      H   38    0.22323      0.00000     0.77560    0.00116     0.77677
      H   39    0.22070      0.00000     0.77807    0.00123     0.77930
      H   40    0.20850      0.00000     0.78939    0.00211     0.79150
      H   41    0.21637      0.00000     0.78125    0.00238     0.78363
      H   42    0.21893      0.00000     0.77983    0.00124     0.78107
      H   43    0.22127      0.00000     0.77760    0.00113     0.77873
      H   44    0.22250      0.00000     0.77615    0.00135     0.77750
      H   45    0.22081      0.00000     0.77687    0.00233     0.77919
      H   46    0.21974      0.00000     0.77823    0.00203     0.78026
      H   47    0.22462      0.00000     0.77414    0.00124     0.77538
      H   48    0.22383      0.00000     0.77500    0.00117     0.77617
      H   49    0.22167      0.00000     0.77707    0.00125     0.77833
      H   50    0.22181      0.00000     0.77609    0.00210     0.77819
      H   51    0.22382      0.00000     0.77437    0.00181     0.77618
      H   52    0.22327      0.00000     0.77550    0.00123     0.77673
      H   53    0.22340      0.00000     0.77543    0.00117     0.77660
      H   54    0.22086      0.00000     0.77790    0.00124     0.77914
      H   55    0.21273      0.00000     0.78517    0.00209     0.78727
      H   56    0.20423      0.00000     0.79231    0.00346     0.79577
      H   57    0.21169      0.00000     0.78543    0.00288     0.78831
      H   58    0.21280      0.00000     0.78581    0.00139     0.78720
      H   59    0.21647      0.00000     0.78236    0.00116     0.78353
      H   60    0.21616      0.00000     0.78263    0.00121     0.78384
      H   61    0.20615      0.00000     0.79225    0.00160     0.79385
      H   62    0.23061      0.00000     0.76830    0.00109     0.76939
      H   63    0.20491      0.00000     0.79344    0.00165     0.79509
      H   64    0.21424      0.00000     0.78429    0.00147     0.78576
     Rh   65   -0.41658     35.98548     9.40257    0.02853    45.41658
      C   66   -0.18321      1.99908     4.16452    0.01961     6.18321
      C   67   -0.15760      1.99910     4.13802    0.02048     6.15760
      C   68   -0.16617      1.99907     4.14742    0.01968     6.16617
      C   69   -0.17291      1.99908     4.15371    0.02012     6.17291
      H   70    0.22654      0.00000     0.77150    0.00196     0.77346
      C   71   -0.42301      1.99936     4.41185    0.01180     6.42301
      H   72    0.23095      0.00000     0.76680    0.00225     0.76905
      C   73   -0.41884      1.99935     4.40654    0.01295     6.41884
      C   74   -0.42331      1.99936     4.41213    0.01182     6.42331
      H   75    0.22996      0.00000     0.76787    0.00218     0.77004
      H   76    0.22784      0.00000     0.77020    0.00196     0.77216
      C   77   -0.41751      1.99935     4.40543    0.01272     6.41751
      H   78    0.21520      0.00000     0.78285    0.00195     0.78480
      H   79    0.22744      0.00000     0.77107    0.00148     0.77256
      H   80    0.23305      0.00000     0.76508    0.00186     0.76695
      H   81    0.21921      0.00000     0.77924    0.00155     0.78079
      H   82    0.22885      0.00000     0.76966    0.00148     0.77115
      H   83    0.21379      0.00000     0.78423    0.00198     0.78621
      H   84    0.23337      0.00000     0.76472    0.00192     0.76663
      H   85    0.21238      0.00000     0.78605    0.00157     0.78762
 =======================================================================
   * Total *    1.00000    137.94316   223.14296    0.91389   362.00000

 Normal termination of Gaussian 16 at Wed Nov  6 01:43:52 2024.
