 Gaussian 16, Revision B.01,
 Gaussian 16:  ES64L-G16RevB.01 20-Dec-2017

 ------------------------------------------
 # nmr=giao b3lyp/genecp pop=nbo scfcyc=200
 ------------------------------------------

 --------------
 Ligand 64a SPE
 --------------
 Symbolic Z-matrix:
 Charge =  1 Multiplicity = 1

                         Standard orientation:
 ---------------------------------------------------------------------
 Center     Atomic      Atomic             Coordinates (Angstroms)
 Number     Number       Type             X           Y           Z
 ---------------------------------------------------------------------
      1         15           0       -0.630068    1.228511    0.141111
      2         15           0        0.592400   -1.149530    0.100231
      3          7           0       -1.601147    1.823742    1.499341
      4          7           0       -1.527328    1.140452    2.692001
      5          7           0        0.747922    0.450559    0.810191
      6          6           0        1.978280   -1.377712   -2.291959
      7          1           0        1.053160   -1.013821   -2.722669
      8          6           0        0.217385    3.945020    0.131031
      9          1           0        0.055485    3.954340    1.201281
     10          6           0        1.789122    1.070878    1.699161
     11          1           0        1.478083    2.116749    1.758981
     12          6           0        0.478499   -2.424450    1.419001
     13          6           0        3.187052    1.081077    1.076421
     14          6           0        1.737372    0.517288    3.122421
     15          1           0        0.721282    0.588879    3.499521
     16          1           0        2.388912    1.106798    3.768891
     17          1           0        2.059351   -0.522712    3.173871
     18          6           0        0.985787   -3.713891    1.221701
     19          1           0        1.564617   -3.950241    0.339461
     20          6           0        2.072269   -1.552682   -0.907809
     21          6           0       -0.295561   -2.156780    2.554651
     22          1           0       -0.716780   -1.170329    2.704241
     23          6           0        3.270549   -2.019633   -0.357739
     24          1           0        3.369299   -2.153853    0.710451
     25          6           0       -0.078056    2.801960   -0.619659
     26          6           0        0.115964    2.817520   -2.003879
     27          1           0       -0.108747    1.933880   -2.589479
     28          6           0        4.350689   -2.306434   -1.181919
     29          1           0        5.276058   -2.661915   -0.747039
     30          6           0        0.005817   -4.431430    3.305201
     31          1           0       -0.171364   -5.206470    4.040281
     32          6           0        0.751486   -4.709511    2.165521
     33          1           0        1.155895   -5.701421    2.007411
     34          6           0        4.247429   -2.134234   -2.559479
     35          1           0        5.091529   -2.363035   -3.197969
     36          6           0        4.303202    0.613186    1.771881
     37          1           0        4.194051    0.178796    2.755591
     38          6           0        3.388873    1.650107   -0.184909
     39          1           0        2.544553    2.028728   -0.745089
     40          6           0       -2.546687    1.567093    3.417581
     41          6           0        3.061399   -1.666753   -3.114169
     42          1           0        2.977430   -1.531653   -4.185239
     43          6           0        4.659713    1.740435   -0.736159
     44          1           0        4.790433    2.188395   -1.713579
     45          6           0       -2.719746    2.640403    1.468061
     46          6           0       -3.143855    3.494533    0.317331
     47          1           0       -2.503734    4.369423    0.195361
     48          1           0       -4.159775    3.844734    0.495171
     49          1           0       -3.140086    2.956013   -0.632079
     50          6           0       -0.517992   -3.155169    3.494581
     51          1           0       -1.106342   -2.937019    4.377231
     52          6           0        5.764262    1.267514   -0.032589
     53          1           0        6.757182    1.344883   -0.457679
     54          6           0        0.600835    3.960200   -2.630489
     55          1           0        0.743995    3.967729   -3.703629
     56          6           0       -3.323336    2.503054    2.691961
     57          1           0       -4.210616    3.017164    3.024381
     58          6           0        0.897906    5.092209   -1.878149
     59          1           0        1.275277    5.982409   -2.365349
     60          6           0        0.706766    5.082879   -0.498999
     61          1           0        0.937367    5.963679    0.086861
     62          6           0        5.580432    0.704425    1.222811
     63          1           0        6.430951    0.339874    1.785741
     64          6           0       -2.761828    1.076813    4.812131
     65          1           0       -2.020989    0.321102    5.069661
     66          1           0       -3.757068    0.641484    4.925291
     67          1           0       -2.680267    1.894493    5.531831
     68         45           0       -1.406760   -0.624438   -0.988279
     69          6           0       -3.627529   -0.153736   -1.316249
     70          6           0       -2.921089    0.253303   -2.426699
     71          6           0       -1.760311   -2.439178   -2.360839
     72          6           0       -2.249392   -2.729318   -1.107009
     73          1           0       -3.823738    0.590814   -0.552949
     74          6           0       -4.457410   -1.418925   -1.210199
     75          1           0       -2.648718    1.302423   -2.485469
     76          6           0       -2.759899   -0.503897   -3.722369
     77          6           0       -2.590801   -2.031087   -3.563449
     78          1           0       -0.753912   -2.778399   -2.580599
     79          1           0       -1.605662   -3.295998   -0.442719
     80          6           0       -3.679372   -2.623526   -0.640469
     81          1           0       -4.879211   -1.663345   -2.184699
     82          1           0       -5.307950   -1.218724   -0.556569
     83          1           0       -3.611829   -0.294216   -4.381099
     84          1           0       -1.884259   -0.100098   -4.235839
     85          1           0       -2.108311   -2.418088   -4.462509
     86          1           0       -3.565001   -2.516766   -3.516059
     87          1           0       -4.210803   -3.553626   -0.878259
     88          1           0       -3.666012   -2.558626    0.449381
 ---------------------------------------------------------------------

 SCF Done:  E(RB3LYP) =  -2470.05542094     A.U. after   16 cycles

      1  P    Isotropic =   198.5210   Anisotropy =   134.1961

      2  P    Isotropic =   219.7434   Anisotropy =    73.8045

      3  N    Isotropic =    25.5556   Anisotropy =    88.4814

      4  N    Isotropic =   -80.1126   Anisotropy =   300.0471

      5  N    Isotropic =   112.9962   Anisotropy =    81.1594

      6  C    Isotropic =    42.8977   Anisotropy =   179.2756

      7  H    Isotropic =    23.4775   Anisotropy =    10.2540

      8  C    Isotropic =    46.5199   Anisotropy =   192.6368

      9  H    Isotropic =    24.0682   Anisotropy =    10.1419

     10  C    Isotropic =   117.9755   Anisotropy =    45.4181

     11  H    Isotropic =    27.0715   Anisotropy =     4.3256

     12  C    Isotropic =    43.6305   Anisotropy =   161.4123

     13  C    Isotropic =    39.8771   Anisotropy =   187.1796

     14  C    Isotropic =   164.2970   Anisotropy =    14.8232

     15  H    Isotropic =    28.3581   Anisotropy =     8.0388

     16  H    Isotropic =    30.4015   Anisotropy =    11.4848

     17  H    Isotropic =    30.3204   Anisotropy =     3.5721

     18  C    Isotropic =    48.3818   Anisotropy =   187.9235

     19  H    Isotropic =    24.9005   Anisotropy =    12.2417

     20  C    Isotropic =    48.8051   Anisotropy =   172.8571

     21  C    Isotropic =    42.3561   Anisotropy =   206.3709

     22  H    Isotropic =    21.7517   Anisotropy =     8.9985

     23  C    Isotropic =    44.3811   Anisotropy =   200.1354

     24  H    Isotropic =    24.9289   Anisotropy =     8.2896

     25  C    Isotropic =    42.3949   Anisotropy =   175.5452

     26  C    Isotropic =    45.4703   Anisotropy =   187.3028

     27  H    Isotropic =    23.3915   Anisotropy =     9.7344

     28  C    Isotropic =    50.1658   Anisotropy =   192.4011

     29  H    Isotropic =    24.9281   Anisotropy =     5.7620

     30  C    Isotropic =    45.8344   Anisotropy =   196.1874

     31  H    Isotropic =    24.0118   Anisotropy =     3.8350

     32  C    Isotropic =    50.2657   Anisotropy =   187.6828

     33  H    Isotropic =    24.3336   Anisotropy =     6.1788

     34  C    Isotropic =    45.1245   Anisotropy =   199.5750

     35  H    Isotropic =    24.3748   Anisotropy =     3.3519

     36  C    Isotropic =    52.8940   Anisotropy =   185.3156

     37  H    Isotropic =    24.7271   Anisotropy =    11.7451

     38  C    Isotropic =    51.0853   Anisotropy =   187.1053

     39  H    Isotropic =    26.5527   Anisotropy =     7.9716

     40  C    Isotropic =    22.1522   Anisotropy =   154.5114

     41  C    Isotropic =    50.5856   Anisotropy =   186.8615

     42  H    Isotropic =    24.2949   Anisotropy =     6.7871

     43  C    Isotropic =    51.3701   Anisotropy =   189.1209

     44  H    Isotropic =    25.5607   Anisotropy =     7.4296

     45  C    Isotropic =    31.1960   Anisotropy =   137.8568

     46  C    Isotropic =   168.7424   Anisotropy =    14.2967

     47  H    Isotropic =    30.4599   Anisotropy =     6.8008

     48  H    Isotropic =    29.7436   Anisotropy =    10.9484

     49  H    Isotropic =    30.8791   Anisotropy =     5.8420

     50  C    Isotropic =    49.3864   Anisotropy =   189.4932

     51  H    Isotropic =    23.8087   Anisotropy =     7.4115

     52  C    Isotropic =    50.3702   Anisotropy =   191.1682

     53  H    Isotropic =    24.8707   Anisotropy =     3.6510

     54  C    Isotropic =    48.2273   Anisotropy =   191.4397

     55  H    Isotropic =    23.8118   Anisotropy =     6.7098

     56  C    Isotropic =    66.9910   Anisotropy =   102.5902

     57  H    Isotropic =    25.5240   Anisotropy =     4.8339

     58  C    Isotropic =    43.3084   Anisotropy =   200.4056

     59  H    Isotropic =    23.8691   Anisotropy =     3.4253

     60  C    Isotropic =    48.1618   Anisotropy =   192.3248

     61  H    Isotropic =    24.1301   Anisotropy =     6.1894

     62  C    Isotropic =    50.5564   Anisotropy =   188.0412

     63  H    Isotropic =    24.6172   Anisotropy =     5.1091

     64  C    Isotropic =   169.5520   Anisotropy =    32.2072

     65  H    Isotropic =    29.1574   Anisotropy =     6.0659

     66  H    Isotropic =    29.2616   Anisotropy =     8.8946

     67  H    Isotropic =    29.2780   Anisotropy =    10.1598

     68  Rh   Isotropic =  -276.0895   Anisotropy =   306.8281

     69  C    Isotropic =    75.8555   Anisotropy =   126.7946

     70  C    Isotropic =    78.9607   Anisotropy =   113.3840

     71  C    Isotropic =    77.2486   Anisotropy =   123.9270

     72  C    Isotropic =    68.9683   Anisotropy =   129.7214

     73  H    Isotropic =    27.2554   Anisotropy =     6.2948

     74  C    Isotropic =   154.0939   Anisotropy =    24.8129

     75  H    Isotropic =    26.2637   Anisotropy =     4.1876

     76  C    Isotropic =   147.4960   Anisotropy =    29.8465

     77  C    Isotropic =   154.3801   Anisotropy =    25.2435

     78  H    Isotropic =    27.0755   Anisotropy =     6.5297

     79  H    Isotropic =    27.4283   Anisotropy =     4.4096

     80  C    Isotropic =   148.9722   Anisotropy =    27.8593

     81  H    Isotropic =    29.8626   Anisotropy =    10.0036

     82  H    Isotropic =    30.0805   Anisotropy =    11.0561

     83  H    Isotropic =    29.0041   Anisotropy =    12.8965

     84  H    Isotropic =    28.8949   Anisotropy =     8.2649

     85  H    Isotropic =    29.8257   Anisotropy =    11.8285

     86  H    Isotropic =    29.7844   Anisotropy =     9.8978

     87  H    Isotropic =    29.5643   Anisotropy =    12.5834

     88  H    Isotropic =    29.6895   Anisotropy =     6.9389

 The electronic state is 1-A.
 Alpha  occ. eigenvalues --  -77.28374 -77.25823 -14.48070 -14.44612 -14.42160
 Alpha  occ. eigenvalues --  -10.31668 -10.31285 -10.29905 -10.29197 -10.29183
 Alpha  occ. eigenvalues --  -10.29093 -10.29087 -10.29083 -10.29030 -10.28969
 Alpha  occ. eigenvalues --  -10.28963 -10.28878 -10.28338 -10.28248 -10.28169
 Alpha  occ. eigenvalues --  -10.28032 -10.27856 -10.27748 -10.27745 -10.27417
 Alpha  occ. eigenvalues --  -10.27411 -10.27343 -10.27305 -10.27275 -10.27197
 Alpha  occ. eigenvalues --  -10.27156 -10.27068 -10.27028 -10.26950 -10.26865
 Alpha  occ. eigenvalues --  -10.26745 -10.25446 -10.25403 -10.25358 -10.25332
 Alpha  occ. eigenvalues --  -10.25260 -10.25191 -10.25182 -10.24252  -6.73705
 Alpha  occ. eigenvalues --   -6.71421  -4.90106  -4.89939  -4.89579  -4.87817
 Alpha  occ. eigenvalues --   -4.87581  -4.87344  -3.31739  -2.08746  -2.08016
 Alpha  occ. eigenvalues --   -2.05082  -1.13286  -1.02260  -0.97107  -0.96144
 Alpha  occ. eigenvalues --   -0.95577  -0.94535  -0.94201  -0.93015  -0.89315
 Alpha  occ. eigenvalues --   -0.89244  -0.88082  -0.87837  -0.86857  -0.85959
 Alpha  occ. eigenvalues --   -0.85789  -0.84952  -0.84660  -0.84365  -0.82882
 Alpha  occ. eigenvalues --   -0.81284  -0.80643  -0.80456  -0.80313  -0.77912
 Alpha  occ. eigenvalues --   -0.76102  -0.75006  -0.72146  -0.71791  -0.70918
 Alpha  occ. eigenvalues --   -0.70647  -0.70431  -0.69826  -0.69671  -0.68664
 Alpha  occ. eigenvalues --   -0.67801  -0.67434  -0.65929  -0.65300  -0.63685
 Alpha  occ. eigenvalues --   -0.62563  -0.62258  -0.61924  -0.61496  -0.60161
 Alpha  occ. eigenvalues --   -0.60093  -0.59665  -0.57725  -0.57316  -0.56827
 Alpha  occ. eigenvalues --   -0.56292  -0.56130  -0.55742  -0.55470  -0.55244
 Alpha  occ. eigenvalues --   -0.54965  -0.54803  -0.54186  -0.53834  -0.53709
 Alpha  occ. eigenvalues --   -0.53294  -0.52860  -0.52749  -0.52664  -0.52443
 Alpha  occ. eigenvalues --   -0.52306  -0.52212  -0.51867  -0.51429  -0.51246
 Alpha  occ. eigenvalues --   -0.51071  -0.50685  -0.50306  -0.49204  -0.48651
 Alpha  occ. eigenvalues --   -0.48561  -0.48215  -0.48023  -0.47762  -0.47645
 Alpha  occ. eigenvalues --   -0.47381  -0.46909  -0.46820  -0.46191  -0.46062
 Alpha  occ. eigenvalues --   -0.45909  -0.45861  -0.45636  -0.45136  -0.44843
 Alpha  occ. eigenvalues --   -0.44584  -0.44235  -0.44027  -0.43493  -0.43372
 Alpha  occ. eigenvalues --   -0.43115  -0.42547  -0.41924  -0.41851  -0.38810
 Alpha  occ. eigenvalues --   -0.38579  -0.37850  -0.37741  -0.36789  -0.36677
 Alpha  occ. eigenvalues --   -0.36401  -0.36047  -0.35679  -0.35236  -0.34644
 Alpha  occ. eigenvalues --   -0.34403  -0.34108  -0.33972  -0.33796  -0.33577
 Alpha  occ. eigenvalues --   -0.32916  -0.30703
 Alpha virt. eigenvalues --   -0.16003  -0.14930  -0.14914  -0.12922  -0.12421
 Alpha virt. eigenvalues --   -0.11453  -0.11293  -0.10363  -0.09746  -0.09524
 Alpha virt. eigenvalues --   -0.09014  -0.08790  -0.07888  -0.06321  -0.06237

 Mulliken charges:
               1
     1  P    0.600764
     2  P    0.399782
     3  N   -0.102501
     4  N   -0.131616
     5  N   -0.412668
     6  C   -0.065478
     7  H    0.168948
     8  C   -0.073982
     9  H    0.173800
    10  C   -0.000573
    11  H    0.154393
    12  C   -0.257685
    13  C   -0.094048
    14  C   -0.471377
    15  H    0.183118
    16  H    0.157894
    17  H    0.144914
    18  C   -0.048032
    19  H    0.163356
    20  C   -0.177726
    21  C   -0.065443
    22  H    0.253368
    23  C   -0.068194
    24  H    0.163915
    25  C   -0.256365
    26  C   -0.061744
    27  H    0.144769
    28  C   -0.071522
    29  H    0.131464
    30  C   -0.074299
    31  H    0.135738
    32  C   -0.121953
    33  H    0.132260
    34  C   -0.093317
    35  H    0.134890
    36  C   -0.114210
    37  H    0.138022
    38  C   -0.041875
    39  H    0.162649
    40  C   -0.039662
    41  C   -0.113945
    42  H    0.127334
    43  C   -0.123384
    44  H    0.114306
    45  C   -0.074333
    46  C   -0.455854
    47  H    0.174206
    48  H    0.163705
    49  H    0.141955
    50  C   -0.131083
    51  H    0.126078
    52  C   -0.091059
    53  H    0.121455
    54  C   -0.111726
    55  H    0.134811
    56  C    0.044911
    57  H    0.158542
    58  C   -0.089178
    59  H    0.143069
    60  C   -0.083927
    61  H    0.139000
    62  C   -0.097952
    63  H    0.122287
    64  C   -0.464868
    65  H    0.144143
    66  H    0.143381
    67  H    0.150330
    68  Rh  -0.673378
    69  C   -0.018048
    70  C   -0.116431
    71  C   -0.026017
    72  C   -0.117034
    73  H    0.193343
    74  C   -0.363951
    75  H    0.189786
    76  C   -0.227034
    77  C   -0.344049
    78  H    0.205225
    79  H    0.218564
    80  C   -0.223062
    81  H    0.166758
    82  H    0.169485
    83  H    0.174429
    84  H    0.128416
    85  H    0.169366
    86  H    0.169081
    87  H    0.172005
    88  H    0.140565
 Sum of Mulliken charges =   1.00000

 Dipole moment (field-independent basis, Debye):
    X=             -1.6843    Y=              0.2803    Z=             -2.1401  Tot=              2.7378
 Quadrupole moment (field-independent basis, Debye-Ang):
   XX=           -236.4991   YY=           -238.9868   ZZ=           -246.5607
   XY=             -5.1422   XZ=             -5.0448   YZ=             -5.2844

 Summary of Natural Population Analysis:

                                       Natural Population
                Natural  -----------------------------------------------
    Atom  No    Charge         Core      Valence    Rydberg      Total
 -----------------------------------------------------------------------
      P    1    1.52367      9.99571     3.40999    0.07063    13.47633
      P    2    1.34861      9.99599     3.59232    0.06308    13.65139
      N    3   -0.47395      1.99940     5.44310    0.03145     7.47395
      N    4   -0.30319      1.99932     5.28247    0.02140     7.30319
      N    5   -0.99470      1.99957     5.96952    0.02562     7.99470
      C    6   -0.17700      1.99910     4.16221    0.01569     6.17700
      H    7    0.21859      0.00000     0.77930    0.00211     0.78141
      C    8   -0.19046      1.99908     4.17473    0.01665     6.19046
      H    9    0.22436      0.00000     0.77362    0.00202     0.77564
      C   10   -0.05695      1.99924     4.03143    0.02628     6.05695
      H   11    0.21282      0.00000     0.78422    0.00296     0.78718
      C   12   -0.37690      1.99897     4.35320    0.02472     6.37690
      C   13   -0.04660      1.99904     4.02756    0.02000     6.04660
      C   14   -0.61519      1.99941     4.60673    0.00905     6.61519
      H   15    0.24310      0.00000     0.75521    0.00169     0.75690
      H   16    0.21887      0.00000     0.77999    0.00114     0.78113
      H   17    0.20493      0.00000     0.79342    0.00165     0.79507
      C   18   -0.19838      1.99910     4.18435    0.01493     6.19838
      H   19    0.22335      0.00000     0.77497    0.00169     0.77665
      C   20   -0.37828      1.99897     4.35229    0.02701     6.37828
      C   21   -0.19271      1.99910     4.17778    0.01584     6.19271
      H   22    0.24747      0.00000     0.74990    0.00263     0.75253
      C   23   -0.17292      1.99910     4.15553    0.01829     6.17292
      H   24    0.22260      0.00000     0.77492    0.00248     0.77740
      C   25   -0.39899      1.99898     4.37330    0.02671     6.39899
      C   26   -0.18351      1.99908     4.16921    0.01522     6.18351
      H   27    0.22129      0.00000     0.77641    0.00231     0.77871
      C   28   -0.19273      1.99919     4.17797    0.01556     6.19273
      H   29    0.22319      0.00000     0.77544    0.00136     0.77681
      C   30   -0.17796      1.99920     4.16407    0.01469     6.17796
      H   31    0.22139      0.00000     0.77743    0.00118     0.77861
      C   32   -0.19721      1.99920     4.18314    0.01487     6.19721
      H   33    0.22196      0.00000     0.77680    0.00124     0.77804
      C   34   -0.16829      1.99920     4.15440    0.01469     6.16829
      H   35    0.22142      0.00000     0.77745    0.00113     0.77858
      C   36   -0.20888      1.99911     4.19552    0.01425     6.20888
      H   37    0.21409      0.00000     0.78427    0.00164     0.78591
      C   38   -0.19757      1.99909     4.18202    0.01645     6.19757
      H   39    0.20827      0.00000     0.78893    0.00280     0.79173
      C   40    0.16485      1.99930     3.81409    0.02176     5.83515
      C   41   -0.20202      1.99919     4.18809    0.01474     6.20202
      H   42    0.21919      0.00000     0.77958    0.00123     0.78081
      C   43   -0.19491      1.99921     4.18023    0.01547     6.19491
      H   44    0.21274      0.00000     0.78587    0.00139     0.78726
      C   45    0.16386      1.99906     3.81902    0.01805     5.83614
      C   46   -0.63279      1.99936     4.62553    0.00789     6.63279
      H   47    0.23389      0.00000     0.76438    0.00173     0.76611
      H   48    0.23728      0.00000     0.76160    0.00112     0.76272
      H   49    0.21428      0.00000     0.78409    0.00162     0.78572
      C   50   -0.19569      1.99919     4.18197    0.01453     6.19569
      H   51    0.21868      0.00000     0.78002    0.00130     0.78132
      C   52   -0.19683      1.99919     4.18259    0.01504     6.19683
      H   53    0.21621      0.00000     0.78261    0.00117     0.78379
      C   54   -0.19629      1.99919     4.18246    0.01464     6.19629
      H   55    0.22326      0.00000     0.77549    0.00125     0.77674
      C   56   -0.31002      1.99891     4.29847    0.01264     6.31002
      H   57    0.23164      0.00000     0.76685    0.00151     0.76836
      C   58   -0.16934      1.99921     4.15560    0.01454     6.16934
      H   59    0.22498      0.00000     0.77386    0.00117     0.77502
      C   60   -0.19178      1.99919     4.17786    0.01472     6.19178
      H   61    0.22597      0.00000     0.77280    0.00123     0.77403
      C   62   -0.19792      1.99920     4.18337    0.01535     6.19792
      H   63    0.21551      0.00000     0.78326    0.00123     0.78449
      C   64   -0.62372      1.99938     4.61789    0.00646     6.62372
      H   65    0.22332      0.00000     0.77532    0.00136     0.77668
      H   66    0.22397      0.00000     0.77479    0.00124     0.77603
      H   67    0.22718      0.00000     0.77159    0.00123     0.77282
     Rh   68   -0.42296     35.98510     9.40860    0.02926    45.42296
      C   69   -0.16720      1.99907     4.14835    0.01978     6.16720
      C   70   -0.17594      1.99908     4.15644    0.02042     6.17594
      C   71   -0.18447      1.99910     4.16554    0.01983     6.18447
      C   72   -0.15268      1.99911     4.13326    0.02031     6.15268
      H   73    0.22701      0.00000     0.77102    0.00198     0.77299
      C   74   -0.42338      1.99936     4.41213    0.01189     6.42338
      H   75    0.22307      0.00000     0.77470    0.00222     0.77693
      C   76   -0.41733      1.99935     4.40518    0.01280     6.41733
      C   77   -0.42384      1.99936     4.41200    0.01248     6.42384
      H   78    0.22888      0.00000     0.76886    0.00226     0.77112
      H   79    0.23388      0.00000     0.76386    0.00226     0.76612
      C   80   -0.42035      1.99935     4.40799    0.01300     6.42035
      H   81    0.21427      0.00000     0.78377    0.00197     0.78573
      H   82    0.22965      0.00000     0.76887    0.00148     0.77035
      H   83    0.23379      0.00000     0.76431    0.00190     0.76621
      H   84    0.21315      0.00000     0.78527    0.00158     0.78685
      H   85    0.22872      0.00000     0.76983    0.00145     0.77128
      H   86    0.21586      0.00000     0.78220    0.00194     0.78414
      H   87    0.23468      0.00000     0.76349    0.00183     0.76532
      H   88    0.22209      0.00000     0.77637    0.00154     0.77791
 =======================================================================
   * Total *    1.00000    139.94264   231.10645    0.95091   372.00000

 Normal termination of Gaussian 16 at Wed Nov  6 01:56:34 2024.
