 Gaussian 16, Revision B.01,
 Gaussian 16:  ES64L-G16RevB.01 20-Dec-2017

 ------------------------------------------
 # nmr=giao b3lyp/genecp pop=nbo scfcyc=200
 ------------------------------------------

 --------------
 Ligand 65b SPE
 --------------
 Symbolic Z-matrix:
 Charge =  1 Multiplicity = 1

                         Standard orientation:
 ---------------------------------------------------------------------
 Center     Atomic      Atomic             Coordinates (Angstroms)
 Number     Number       Type             X           Y           Z
 ---------------------------------------------------------------------
      1         15           0       -1.316730   -0.215430    0.027569
      2         15           0        1.302680   -0.207770    0.045319
      3          8           0       -2.261620    0.015010   -1.293471
      4          8           0       -2.259510    0.400220    1.230649
      5          8           0        2.285600    0.001311    1.340359
      6          8           0        2.205130    0.435291   -1.174501
      7          7           0       -0.010400    0.884900    0.070099
      8          6           0       -3.059480    1.162349   -1.456031
      9          6           0       -2.710280    2.013700   -2.518471
     10          1           0       -1.876210    1.744240   -3.152811
     11          6           0       -3.438630    3.151779   -2.728701
     12          1           0       -3.192291    3.812039   -3.551401
     13          6           0       -4.505230    3.497899   -1.863621
     14          6           0       -5.214761    4.713519   -2.028101
     15          1           0       -4.947681    5.362179   -2.853991
     16          6           0       -6.207261    5.073309   -1.154631
     17          1           0       -6.739081    6.007049   -1.285871
     18          6           0       -6.525341    4.230539   -0.070141
     19          1           0       -7.291941    4.530479    0.633329
     20          6           0       -5.870900    3.037299    0.107279
     21          1           0       -6.126700    2.410229    0.948999
     22          6           0       -4.855100    2.619259   -0.789411
     23          6           0       -4.142620    1.380439   -0.631691
     24          6           0       -4.519130    0.373049    0.397029
     25          6           0       -5.831970   -0.207451    0.465129
     26          6           0       -6.821830    0.021469   -0.524021
     27          1           0       -6.590850    0.654419   -1.368561
     28          6           0       -8.063060   -0.556402   -0.430521
     29          1           0       -8.799300   -0.371802   -1.202771
     30          6           0       -8.389699   -1.391592    0.657499
     31          1           0       -9.376719   -1.831612    0.721799
     32          6           0       -7.451049   -1.654312    1.620479
     33          1           0       -7.684799   -2.309362    2.451439
     34          6           0       -6.152869   -1.090891    1.544839
     35          6           0       -5.162469   -1.406191    2.506919
     36          1           0       -5.420569   -2.055871    3.334479
     37          6           0       -3.890510   -0.917491    2.385349
     38          1           0       -3.114339   -1.159311    3.099549
     39          6           0       -3.585900   -0.056211    1.316759
     40          6           0        3.104560    1.134401    1.498519
     41          6           0        2.804330    1.964321    2.592919
     42          1           0        1.990890    1.688741    3.251039
     43          6           0        3.552340    3.089851    2.801889
     44          1           0        3.343489    3.733261    3.647969
     45          6           0        4.590900    3.444451    1.906489
     46          6           0        5.319009    4.648781    2.072089
     47          1           0        5.088699    5.281461    2.921109
     48          6           0        6.283539    5.017921    1.171529
     49          1           0        6.829949    5.943022    1.303989
     50          6           0        6.553129    4.196391    0.058119
     51          1           0        7.297229    4.504092   -0.665861
     52          6           0        5.879610    3.014101   -0.121781
     53          1           0        6.098120    2.403691   -0.985921
     54          6           0        4.892110    2.586501    0.801389
     55          6           0        4.160610    1.358651    0.641669
     56          6           0        4.491430    0.371201   -0.421461
     57          6           0        5.795820   -0.218879   -0.547681
     58          6           0        6.820590   -0.022138    0.412369
     59          1           0        6.624200    0.592442    1.278929
     60          6           0        8.052490   -0.608288    0.263309
     61          1           0        8.816000   -0.448468    1.014299
     62          6           0        8.334451   -1.420118   -0.854471
     63          1           0        9.314561   -1.866958   -0.962521
     64          6           0        7.361381   -1.651818   -1.790891
     65          1           0        7.560761   -2.288948   -2.644431
     66          6           0        6.071831   -1.079229   -1.658021
     67          6           0        5.046531   -1.363449   -2.592861
     68          1           0        5.270491   -1.995569   -3.443641
     69          6           0        3.783890   -0.867379   -2.416411
     70          1           0        2.981381   -1.086789   -3.108391
     71          6           0        3.523550   -0.028819   -1.318391
     72          6           0       -0.015550    2.358130    0.047239
     73          1           0       -0.983400    2.712240    0.396079
     74          1           0        0.167570    2.728610   -0.960881
     75          1           0        0.752690    2.739950    0.716959
     76         45           0       -0.000669   -2.097460    0.027419
     77          6           0       -1.454209   -3.789980    0.588099
     78          6           0       -1.465289   -3.635740   -0.779791
     79          6           0        1.467311   -3.767900   -0.558011
     80          6           0        1.476701   -3.632960    0.812099
     81          1           0       -2.224519   -3.265300    1.143179
     82          6           0       -0.714199   -4.869230    1.355859
     83          1           0       -2.254889   -3.023570   -1.204091
     84          6           0       -0.682669   -4.434910   -1.790761
     85          6           0        0.737361   -4.842950   -1.341181
     86          1           0        2.233191   -3.229119   -1.105651
     87          1           0        2.260941   -3.019979    1.245129
     88          6           0        0.701781   -4.453950    1.811569
     89          1           0       -0.671238   -5.779280    0.758479
     90          1           0       -1.298249   -5.119780    2.242799
     91          1           0       -1.254039   -5.329820   -2.067391
     92          1           0       -0.612359   -3.835650   -2.700851
     93          1           0        1.323571   -5.074920   -2.231751
     94          1           0        0.703432   -5.761980   -0.757131
     95          1           0        1.281771   -5.347110    2.075629
     96          1           0        0.625581   -3.868400    2.730089
 ---------------------------------------------------------------------

 SCF Done:  E(RB3LYP) =  -3040.38990789     A.U. after   23 cycles

      1  P    Isotropic =   159.6086   Anisotropy =   183.9655

      2  P    Isotropic =   160.0687   Anisotropy =   186.3016

      3  O    Isotropic =   134.6807   Anisotropy =    61.7303

      4  O    Isotropic =   142.1054   Anisotropy =    77.6128

      5  O    Isotropic =   134.8861   Anisotropy =    59.6375

      6  O    Isotropic =   139.2294   Anisotropy =    68.3176

      7  N    Isotropic =    75.6284   Anisotropy =    39.1494

      8  C    Isotropic =    28.1727   Anisotropy =   107.3333

      9  C    Isotropic =    61.6376   Anisotropy =   146.8972

     10  H    Isotropic =    24.2039   Anisotropy =     7.9820

     11  C    Isotropic =    46.7537   Anisotropy =   165.4783

     12  H    Isotropic =    23.6865   Anisotropy =     7.6674

     13  C    Isotropic =    45.4282   Anisotropy =   213.1477

     14  C    Isotropic =    49.8231   Anisotropy =   163.2367

     15  H    Isotropic =    23.7910   Anisotropy =     7.5967

     16  C    Isotropic =    51.0100   Anisotropy =   184.7656

     17  H    Isotropic =    24.1051   Anisotropy =     4.2356

     18  C    Isotropic =    50.2814   Anisotropy =   186.9558

     19  H    Isotropic =    24.2981   Anisotropy =     7.8230

     20  C    Isotropic =    51.0920   Anisotropy =   176.9532

     21  H    Isotropic =    24.5500   Anisotropy =    14.8128

     22  C    Isotropic =    45.8396   Anisotropy =   204.4545

     23  C    Isotropic =    55.2742   Anisotropy =   139.3299

     24  C    Isotropic =    53.0307   Anisotropy =   139.2788

     25  C    Isotropic =    44.3900   Anisotropy =   202.6492

     26  C    Isotropic =    51.7114   Anisotropy =   180.0437

     27  H    Isotropic =    24.5219   Anisotropy =    14.5687

     28  C    Isotropic =    50.4330   Anisotropy =   187.5795

     29  H    Isotropic =    24.2666   Anisotropy =     7.7466

     30  C    Isotropic =    51.5815   Anisotropy =   187.0680

     31  H    Isotropic =    24.0249   Anisotropy =     4.3452

     32  C    Isotropic =    50.4783   Anisotropy =   164.6132

     33  H    Isotropic =    23.6763   Anisotropy =     7.6777

     34  C    Isotropic =    45.7333   Anisotropy =   214.5668

     35  C    Isotropic =    46.9297   Anisotropy =   164.7232

     36  H    Isotropic =    23.6479   Anisotropy =     7.5645

     37  C    Isotropic =    61.3078   Anisotropy =   146.6659

     38  H    Isotropic =    24.2126   Anisotropy =     7.5563

     39  C    Isotropic =    30.0439   Anisotropy =   104.8766

     40  C    Isotropic =    27.1059   Anisotropy =   107.9706

     41  C    Isotropic =    61.9534   Anisotropy =   146.1396

     42  H    Isotropic =    24.1770   Anisotropy =     8.0246

     43  C    Isotropic =    46.6531   Anisotropy =   165.5317

     44  H    Isotropic =    23.6554   Anisotropy =     7.5925

     45  C    Isotropic =    45.5477   Anisotropy =   212.8661

     46  C    Isotropic =    49.8459   Anisotropy =   163.2264

     47  H    Isotropic =    23.7730   Anisotropy =     7.5476

     48  C    Isotropic =    51.0293   Anisotropy =   184.8406

     49  H    Isotropic =    24.0930   Anisotropy =     4.2156

     50  C    Isotropic =    50.1796   Anisotropy =   187.0830

     51  H    Isotropic =    24.2886   Anisotropy =     7.8676

     52  C    Isotropic =    51.0688   Anisotropy =   177.2430

     53  H    Isotropic =    24.5480   Anisotropy =    14.8853

     54  C    Isotropic =    45.7218   Anisotropy =   204.1633

     55  C    Isotropic =    55.0885   Anisotropy =   139.5001

     56  C    Isotropic =    52.8554   Anisotropy =   139.4445

     57  C    Isotropic =    44.4805   Anisotropy =   203.1691

     58  C    Isotropic =    51.6664   Anisotropy =   179.8200

     59  H    Isotropic =    24.5077   Anisotropy =    14.5402

     60  C    Isotropic =    50.4149   Anisotropy =   187.4928

     61  H    Isotropic =    24.2745   Anisotropy =     7.7081

     62  C    Isotropic =    51.4789   Anisotropy =   186.6524

     63  H    Isotropic =    24.0289   Anisotropy =     4.3269

     64  C    Isotropic =    50.3962   Anisotropy =   164.3298

     65  H    Isotropic =    23.6803   Anisotropy =     7.6802

     66  C    Isotropic =    45.7747   Anisotropy =   214.7410

     67  C    Isotropic =    46.8478   Anisotropy =   164.4395

     68  H    Isotropic =    23.6298   Anisotropy =     7.6035

     69  C    Isotropic =    61.2898   Anisotropy =   146.6104

     70  H    Isotropic =    24.1890   Anisotropy =     7.4937

     71  C    Isotropic =    29.6380   Anisotropy =   104.7558

     72  C    Isotropic =   151.2581   Anisotropy =    48.3257

     73  H    Isotropic =    29.7392   Anisotropy =     7.2566

     74  H    Isotropic =    29.3851   Anisotropy =     7.0351

     75  H    Isotropic =    29.8306   Anisotropy =    12.2182

     76  Rh   Isotropic =  -273.4934   Anisotropy =   325.3363

     77  C    Isotropic =    75.5027   Anisotropy =   127.5862

     78  C    Isotropic =    70.5906   Anisotropy =   128.2961

     79  C    Isotropic =    75.6492   Anisotropy =   127.4780

     80  C    Isotropic =    70.6786   Anisotropy =   128.0920

     81  H    Isotropic =    26.9299   Anisotropy =     9.5837

     82  C    Isotropic =   154.2079   Anisotropy =    24.8001

     83  H    Isotropic =    26.2597   Anisotropy =     3.6142

     84  C    Isotropic =   148.1682   Anisotropy =    30.2465

     85  C    Isotropic =   154.2016   Anisotropy =    24.7570

     86  H    Isotropic =    26.9866   Anisotropy =     9.7251

     87  H    Isotropic =    26.2791   Anisotropy =     3.5055

     88  C    Isotropic =   148.1936   Anisotropy =    30.3159

     89  H    Isotropic =    29.8806   Anisotropy =     9.1512

     90  H    Isotropic =    29.9616   Anisotropy =    11.5893

     91  H    Isotropic =    29.3097   Anisotropy =    12.1277

     92  H    Isotropic =    29.1658   Anisotropy =     7.2391

     93  H    Isotropic =    29.9775   Anisotropy =    11.5157

     94  H    Isotropic =    29.8847   Anisotropy =     9.1738

     95  H    Isotropic =    29.3087   Anisotropy =    12.1434

     96  H    Isotropic =    29.1580   Anisotropy =     7.3439

 The electronic state is 1-A.
 Alpha  occ. eigenvalues --  -77.32596 -77.32576 -19.27270 -19.27230 -19.27217
 Alpha  occ. eigenvalues --  -19.27204 -14.45724 -10.33535 -10.33509 -10.33496
 Alpha  occ. eigenvalues --  -10.33434 -10.30432 -10.29787 -10.29776 -10.29571
 Alpha  occ. eigenvalues --  -10.29568 -10.28662 -10.28628 -10.28551 -10.28512
 Alpha  occ. eigenvalues --  -10.27950 -10.27945 -10.27808 -10.27778 -10.27778
 Alpha  occ. eigenvalues --  -10.27775 -10.27676 -10.27645 -10.27231 -10.27198
 Alpha  occ. eigenvalues --  -10.27057 -10.27035 -10.27022 -10.27008 -10.26989
 Alpha  occ. eigenvalues --  -10.26954 -10.26839 -10.26791 -10.26758 -10.26720
 Alpha  occ. eigenvalues --  -10.25677 -10.25646 -10.25523 -10.25499 -10.25494
 Alpha  occ. eigenvalues --  -10.25475 -10.25457 -10.25428 -10.25376 -10.25374
 Alpha  occ. eigenvalues --  -10.25354 -10.25344 -10.25311 -10.25289 -10.25194
 Alpha  occ. eigenvalues --  -10.25173  -6.77403  -6.77384  -4.93793  -4.93773
 Alpha  occ. eigenvalues --   -4.93748  -4.93727  -4.93262  -4.93243  -3.33100
 Alpha  occ. eigenvalues --   -2.10263  -2.09397  -2.06268  -1.19439  -1.19111
 Alpha  occ. eigenvalues --   -1.15001  -1.14953  -1.03448  -0.97747  -0.97578
 Alpha  occ. eigenvalues --   -0.96118  -0.96085  -0.95028  -0.91973  -0.91807
 Alpha  occ. eigenvalues --   -0.90947  -0.90911  -0.89844  -0.88911  -0.88875
 Alpha  occ. eigenvalues --   -0.88509  -0.84940  -0.84910  -0.84575  -0.84239
 Alpha  occ. eigenvalues --   -0.82932  -0.82897  -0.82365  -0.82198  -0.81756
 Alpha  occ. eigenvalues --   -0.80869  -0.80047  -0.80000  -0.78365  -0.77874
 Alpha  occ. eigenvalues --   -0.75000  -0.72618  -0.72102  -0.72004  -0.71661
 Alpha  occ. eigenvalues --   -0.71093  -0.70666  -0.70568  -0.69874  -0.69728
 Alpha  occ. eigenvalues --   -0.68586  -0.67547  -0.66559  -0.66495  -0.66274
 Alpha  occ. eigenvalues --   -0.64614  -0.64114  -0.62946  -0.62536  -0.61858
 Alpha  occ. eigenvalues --   -0.61601  -0.61545  -0.61058  -0.61009  -0.60395
 Alpha  occ. eigenvalues --   -0.59815  -0.59474  -0.58278  -0.58251  -0.57793
 Alpha  occ. eigenvalues --   -0.57143  -0.57033  -0.56666  -0.56210  -0.56055
 Alpha  occ. eigenvalues --   -0.54982  -0.54890  -0.54330  -0.54200  -0.54098
 Alpha  occ. eigenvalues --   -0.53865  -0.53839  -0.53399  -0.53065  -0.53056
 Alpha  occ. eigenvalues --   -0.52675  -0.52638  -0.52294  -0.52029  -0.51444
 Alpha  occ. eigenvalues --   -0.51302  -0.51250  -0.51061  -0.50759  -0.50716
 Alpha  occ. eigenvalues --   -0.50659  -0.50453  -0.50134  -0.48969  -0.48648
 Alpha  occ. eigenvalues --   -0.48341  -0.48268  -0.48098  -0.48051  -0.48000
 Alpha  occ. eigenvalues --   -0.47937  -0.47262  -0.47091  -0.46534  -0.46485
 Alpha  occ. eigenvalues --   -0.46205  -0.45219  -0.45148  -0.45082  -0.43996
 Alpha  occ. eigenvalues --   -0.43859  -0.43613  -0.43579  -0.43493  -0.43454
 Alpha  occ. eigenvalues --   -0.43058  -0.42850  -0.42367  -0.42298  -0.41644
 Alpha  occ. eigenvalues --   -0.41508  -0.41126  -0.41081  -0.40967  -0.40936
 Alpha  occ. eigenvalues --   -0.39701  -0.38471  -0.38452  -0.38252  -0.37851
 Alpha  occ. eigenvalues --   -0.36960  -0.36768  -0.36594  -0.35752  -0.35275
 Alpha  occ. eigenvalues --   -0.33473  -0.33411  -0.33127  -0.32976  -0.31975
 Alpha  occ. eigenvalues --   -0.30954  -0.30926  -0.30104  -0.30057
 Alpha virt. eigenvalues --   -0.17000  -0.15256  -0.14377  -0.14280  -0.12816
 Alpha virt. eigenvalues --   -0.12714  -0.10884  -0.10632  -0.10431  -0.10068
 Alpha virt. eigenvalues --   -0.09893  -0.09186  -0.07256  -0.07192  -0.06759

 Mulliken charges:
               1
     1  P    0.794713
     2  P    0.812198
     3  O   -0.311278
     4  O   -0.312305
     5  O   -0.310893
     6  O   -0.313287
     7  N   -0.441264
     8  C    0.109849
     9  C   -0.162480
    10  H    0.133144
    11  C   -0.164015
    12  H    0.121045
    13  C    0.031314
    14  C   -0.134889
    15  H    0.117949
    16  C   -0.085845
    17  H    0.124484
    18  C   -0.070087
    19  H    0.122953
    20  C   -0.119523
    21  H    0.154813
    22  C    0.005081
    23  C    0.033930
    24  C    0.003725
    25  C    0.016638
    26  C   -0.112566
    27  H    0.155332
    28  C   -0.070940
    29  H    0.123817
    30  C   -0.084169
    31  H    0.124806
    32  C   -0.138328
    33  H    0.116979
    34  C    0.018995
    35  C   -0.131510
    36  H    0.118562
    37  C   -0.222775
    38  H    0.136676
    39  C    0.101090
    40  C    0.106522
    41  C   -0.177888
    42  H    0.132473
    43  C   -0.140862
    44  H    0.121801
    45  C    0.031223
    46  C   -0.139212
    47  H    0.117659
    48  C   -0.083458
    49  H    0.124569
    50  C   -0.072637
    51  H    0.122980
    52  C   -0.114737
    53  H    0.155101
    54  C   -0.003715
    55  C    0.031460
    56  C   -0.008675
    57  C    0.025309
    58  C   -0.110815
    59  H    0.155299
    60  C   -0.071803
    61  H    0.123918
    62  C   -0.083616
    63  H    0.124904
    64  C   -0.139603
    65  H    0.116823
    66  C    0.017955
    67  C   -0.127985
    68  H    0.118833
    69  C   -0.224581
    70  H    0.135296
    71  C    0.101030
    72  C   -0.226620
    73  H    0.166552
    74  H    0.163967
    75  H    0.172721
    76  Rh  -0.695256
    77  C   -0.034003
    78  C   -0.092619
    79  C   -0.038159
    80  C   -0.090922
    81  H    0.218778
    82  C   -0.346298
    83  H    0.197644
    84  C   -0.220069
    85  C   -0.347563
    86  H    0.223471
    87  H    0.197903
    88  C   -0.220764
    89  H    0.167141
    90  H    0.171823
    91  H    0.176663
    92  H    0.142181
    93  H    0.171602
    94  H    0.167293
    95  H    0.176627
    96  H    0.142400
 Sum of Mulliken charges =   1.00000

 Dipole moment (field-independent basis, Debye):
    X=              0.0687    Y=             -3.0421    Z=             -0.0142  Tot=              3.0429
 Quadrupole moment (field-independent basis, Debye-Ang):
   XX=           -232.1671   YY=           -277.0154   ZZ=           -326.4136
   XY=              0.3914   XZ=             -5.7240   YZ=              0.0246

 Summary of Natural Population Analysis:

                                       Natural Population
                Natural  -----------------------------------------------
    Atom  No    Charge         Core      Valence    Rydberg      Total
 -----------------------------------------------------------------------
      P    1    1.87370      9.99546     3.03174    0.09910    13.12630
      P    2    1.87682      9.99545     3.02870    0.09902    13.12318
      O    3   -0.74599      1.99979     6.73277    0.01344     8.74599
      O    4   -0.73909      1.99979     6.72531    0.01398     8.73909
      O    5   -0.74614      1.99979     6.73288    0.01347     8.74614
      O    6   -0.73825      1.99979     6.72468    0.01378     8.73825
      N    7   -1.03474      1.99963     6.01198    0.02313     8.03474
      C    8    0.25840      1.99860     3.71965    0.02335     5.74160
      C    9   -0.24487      1.99906     4.23011    0.01570     6.24487
      H   10    0.22740      0.00000     0.77097    0.00163     0.77260
      C   11   -0.14657      1.99914     4.13358    0.01384     6.14657
      H   12    0.21876      0.00000     0.77986    0.00138     0.78124
      C   13   -0.06523      1.99910     4.05018    0.01595     6.06523
      C   14   -0.17002      1.99914     4.15689    0.01398     6.17002
      H   15    0.21405      0.00000     0.78449    0.00145     0.78595
      C   16   -0.19525      1.99920     4.18124    0.01481     6.19525
      H   17    0.21979      0.00000     0.77903    0.00118     0.78021
      C   18   -0.18445      1.99920     4.17045    0.01480     6.18445
      H   19    0.21861      0.00000     0.78020    0.00119     0.78139
      C   20   -0.18946      1.99913     4.17620    0.01412     6.18946
      H   21    0.22102      0.00000     0.77723    0.00175     0.77898
      C   22   -0.03191      1.99904     4.01624    0.01664     6.03191
      C   23   -0.06849      1.99887     4.04977    0.01985     6.06849
      C   24   -0.06040      1.99887     4.04224    0.01929     6.06040
      C   25   -0.03252      1.99904     4.01680    0.01667     6.03252
      C   26   -0.18782      1.99913     4.17458    0.01411     6.18782
      H   27    0.22204      0.00000     0.77622    0.00174     0.77796
      C   28   -0.18436      1.99920     4.17037    0.01480     6.18436
      H   29    0.21896      0.00000     0.77985    0.00119     0.78104
      C   30   -0.19445      1.99920     4.18045    0.01480     6.19445
      H   31    0.21990      0.00000     0.77892    0.00118     0.78010
      C   32   -0.17081      1.99914     4.15768    0.01398     6.17081
      H   33    0.21371      0.00000     0.78483    0.00145     0.78629
      C   34   -0.06433      1.99910     4.04927    0.01596     6.06433
      C   35   -0.14854      1.99914     4.13547    0.01392     6.14854
      H   36    0.21795      0.00000     0.78066    0.00138     0.78205
      C   37   -0.24900      1.99906     4.23471    0.01523     6.24900
      H   38    0.22835      0.00000     0.77013    0.00152     0.77165
      C   39    0.25205      1.99861     3.72646    0.02287     5.74795
      C   40    0.25923      1.99860     3.71875    0.02342     5.74077
      C   41   -0.24927      1.99906     4.23437    0.01584     6.24927
      H   42    0.22909      0.00000     0.76936    0.00155     0.77091
      C   43   -0.14637      1.99914     4.13336    0.01386     6.14637
      H   44    0.21922      0.00000     0.77940    0.00138     0.78078
      C   45   -0.06560      1.99910     4.05054    0.01596     6.06560
      C   46   -0.16979      1.99914     4.15667    0.01398     6.16979
      H   47    0.21414      0.00000     0.78441    0.00145     0.78586
      C   48   -0.19517      1.99920     4.18117    0.01480     6.19517
      H   49    0.21985      0.00000     0.77896    0.00118     0.78015
      C   50   -0.18411      1.99920     4.17012    0.01480     6.18411
      H   51    0.21862      0.00000     0.78019    0.00119     0.78138
      C   52   -0.18924      1.99913     4.17599    0.01412     6.18924
      H   53    0.22099      0.00000     0.77725    0.00175     0.77901
      C   54   -0.03084      1.99904     4.01524    0.01656     6.03084
      C   55   -0.06803      1.99887     4.04941    0.01975     6.06803
      C   56   -0.06044      1.99887     4.04229    0.01928     6.06044
      C   57   -0.03246      1.99904     4.01676    0.01666     6.03246
      C   58   -0.18781      1.99913     4.17457    0.01411     6.18781
      H   59    0.22206      0.00000     0.77620    0.00174     0.77794
      C   60   -0.18430      1.99920     4.17030    0.01480     6.18430
      H   61    0.21901      0.00000     0.77980    0.00119     0.78099
      C   62   -0.19442      1.99920     4.18042    0.01480     6.19442
      H   63    0.21995      0.00000     0.77887    0.00118     0.78005
      C   64   -0.17085      1.99914     4.15773    0.01398     6.17085
      H   65    0.21371      0.00000     0.78484    0.00145     0.78629
      C   66   -0.06448      1.99910     4.04941    0.01597     6.06448
      C   67   -0.14873      1.99914     4.13567    0.01392     6.14873
      H   68    0.21795      0.00000     0.78066    0.00139     0.78205
      C   69   -0.24923      1.99906     4.23492    0.01524     6.24923
      H   70    0.22844      0.00000     0.77003    0.00153     0.77156
      C   71    0.25172      1.99861     3.72674    0.02292     5.74828
      C   72   -0.41423      1.99935     4.39692    0.01795     6.41423
      H   73    0.22655      0.00000     0.77176    0.00170     0.77345
      H   74    0.21300      0.00000     0.78509    0.00191     0.78700
      H   75    0.22067      0.00000     0.77750    0.00183     0.77933
     Rh   76   -0.56015     35.98337     9.54751    0.02927    45.56015
      C   77   -0.16429      1.99904     4.14511    0.02013     6.16429
      C   78   -0.14271      1.99905     4.12308    0.02058     6.14271
      C   79   -0.16386      1.99904     4.14469    0.02013     6.16386
      C   80   -0.14326      1.99905     4.12362    0.02058     6.14326
      H   81    0.23349      0.00000     0.76404    0.00247     0.76651
      C   82   -0.42382      1.99936     4.41278    0.01168     6.42382
      H   83    0.23885      0.00000     0.75950    0.00165     0.76115
      C   84   -0.42582      1.99936     4.41417    0.01230     6.42582
      C   85   -0.42386      1.99936     4.41281    0.01168     6.42386
      H   86    0.23385      0.00000     0.76370    0.00245     0.76615
      H   87    0.23896      0.00000     0.75938    0.00165     0.76104
      C   88   -0.42574      1.99936     4.41410    0.01229     6.42574
      H   89    0.21222      0.00000     0.78571    0.00207     0.78778
      H   90    0.23111      0.00000     0.76744    0.00146     0.76889
      H   91    0.23787      0.00000     0.76029    0.00184     0.76213
      H   92    0.22417      0.00000     0.77434    0.00149     0.77583
      H   93    0.23103      0.00000     0.76752    0.00146     0.76897
      H   94    0.21224      0.00000     0.78569    0.00207     0.78776
      H   95    0.23785      0.00000     0.76031    0.00184     0.76215
      H   96    0.22423      0.00000     0.77428    0.00149     0.77577
 =======================================================================
   * Total *    1.00000    163.92804   280.90858    1.16338   446.00000

 Normal termination of Gaussian 16 at Wed Nov  6 02:02:59 2024.
