 Gaussian 16, Revision B.01,
 Gaussian 16:  ES64L-G16RevB.01 20-Dec-2017

 ------------------------------------------
 # nmr=giao b3lyp/genecp pop=nbo scfcyc=200
 ------------------------------------------

 ------------
 Ligand 6 SPE
 ------------
 Symbolic Z-matrix:
 Charge =  1 Multiplicity = 1

                         Standard orientation:
 ---------------------------------------------------------------------
 Center     Atomic      Atomic             Coordinates (Angstroms)
 Number     Number       Type             X           Y           Z
 ---------------------------------------------------------------------
      1         45           0       -1.188190   -0.641149    0.038899
      2         15           0       -1.485748    1.641191   -0.531241
      3         15           0        0.695881    0.545250    0.864599
      4          6           0        0.115772    2.220240    0.250989
      5          1           0        0.788072    2.672950   -0.477161
      6          1           0       -0.027168    2.929120    1.065969
      7          6           0       -0.463471   -2.798020   -0.049751
      8          1           0        0.599229   -2.689360   -0.232701
      9          6           0       -1.222981   -3.575589   -1.108581
     10          1           0       -1.846562   -4.331299   -0.632001
     11          1           0       -0.501991   -4.123670   -1.717331
     12          6           0        0.748581    0.735070    2.705109
     13          1           0       -0.253029    0.979360    3.057159
     14          1           0        1.438062    1.523369    3.007109
     15          1           0        1.050481   -0.202830    3.169319
     16          6           0       -3.431451   -2.710298    0.823989
     17          1           0       -4.350181   -2.596527    1.401679
     18          1           0       -3.564421   -3.612058    0.227139
     19          6           0       -3.289210   -1.508308   -0.091541
     20          1           0       -3.919960   -0.663658    0.160079
     21          6           0       -0.904811   -2.537269    1.230599
     22          1           0       -0.153280   -2.285530    1.971729
     23          6           0       -2.071561   -2.685119   -2.040811
     24          1           0       -1.433820   -2.286799   -2.833071
     25          1           0       -2.830081   -3.295088   -2.547121
     26          6           0       -2.254731   -2.882569    1.807629
     27          1           0       -2.418310   -2.241899    2.676989
     28          1           0       -2.241081   -3.909679    2.193159
     29          6           0       -2.732820   -1.516718   -1.353731
     30          1           0       -2.999520   -0.701118   -2.018001
     31          6           0        2.486791    0.315939    0.302839
     32          6           0        3.053330   -0.984191    0.924399
     33          6           0        3.380032    1.503488    0.731529
     34          6           0        2.518671    0.190919   -1.238711
     35          1           0        3.047340   -0.920101    2.015979
     36          1           0        2.434190   -1.842181    0.646919
     37          6           0        4.499110   -1.210512    0.436459
     38          1           0        3.381312    1.611228    1.819319
     39          1           0        3.001622    2.441159    0.313939
     40          6           0        4.826262    1.271148    0.242899
     41          6           0        3.965641   -0.038112   -1.718751
     42          1           0        2.125831    1.101379   -1.702821
     43          1           0        1.879230   -0.635771   -1.561951
     44          6           0        5.375191   -0.022473    0.867519
     45          1           0        4.877950   -2.132022    0.885659
     46          6           0        4.511330   -1.334132   -1.096181
     47          1           0        5.438612    2.121277    0.554019
     48          6           0        4.840081    1.152178   -1.290011
     49          1           0        3.964071   -0.123142   -2.808511
     50          1           0        6.408021   -0.183563    0.547239
     51          1           0        5.392201    0.060307    1.958739
     52          1           0        5.529650   -1.518923   -1.448461
     53          1           0        3.907730   -2.190742   -1.413181
     54          1           0        5.864541    1.011887   -1.645051
     55          1           0        4.472122    2.076958   -1.746041
     56          6           0       -1.280328    2.036021   -2.327441
     57          1           0       -2.158088    1.712321   -2.885261
     58          1           0       -1.124208    3.102611   -2.489221
     59          1           0       -0.418758    1.486440   -2.705011
     60          6           0       -2.876188    2.772882    0.100169
     61          6           0       -3.050238    2.518332    1.605659
     62          1           0       -3.265078    1.469852    1.818959
     63          1           0       -2.166538    2.809241    2.177459
     64          1           0       -3.884888    3.115742    1.980209
     65          6           0       -2.535227    4.250142   -0.147331
     66          1           0       -2.451647    4.484582   -1.209201
     67          1           0       -3.335757    4.874512    0.257939
     68          1           0       -1.609717    4.553071    0.345559
     69          6           0       -4.171968    2.407322   -0.643391
     70          1           0       -4.992578    3.014893   -0.254351
     71          1           0       -4.103828    2.605572   -1.714091
     72          1           0       -4.448098    1.361013   -0.503931
 ---------------------------------------------------------------------

 SCF Done:  E(RB3LYP) =  -1772.73207443     A.U. after   15 cycles

      1  Rh   Isotropic =  -319.0706   Anisotropy =   367.2614

      2  P    Isotropic =   318.7340   Anisotropy =   118.7406

      3  P    Isotropic =   325.9934   Anisotropy =   118.6363

      4  C    Isotropic =   144.0458   Anisotropy =    50.0586

      5  H    Isotropic =    29.1198   Anisotropy =     6.1569

      6  H    Isotropic =    29.3261   Anisotropy =     6.2372

      7  C    Isotropic =    79.0516   Anisotropy =   121.8970

      8  H    Isotropic =    26.7332   Anisotropy =     6.5407

      9  C    Isotropic =   153.9819   Anisotropy =    25.1095

     10  H    Isotropic =    29.8227   Anisotropy =     9.4057

     11  H    Isotropic =    29.8507   Anisotropy =    11.0858

     12  C    Isotropic =   174.6638   Anisotropy =    22.0184

     13  H    Isotropic =    30.5349   Anisotropy =     7.8289

     14  H    Isotropic =    30.4417   Anisotropy =    10.2345

     15  H    Isotropic =    30.6404   Anisotropy =     8.4509

     16  C    Isotropic =   153.9823   Anisotropy =    25.5573

     17  H    Isotropic =    29.8595   Anisotropy =    11.6332

     18  H    Isotropic =    29.8247   Anisotropy =     9.3942

     19  C    Isotropic =    79.0780   Anisotropy =   121.7564

     20  H    Isotropic =    26.8583   Anisotropy =     6.5030

     21  C    Isotropic =    78.4969   Anisotropy =   114.8089

     22  H    Isotropic =    26.6813   Anisotropy =     3.8734

     23  C    Isotropic =   147.9891   Anisotropy =    29.3701

     24  H    Isotropic =    29.1643   Anisotropy =     7.2974

     25  H    Isotropic =    29.1158   Anisotropy =    12.5904

     26  C    Isotropic =   147.9770   Anisotropy =    30.0439

     27  H    Isotropic =    29.1706   Anisotropy =     7.5840

     28  H    Isotropic =    29.1213   Anisotropy =    12.5196

     29  C    Isotropic =    78.6216   Anisotropy =   115.0149

     30  H    Isotropic =    26.7247   Anisotropy =     4.3383

     31  C    Isotropic =   136.8079   Anisotropy =    35.6285

     32  C    Isotropic =   143.3841   Anisotropy =    10.3027

     33  C    Isotropic =   145.6286   Anisotropy =     7.1585

     34  C    Isotropic =   140.6136   Anisotropy =    14.2829

     35  H    Isotropic =    30.3231   Anisotropy =     4.9958

     36  H    Isotropic =    30.6567   Anisotropy =     7.6970

     37  C    Isotropic =   150.7774   Anisotropy =     6.5696

     38  H    Isotropic =    30.2954   Anisotropy =     5.7937

     39  H    Isotropic =    30.5196   Anisotropy =     4.7718

     40  C    Isotropic =   150.0123   Anisotropy =     7.5516

     41  C    Isotropic =   150.3727   Anisotropy =     6.5734

     42  H    Isotropic =    30.2153   Anisotropy =     6.1257

     43  H    Isotropic =    29.9363   Anisotropy =     8.0505

     44  C    Isotropic =   145.1076   Anisotropy =     5.0614

     45  H    Isotropic =    29.9516   Anisotropy =    10.7325

     46  C    Isotropic =   144.9828   Anisotropy =     6.4977

     47  H    Isotropic =    29.8816   Anisotropy =    11.3312

     48  C    Isotropic =   144.6438   Anisotropy =     5.2715

     49  H    Isotropic =    29.8509   Anisotropy =    10.1657

     50  H    Isotropic =    29.9922   Anisotropy =    10.4262

     51  H    Isotropic =    30.1992   Anisotropy =     9.2147

     52  H    Isotropic =    29.9443   Anisotropy =    10.1253

     53  H    Isotropic =    30.2074   Anisotropy =     7.6662

     54  H    Isotropic =    29.9551   Anisotropy =    10.2948

     55  H    Isotropic =    30.2205   Anisotropy =     8.3850

     56  C    Isotropic =   172.6799   Anisotropy =    24.0499

     57  H    Isotropic =    30.6006   Anisotropy =     8.8585

     58  H    Isotropic =    30.4546   Anisotropy =    10.3405

     59  H    Isotropic =    30.3881   Anisotropy =     7.4472

     60  C    Isotropic =   141.4106   Anisotropy =    24.2858

     61  C    Isotropic =   156.2620   Anisotropy =    39.7673

     62  H    Isotropic =    30.4681   Anisotropy =     6.6598

     63  H    Isotropic =    30.7849   Anisotropy =     6.2600

     64  H    Isotropic =    30.7044   Anisotropy =    10.7117

     65  C    Isotropic =   160.8272   Anisotropy =    39.7753

     66  H    Isotropic =    30.8343   Anisotropy =     9.0264

     67  H    Isotropic =    30.8115   Anisotropy =    11.2482

     68  H    Isotropic =    31.0577   Anisotropy =     7.6648

     69  C    Isotropic =   158.9371   Anisotropy =    40.3912

     70  H    Isotropic =    30.7913   Anisotropy =    11.0135

     71  H    Isotropic =    30.9177   Anisotropy =     8.3143

     72  H    Isotropic =    31.2391   Anisotropy =     6.7638

 The electronic state is 1-A.
 Alpha  occ. eigenvalues --  -77.23577 -77.23400 -10.31572 -10.30619 -10.30568
 Alpha  occ. eigenvalues --  -10.29614 -10.29602 -10.29478 -10.29456 -10.29308
 Alpha  occ. eigenvalues --  -10.29173 -10.27998 -10.27985 -10.27767 -10.27759
 Alpha  occ. eigenvalues --  -10.27404 -10.27400 -10.27325 -10.27313 -10.27258
 Alpha  occ. eigenvalues --  -10.27191 -10.26539 -10.26496 -10.26459 -10.25176
 Alpha  occ. eigenvalues --  -10.25132 -10.25047  -6.69623  -6.69442  -4.85920
 Alpha  occ. eigenvalues --   -4.85814  -4.85744  -4.85628  -4.85516  -4.85339
 Alpha  occ. eigenvalues --   -3.31907  -2.08797  -2.08145  -2.05342  -0.97497
 Alpha  occ. eigenvalues --   -0.94999  -0.93716  -0.89935  -0.89714  -0.88513
 Alpha  occ. eigenvalues --   -0.86987  -0.86791  -0.86724  -0.84493  -0.81840
 Alpha  occ. eigenvalues --   -0.80878  -0.80108  -0.80036  -0.78345  -0.76872
 Alpha  occ. eigenvalues --   -0.76825  -0.72061  -0.71064  -0.70629  -0.68216
 Alpha  occ. eigenvalues --   -0.68173  -0.66439  -0.65380  -0.63929  -0.63092
 Alpha  occ. eigenvalues --   -0.61976  -0.60697  -0.58720  -0.57772  -0.56954
 Alpha  occ. eigenvalues --   -0.56704  -0.55823  -0.55783  -0.55586  -0.55407
 Alpha  occ. eigenvalues --   -0.55065  -0.54695  -0.54123  -0.53950  -0.53480
 Alpha  occ. eigenvalues --   -0.53150  -0.53129  -0.52990  -0.52510  -0.51884
 Alpha  occ. eigenvalues --   -0.51172  -0.50950  -0.50505  -0.49773  -0.49724
 Alpha  occ. eigenvalues --   -0.49174  -0.49023  -0.48699  -0.48331  -0.48053
 Alpha  occ. eigenvalues --   -0.47100  -0.46876  -0.46505  -0.45742  -0.45466
 Alpha  occ. eigenvalues --   -0.44532  -0.43930  -0.43793  -0.43684  -0.43313
 Alpha  occ. eigenvalues --   -0.42924  -0.42807  -0.42713  -0.42566  -0.42073
 Alpha  occ. eigenvalues --   -0.41345  -0.38725  -0.38136  -0.38103  -0.36864
 Alpha  occ. eigenvalues --   -0.36647  -0.35445  -0.34969  -0.34130  -0.31125
 Alpha virt. eigenvalues --   -0.16642  -0.14305  -0.09911  -0.09045  -0.08646
 Alpha virt. eigenvalues --   -0.08373  -0.07642  -0.07136  -0.06768  -0.05603
 Alpha virt. eigenvalues --   -0.05359  -0.04798  -0.04558  -0.04199  -0.04044

 Mulliken charges:
               1
     1  Rh  -0.472634
     2  P    0.389816
     3  P    0.416686
     4  C   -0.606761
     5  H    0.211063
     6  H    0.206244
     7  C   -0.025669
     8  H    0.175180
     9  C   -0.344225
    10  H    0.169485
    11  H    0.169625
    12  C   -0.460020
    13  H    0.166430
    14  H    0.169902
    15  H    0.163800
    16  C   -0.343871
    17  H    0.170617
    18  H    0.169279
    19  C   -0.022841
    20  H    0.166985
    21  C   -0.084881
    22  H    0.171069
    23  C   -0.225248
    24  H    0.130449
    25  H    0.173675
    26  C   -0.226814
    27  H    0.131485
    28  H    0.173559
    29  C   -0.081958
    30  H    0.170345
    31  C   -0.004403
    32  C   -0.438294
    33  C   -0.383828
    34  C   -0.404824
    35  H    0.159038
    36  H    0.158107
    37  C    0.019368
    38  H    0.153980
    39  H    0.145382
    40  C    0.028497
    41  C    0.031916
    42  H    0.135069
    43  H    0.161863
    44  C   -0.381022
    45  H    0.190274
    46  C   -0.377643
    47  H    0.190538
    48  C   -0.382628
    49  H    0.187287
    50  H    0.157352
    51  H    0.141266
    52  H    0.158679
    53  H    0.134400
    54  H    0.158166
    55  H    0.136131
    56  C   -0.474769
    57  H    0.164005
    58  H    0.170094
    59  H    0.167463
    60  C   -0.041964
    61  C   -0.385704
    62  H    0.141625
    63  H    0.127922
    64  H    0.160729
    65  C   -0.371081
    66  H    0.142963
    67  H    0.154177
    68  H    0.133995
    69  C   -0.414664
    70  H    0.157489
    71  H    0.148786
    72  H    0.143491
 Sum of Mulliken charges =   1.00000

 Dipole moment (field-independent basis, Debye):
    X=             -1.9326    Y=              1.7040    Z=              0.2562  Tot=              2.5892
 Quadrupole moment (field-independent basis, Debye-Ang):
   XX=           -159.5933   YY=           -170.5564   ZZ=           -186.5281
   XY=             -1.8535   XZ=              1.9240   YZ=             -0.3551

 Summary of Natural Population Analysis:

                                       Natural Population
                Natural  -----------------------------------------------
    Atom  No    Charge         Core      Valence    Rydberg      Total
 -----------------------------------------------------------------------
     Rh    1   -0.39302     35.98578     9.38182    0.02542    45.39302
      P    2    1.10690      9.99680     3.84874    0.04755    13.89310
      P    3    1.13187      9.99676     3.82349    0.04789    13.86813
      C    4   -1.00748      1.99943     4.98954    0.01851     7.00748
      H    5    0.25721      0.00000     0.74048    0.00230     0.74279
      H    6    0.25631      0.00000     0.74144    0.00226     0.74369
      C    7   -0.17076      1.99907     4.15181    0.01988     6.17076
      H    8    0.22134      0.00000     0.77627    0.00239     0.77866
      C    9   -0.42391      1.99936     4.41254    0.01201     6.42391
      H   10    0.21554      0.00000     0.78256    0.00190     0.78446
      H   11    0.22890      0.00000     0.76968    0.00142     0.77110
      C   12   -0.90370      1.99941     4.89373    0.01055     6.90370
      H   13    0.24318      0.00000     0.75545    0.00137     0.75682
      H   14    0.23618      0.00000     0.76181    0.00201     0.76382
      H   15    0.24088      0.00000     0.75786    0.00126     0.75912
      C   16   -0.42403      1.99936     4.41264    0.01203     6.42403
      H   17    0.22918      0.00000     0.76940    0.00142     0.77082
      H   18    0.21557      0.00000     0.78253    0.00190     0.78443
      C   19   -0.17096      1.99907     4.15202    0.01987     6.17096
      H   20    0.22013      0.00000     0.77759    0.00228     0.77987
      C   21   -0.16331      1.99908     4.14452    0.01971     6.16331
      H   22    0.22127      0.00000     0.77685    0.00188     0.77873
      C   23   -0.41790      1.99935     4.40581    0.01275     6.41790
      H   24    0.21639      0.00000     0.78207    0.00154     0.78361
      H   25    0.23425      0.00000     0.76394    0.00181     0.76575
      C   26   -0.41822      1.99935     4.40610    0.01278     6.41822
      H   27    0.21651      0.00000     0.78195    0.00154     0.78349
      H   28    0.23426      0.00000     0.76393    0.00181     0.76574
      C   29   -0.16380      1.99908     4.14491    0.01980     6.16380
      H   30    0.22063      0.00000     0.77747    0.00190     0.77937
      C   31   -0.25447      1.99937     4.23380    0.02130     6.25447
      C   32   -0.40707      1.99929     4.39613    0.01165     6.40707
      C   33   -0.40952      1.99929     4.39767    0.01256     6.40952
      C   34   -0.40577      1.99930     4.39492    0.01155     6.40577
      H   35    0.20286      0.00000     0.79478    0.00237     0.79714
      H   36    0.20143      0.00000     0.79623    0.00234     0.79857
      C   37   -0.20636      1.99938     4.19385    0.01312     6.20636
      H   38    0.20216      0.00000     0.79526    0.00258     0.79784
      H   39    0.20008      0.00000     0.79741    0.00251     0.79992
      C   40   -0.20526      1.99939     4.19283    0.01305     6.20526
      C   41   -0.20757      1.99938     4.19511    0.01308     6.20757
      H   42    0.19425      0.00000     0.80305    0.00270     0.80575
      H   43    0.21099      0.00000     0.78689    0.00212     0.78901
      C   44   -0.39263      1.99936     4.38308    0.01019     6.39263
      H   45    0.21899      0.00000     0.77928    0.00173     0.78101
      C   46   -0.39174      1.99936     4.38221    0.01017     6.39174
      H   47    0.21937      0.00000     0.77890    0.00173     0.78063
      C   48   -0.39230      1.99936     4.38273    0.01021     6.39230
      H   49    0.21717      0.00000     0.78110    0.00173     0.78283
      H   50    0.21347      0.00000     0.78480    0.00174     0.78653
      H   51    0.20346      0.00000     0.79491    0.00163     0.79654
      H   52    0.21357      0.00000     0.78469    0.00174     0.78643
      H   53    0.20035      0.00000     0.79802    0.00163     0.79965
      H   54    0.21361      0.00000     0.78465    0.00174     0.78639
      H   55    0.20096      0.00000     0.79739    0.00165     0.79904
      C   56   -0.90502      1.99942     4.89522    0.01038     6.90502
      H   57    0.24072      0.00000     0.75798    0.00129     0.75928
      H   58    0.23581      0.00000     0.76204    0.00214     0.76419
      H   59    0.24440      0.00000     0.75429    0.00131     0.75560
      C   60   -0.26405      1.99945     4.24828    0.01632     6.26405
      C   61   -0.60221      1.99936     4.59515    0.00770     6.60221
      H   62    0.21712      0.00000     0.78145    0.00142     0.78288
      H   63    0.20239      0.00000     0.79593    0.00168     0.79761
      H   64    0.22453      0.00000     0.77373    0.00174     0.77547
      C   65   -0.60684      1.99936     4.59878    0.00870     6.60684
      H   66    0.20994      0.00000     0.78844    0.00162     0.79006
      H   67    0.22637      0.00000     0.77195    0.00168     0.77363
      H   68    0.20711      0.00000     0.79124    0.00165     0.79289
      C   69   -0.60391      1.99936     4.59654    0.00801     6.60391
      H   70    0.22604      0.00000     0.77224    0.00172     0.77396
      H   71    0.21050      0.00000     0.78802    0.00148     0.78950
      H   72    0.20766      0.00000     0.79084    0.00150     0.79234
 =======================================================================
   * Total *    1.00000    105.96232   161.50077    0.53691   268.00000

 Normal termination of Gaussian 16 at Mon Jan  1 03:40:26 2001.
