 Gaussian 16, Revision B.01,
 Gaussian 16:  ES64L-G16RevB.01 20-Dec-2017

 ------------------------------------------
 # nmr=giao b3lyp/genecp pop=nbo scfcyc=200
 ------------------------------------------

 -------------
 Ligand 73 SPE
 -------------
 Symbolic Z-matrix:
 Charge =  1 Multiplicity = 1

                         Standard orientation:
 ---------------------------------------------------------------------
 Center     Atomic      Atomic             Coordinates (Angstroms)
 Number     Number       Type             X           Y           Z
 ---------------------------------------------------------------------
      1         15           0       -1.124100    0.914800    0.125329
      2         15           0        1.143790   -0.549590    0.210679
      3          7           0        0.611960    1.122580    0.259759
      4          6           0       -1.976510    1.454140    1.672739
      5          6           0       -2.576180    2.709650    1.817089
      6          1           0       -2.551760    3.424160    1.005539
      7          6           0       -3.209610    3.051330    3.006119
      8          1           0       -3.671220    4.025670    3.106319
      9          6           0       -3.250850    2.147080    4.063449
     10          1           0       -3.745420    2.416580    4.988179
     11          6           0       -2.662400    0.894000    3.926729
     12          1           0       -2.700110    0.183720    4.743129
     13          6           0       -2.035760    0.546760    2.735539
     14          1           0       -1.597500   -0.437260    2.624639
     15          6           0       -1.798370    1.996990   -1.198121
     16          6           0       -0.981660    2.650580   -2.121911
     17          1           0        0.094990    2.625300   -2.023311
     18          6           0       -1.554110    3.370220   -3.168151
     19          1           0       -0.911540    3.885380   -3.871221
     20          6           0       -2.935110    3.431020   -3.310451
     21          1           0       -3.374500    3.990660   -4.126551
     22          6           0       -3.753720    2.771880   -2.396751
     23          1           0       -4.830800    2.817370   -2.498301
     24          6           0       -3.191500    2.057160   -1.346981
     25          1           0       -3.844260    1.561350   -0.638441
     26          6           0        2.002560   -0.892340    1.801659
     27          6           0        3.280850   -0.393760    2.086409
     28          1           0        3.824240    0.182430    1.348849
     29          6           0        3.868170   -0.641010    3.321759
     30          1           0        4.854850   -0.248790    3.533869
     31          6           0        3.194420   -1.391670    4.280969
     32          1           0        3.658120   -1.586440    5.239819
     33          6           0        1.927630   -1.894680    4.004969
     34          1           0        1.403540   -2.484500    4.746439
     35          6           0        1.333930   -1.644060    2.772839
     36          1           0        0.347990   -2.037470    2.559669
     37          6           0        2.422680   -0.747520   -1.096401
     38          6           0        2.256360   -0.112050   -2.331311
     39          1           0        1.455460    0.599460   -2.474361
     40          6           0        3.131440   -0.375760   -3.377431
     41          1           0        3.002500    0.134620   -4.323581
     42          6           0        4.166190   -1.292390   -3.212341
     43          1           0        4.843820   -1.499720   -4.031031
     44          6           0        4.324210   -1.944940   -1.994501
     45          1           0        5.123980   -2.662510   -1.860751
     46          6           0        3.457800   -1.677010   -0.939551
     47          1           0        3.595770   -2.193310    0.001029
     48         45           0       -0.959070   -1.384180   -0.261331
     49          6           0       -3.137240   -2.115390   -0.258791
     50          6           0       -2.821590   -1.668760   -1.522551
     51          6           0       -0.456230   -3.374070   -1.278381
     52          6           0       -0.628750   -3.598010    0.070389
     53          1           0       -3.625450   -1.409980    0.405389
     54          6           0       -3.200520   -3.569340    0.171219
     55          1           0       -3.108400   -0.654800   -1.778831
     56          6           0       -2.400730   -2.506450   -2.704451
     57          6           0       -1.471520   -3.689400   -2.360241
     58          1           0        0.558560   -3.210950   -1.624391
     59          1           0        0.267760   -3.646830    0.680139
     60          6           0       -1.874820   -4.114100    0.748339
     61          1           0       -3.527050   -4.182920   -0.668111
     62          1           0       -3.974320   -3.670550    0.933999
     63          1           0       -3.291510   -2.875840   -3.227941
     64          1           0       -1.893090   -1.846520   -3.410771
     65          1           0       -0.932900   -3.978530   -3.264111
     66          1           0       -2.057100   -4.560990   -2.068401
     67          1           0       -1.883940   -5.210830    0.718479
     68          1           0       -1.812170   -3.849250    1.806409
     69          6           0        1.465230    2.236960    0.727919
     70          1           0        2.037760    1.878130    1.583789
     71          6           0        2.474170    2.667280   -0.346741
     72          6           0        0.700530    3.487580    1.169159
     73          1           0        1.419300    4.255290    1.459809
     74          1           0        0.088490    3.888700    0.362109
     75          1           0        0.073300    3.274390    2.030679
     76          6           0        4.744900    3.238950   -0.713571
     77          1           0        5.651830    3.244910   -0.116901
     78          1           0        4.852560    2.584520   -1.576901
     79          1           0        4.496360    4.244940   -1.047801
     80          8           0        2.196850    2.960520   -1.483041
     81          8           0        3.710350    2.735600    0.165889
 ---------------------------------------------------------------------

 SCF Done:  E(RB3LYP) =  -2394.27393617     A.U. after   16 cycles

      1  P    Isotropic =   219.9140   Anisotropy =    70.9651

      2  P    Isotropic =   217.7920   Anisotropy =    85.6651

      3  N    Isotropic =   140.2496   Anisotropy =    73.1700

      4  C    Isotropic =    41.0952   Anisotropy =   174.4805

      5  C    Isotropic =    45.1878   Anisotropy =   193.7121

      6  H    Isotropic =    24.4607   Anisotropy =    11.7269

      7  C    Isotropic =    49.7213   Anisotropy =   187.5000

      8  H    Isotropic =    24.3781   Anisotropy =     6.3286

      9  C    Isotropic =    44.5290   Anisotropy =   197.8229

     10  H    Isotropic =    24.0847   Anisotropy =     4.1168

     11  C    Isotropic =    49.6423   Anisotropy =   186.5004

     12  H    Isotropic =    24.1094   Anisotropy =     7.4591

     13  C    Isotropic =    41.2905   Anisotropy =   183.3491

     14  H    Isotropic =    23.0825   Anisotropy =    10.1181

     15  C    Isotropic =    44.0901   Anisotropy =   158.3508

     16  C    Isotropic =    45.3140   Anisotropy =   203.7261

     17  H    Isotropic =    21.3457   Anisotropy =     9.0779

     18  C    Isotropic =    47.7957   Anisotropy =   192.2328

     19  H    Isotropic =    23.6494   Anisotropy =     6.8863

     20  C    Isotropic =    45.9360   Anisotropy =   196.0187

     21  H    Isotropic =    23.8901   Anisotropy =     3.7072

     22  C    Isotropic =    49.9910   Anisotropy =   188.6336

     23  H    Isotropic =    24.1401   Anisotropy =     6.2989

     24  C    Isotropic =    49.9985   Anisotropy =   187.7080

     25  H    Isotropic =    24.8463   Anisotropy =    10.7731

     26  C    Isotropic =    48.2287   Anisotropy =   170.6585

     27  C    Isotropic =    43.8447   Anisotropy =   192.7243

     28  H    Isotropic =    24.0195   Anisotropy =     9.5088

     29  C    Isotropic =    49.7574   Anisotropy =   188.1222

     30  H    Isotropic =    24.0654   Anisotropy =     6.4306

     31  C    Isotropic =    44.0100   Anisotropy =   199.8617

     32  H    Isotropic =    23.8341   Anisotropy =     4.1383

     33  C    Isotropic =    48.5791   Anisotropy =   188.8194

     34  H    Isotropic =    23.8204   Anisotropy =     7.1533

     35  C    Isotropic =    42.0266   Anisotropy =   180.5993

     36  H    Isotropic =    23.2242   Anisotropy =    10.3286

     37  C    Isotropic =    45.8073   Anisotropy =   160.6595

     38  C    Isotropic =    44.1185   Anisotropy =   202.7437

     39  H    Isotropic =    23.3437   Anisotropy =     8.9348

     40  C    Isotropic =    49.2276   Anisotropy =   190.3839

     41  H    Isotropic =    23.9885   Anisotropy =     6.9820

     42  C    Isotropic =    46.0109   Anisotropy =   195.9461

     43  H    Isotropic =    24.1291   Anisotropy =     3.6843

     44  C    Isotropic =    49.9811   Anisotropy =   188.3455

     45  H    Isotropic =    24.3946   Anisotropy =     6.1343

     46  C    Isotropic =    48.5172   Anisotropy =   188.7495

     47  H    Isotropic =    25.0107   Anisotropy =    11.8876

     48  Rh   Isotropic =  -277.7029   Anisotropy =   308.4313

     49  C    Isotropic =    78.8665   Anisotropy =   121.8421

     50  C    Isotropic =    69.6083   Anisotropy =   128.3505

     51  C    Isotropic =    74.7723   Anisotropy =   127.8925

     52  C    Isotropic =    78.6000   Anisotropy =   113.8888

     53  H    Isotropic =    27.0357   Anisotropy =     6.2198

     54  C    Isotropic =   154.1460   Anisotropy =    25.3772

     55  H    Isotropic =    26.8082   Anisotropy =     5.6469

     56  C    Isotropic =   148.6909   Anisotropy =    28.3799

     57  C    Isotropic =   154.1518   Anisotropy =    24.8076

     58  H    Isotropic =    27.8065   Anisotropy =     5.6243

     59  H    Isotropic =    26.4696   Anisotropy =     4.7430

     60  C    Isotropic =   147.8021   Anisotropy =    29.2324

     61  H    Isotropic =    29.7603   Anisotropy =     9.8171

     62  H    Isotropic =    29.8374   Anisotropy =    11.5834

     63  H    Isotropic =    29.4568   Anisotropy =    12.5986

     64  H    Isotropic =    29.6085   Anisotropy =     6.6679

     65  H    Isotropic =    30.2470   Anisotropy =    10.8901

     66  H    Isotropic =    29.9186   Anisotropy =     9.9345

     67  H    Isotropic =    29.0645   Anisotropy =    12.8854

     68  H    Isotropic =    28.9350   Anisotropy =     8.3096

     69  C    Isotropic =   119.0840   Anisotropy =    44.5122

     70  H    Isotropic =    28.1169   Anisotropy =     5.3754

     71  C    Isotropic =    -0.2429   Anisotropy =   103.0589

     72  C    Isotropic =   165.7456   Anisotropy =    20.1299

     73  H    Isotropic =    31.1970   Anisotropy =    10.9711

     74  H    Isotropic =    30.7112   Anisotropy =     3.8034

     75  H    Isotropic =    31.2211   Anisotropy =     9.1829

     76  C    Isotropic =   128.9457   Anisotropy =    77.6405

     77  H    Isotropic =    28.5296   Anisotropy =     9.4710

     78  H    Isotropic =    28.7385   Anisotropy =     6.7640

     79  H    Isotropic =    28.3224   Anisotropy =    10.5580

     80  O    Isotropic =   -87.1503   Anisotropy =   601.9726

     81  O    Isotropic =   123.4809   Anisotropy =   140.9113

 The electronic state is 1-A.
 Alpha  occ. eigenvalues --  -77.25966 -77.25749 -19.27305 -19.21389 -14.44796
 Alpha  occ. eigenvalues --  -10.39901 -10.33043 -10.31315 -10.29613 -10.29335
 Alpha  occ. eigenvalues --  -10.29216 -10.29065 -10.28791 -10.28751 -10.28672
 Alpha  occ. eigenvalues --  -10.28666 -10.28622 -10.28534 -10.28335 -10.28165
 Alpha  occ. eigenvalues --  -10.28044 -10.27956 -10.27947 -10.27830 -10.27779
 Alpha  occ. eigenvalues --  -10.27767 -10.27695 -10.27575 -10.27484 -10.27461
 Alpha  occ. eigenvalues --  -10.27315 -10.27242 -10.27159 -10.27152 -10.27144
 Alpha  occ. eigenvalues --  -10.27136 -10.27106 -10.26982 -10.26975 -10.26870
 Alpha  occ. eigenvalues --  -10.26820  -6.71540  -6.71389  -4.87952  -4.87777
 Alpha  occ. eigenvalues --   -4.87702  -4.87557  -4.87446  -4.87299  -3.31380
 Alpha  occ. eigenvalues --   -2.08364  -2.07663  -2.04743  -1.20918  -1.12236
 Alpha  occ. eigenvalues --   -1.02398  -0.96739  -0.96410  -0.95956  -0.95705
 Alpha  occ. eigenvalues --   -0.94198  -0.89150  -0.88944  -0.87767  -0.87473
 Alpha  occ. eigenvalues --   -0.86039  -0.85575  -0.85284  -0.85011  -0.84769
 Alpha  occ. eigenvalues --   -0.84688  -0.84565  -0.82274  -0.80117  -0.77586
 Alpha  occ. eigenvalues --   -0.77018  -0.76006  -0.72667  -0.71462  -0.71185
 Alpha  occ. eigenvalues --   -0.70873  -0.70499  -0.70314  -0.70208  -0.69967
 Alpha  occ. eigenvalues --   -0.67944  -0.67378  -0.65606  -0.65160  -0.62923
 Alpha  occ. eigenvalues --   -0.62309  -0.62073  -0.62034  -0.61163  -0.60768
 Alpha  occ. eigenvalues --   -0.59740  -0.58814  -0.58331  -0.56984  -0.56736
 Alpha  occ. eigenvalues --   -0.56479  -0.56130  -0.56024  -0.55905  -0.55682
 Alpha  occ. eigenvalues --   -0.55384  -0.55211  -0.54864  -0.54393  -0.53684
 Alpha  occ. eigenvalues --   -0.53420  -0.53318  -0.53018  -0.52586  -0.52527
 Alpha  occ. eigenvalues --   -0.52333  -0.52293  -0.52020  -0.51781  -0.51200
 Alpha  occ. eigenvalues --   -0.50019  -0.49762  -0.48445  -0.48413  -0.48192
 Alpha  occ. eigenvalues --   -0.47933  -0.47575  -0.47337  -0.47234  -0.47023
 Alpha  occ. eigenvalues --   -0.46430  -0.46121  -0.45774  -0.45744  -0.45315
 Alpha  occ. eigenvalues --   -0.45137  -0.44920  -0.44833  -0.44498  -0.44140
 Alpha  occ. eigenvalues --   -0.43808  -0.43474  -0.43067  -0.42795  -0.41394
 Alpha  occ. eigenvalues --   -0.40782  -0.39004  -0.38000  -0.37607  -0.37436
 Alpha  occ. eigenvalues --   -0.36608  -0.36463  -0.36247  -0.36030  -0.35935
 Alpha  occ. eigenvalues --   -0.35537  -0.35281  -0.34585  -0.34286  -0.34075
 Alpha  occ. eigenvalues --   -0.33575  -0.30428
 Alpha virt. eigenvalues --   -0.15795  -0.14982  -0.14721  -0.13365  -0.12277
 Alpha virt. eigenvalues --   -0.12087  -0.11561  -0.10795  -0.10513  -0.10092
 Alpha virt. eigenvalues --   -0.09634  -0.09130  -0.07472  -0.06014  -0.05740

 Mulliken charges:
               1
     1  P    0.431034
     2  P    0.417421
     3  N   -0.470032
     4  C   -0.294575
     5  C   -0.040117
     6  H    0.170032
     7  C   -0.091486
     8  H    0.136867
     9  C   -0.089232
    10  H    0.139081
    11  C   -0.115080
    12  H    0.129063
    13  C    0.007476
    14  H    0.131678
    15  C   -0.152123
    16  C   -0.069858
    17  H    0.222943
    18  C   -0.139548
    19  H    0.132776
    20  C   -0.087306
    21  H    0.136825
    22  C   -0.085094
    23  H    0.133096
    24  C   -0.158665
    25  H    0.166853
    26  C   -0.238699
    27  C   -0.063540
    28  H    0.183315
    29  C   -0.097203
    30  H    0.136113
    31  C   -0.082349
    32  H    0.139522
    33  C   -0.123276
    34  H    0.131526
    35  C   -0.072947
    36  H    0.170621
    37  C   -0.185080
    38  C   -0.019367
    39  H    0.142298
    40  C   -0.131807
    41  H    0.131267
    42  C   -0.084856
    43  H    0.137317
    44  C   -0.114135
    45  H    0.134075
    46  C   -0.057407
    47  H    0.158289
    48  Rh  -0.663298
    49  C    0.000272
    50  C   -0.124890
    51  C   -0.015518
    52  C   -0.108014
    53  H    0.185179
    54  C   -0.355548
    55  H    0.220901
    56  C   -0.221284
    57  C   -0.355209
    58  H    0.200448
    59  H    0.201077
    60  C   -0.222530
    61  H    0.168438
    62  H    0.168938
    63  H    0.171421
    64  H    0.136174
    65  H    0.169163
    66  H    0.165465
    67  H    0.171974
    68  H    0.130350
    69  C    0.017937
    70  H    0.199706
    71  C    0.243980
    72  C   -0.474143
    73  H    0.156824
    74  H    0.163935
    75  H    0.188405
    76  C   -0.179251
    77  H    0.146221
    78  H    0.147294
    79  H    0.146190
    80  O   -0.335592
    81  O   -0.200716
 Sum of Mulliken charges =   1.00000

 Dipole moment (field-independent basis, Debye):
    X=              0.4037    Y=             -0.6669    Z=              1.5333  Tot=              1.7201
 Quadrupole moment (field-independent basis, Debye-Ang):
   XX=           -209.7149   YY=           -229.7331   ZZ=           -227.0559
   XY=              0.3193   XZ=             -0.9123   YZ=             -0.8296

 Summary of Natural Population Analysis:

                                       Natural Population
                Natural  -----------------------------------------------
    Atom  No    Charge         Core      Valence    Rydberg      Total
 -----------------------------------------------------------------------
      P    1    1.34417      9.99599     3.59783    0.06201    13.65583
      P    2    1.34800      9.99596     3.59340    0.06265    13.65200
      N    3   -0.98484      1.99957     5.96130    0.02396     7.98484
      C    4   -0.37537      1.99897     4.35121    0.02520     6.37537
      C    5   -0.18616      1.99910     4.17124    0.01583     6.18616
      H    6    0.22499      0.00000     0.77314    0.00187     0.77501
      C    7   -0.19720      1.99919     4.18327    0.01473     6.19720
      H    8    0.22367      0.00000     0.77510    0.00123     0.77633
      C    9   -0.17127      1.99921     4.15751    0.01456     6.17127
      H   10    0.22304      0.00000     0.77579    0.00118     0.77696
      C   11   -0.19882      1.99919     4.18514    0.01448     6.19882
      H   12    0.22047      0.00000     0.77828    0.00124     0.77953
      C   13   -0.17774      1.99910     4.16307    0.01557     6.17774
      H   14    0.21884      0.00000     0.77905    0.00211     0.78116
      C   15   -0.37231      1.99898     4.34866    0.02466     6.37231
      C   16   -0.20470      1.99909     4.18981    0.01581     6.20470
      H   17    0.24916      0.00000     0.74852    0.00232     0.75084
      C   18   -0.18854      1.99920     4.17483    0.01451     6.18854
      H   19    0.22235      0.00000     0.77643    0.00122     0.77765
      C   20   -0.18100      1.99920     4.16717    0.01463     6.18100
      H   21    0.22193      0.00000     0.77689    0.00117     0.77807
      C   22   -0.19509      1.99919     4.18110    0.01480     6.19509
      H   23    0.22187      0.00000     0.77688    0.00125     0.77813
      C   24   -0.20730      1.99910     4.19294    0.01527     6.20730
      H   25    0.21730      0.00000     0.78076    0.00194     0.78270
      C   26   -0.37911      1.99898     4.35535    0.02478     6.37911
      C   27   -0.19388      1.99910     4.17866    0.01611     6.19388
      H   28    0.22770      0.00000     0.77029    0.00200     0.77230
      C   29   -0.19484      1.99919     4.18097    0.01468     6.19484
      H   30    0.22370      0.00000     0.77506    0.00124     0.77630
      C   31   -0.16979      1.99921     4.15616    0.01443     6.16979
      H   32    0.22356      0.00000     0.77527    0.00116     0.77644
      C   33   -0.19837      1.99919     4.18462    0.01456     6.19837
      H   34    0.22138      0.00000     0.77738    0.00124     0.77862
      C   35   -0.17924      1.99910     4.16458    0.01556     6.17924
      H   36    0.21727      0.00000     0.78042    0.00230     0.78273
      C   37   -0.37697      1.99898     4.35193    0.02605     6.37697
      C   38   -0.18132      1.99910     4.16437    0.01785     6.18132
      H   39    0.22829      0.00000     0.76927    0.00244     0.77171
      C   40   -0.19446      1.99919     4.18006    0.01521     6.19446
      H   41    0.22242      0.00000     0.77634    0.00124     0.77758
      C   42   -0.17955      1.99920     4.16560    0.01474     6.17955
      H   43    0.22202      0.00000     0.77684    0.00114     0.77798
      C   44   -0.19721      1.99920     4.18297    0.01505     6.19721
      H   45    0.22227      0.00000     0.77651    0.00122     0.77773
      C   46   -0.19723      1.99911     4.18236    0.01576     6.19723
      H   47    0.22188      0.00000     0.77630    0.00182     0.77812
     Rh   48   -0.41635     35.98533     9.40180    0.02922    45.41635
      C   49   -0.18118      1.99908     4.16263    0.01947     6.18118
      C   50   -0.15834      1.99910     4.13857    0.02067     6.15834
      C   51   -0.16340      1.99907     4.14482    0.01951     6.16340
      C   52   -0.17357      1.99908     4.15430    0.02019     6.17357
      H   53    0.22743      0.00000     0.77071    0.00186     0.77257
      C   54   -0.42313      1.99936     4.41195    0.01182     6.42313
      H   55    0.23197      0.00000     0.76564    0.00239     0.76803
      C   56   -0.41938      1.99935     4.40714    0.01290     6.41938
      C   57   -0.42328      1.99936     4.41216    0.01175     6.42328
      H   58    0.23122      0.00000     0.76679    0.00199     0.76878
      H   59    0.22585      0.00000     0.77220    0.00196     0.77415
      C   60   -0.41724      1.99935     4.40516    0.01272     6.41724
      H   61    0.21516      0.00000     0.78288    0.00197     0.78484
      H   62    0.22816      0.00000     0.77035    0.00149     0.77184
      H   63    0.23330      0.00000     0.76484    0.00186     0.76670
      H   64    0.22012      0.00000     0.77841    0.00146     0.77988
      H   65    0.22957      0.00000     0.76895    0.00149     0.77043
      H   66    0.21358      0.00000     0.78443    0.00199     0.78642
      H   67    0.23336      0.00000     0.76472    0.00192     0.76664
      H   68    0.21168      0.00000     0.78675    0.00157     0.78832
      C   69   -0.14073      1.99918     4.11544    0.02611     6.14073
      H   70    0.22442      0.00000     0.77284    0.00275     0.77558
      C   71    0.75376      1.99942     3.20156    0.04525     5.24624
      C   72   -0.59706      1.99941     4.59019    0.00746     6.59706
      H   73    0.23154      0.00000     0.76738    0.00107     0.76846
      H   74    0.21873      0.00000     0.77938    0.00189     0.78127
      H   75    0.22609      0.00000     0.77238    0.00153     0.77391
      C   76   -0.26463      1.99926     4.25145    0.01391     6.26463
      H   77    0.20036      0.00000     0.79844    0.00120     0.79964
      H   78    0.19593      0.00000     0.80242    0.00165     0.80407
      H   79    0.19671      0.00000     0.80170    0.00159     0.80329
      O   80   -0.58341      1.99973     6.57112    0.01255     8.58341
      O   81   -0.47123      1.99975     6.45761    0.01387     8.47123
 =======================================================================
   * Total *    1.00000    133.94644   217.15774    0.89582   352.00000

 Normal termination of Gaussian 16 at Wed Nov  6 01:47:07 2024.
