 Gaussian 16, Revision B.01,
 Gaussian 16:  ES64L-G16RevB.01 20-Dec-2017

 ------------------------------------------
 # nmr=giao b3lyp/genecp pop=nbo scfcyc=200
 ------------------------------------------

 -------------
 Ligand 75 SPE
 -------------
 Symbolic Z-matrix:
 Charge =  1 Multiplicity = 1

                         Standard orientation:
 ---------------------------------------------------------------------
 Center     Atomic      Atomic             Coordinates (Angstroms)
 Number     Number       Type             X           Y           Z
 ---------------------------------------------------------------------
      1         15           0       -0.879361    1.053819   -0.118260
      2         15           0        0.872142   -0.956569    0.306010
      3          7           0        0.853659    0.777491    0.026390
      4          6           0       -1.539483    2.085508    1.265430
      5          6           0       -1.741035    3.465307    1.160060
      6          1           0       -1.498236    3.985898    0.243430
      7          6           0       -2.265546    4.181147    2.229740
      8          1           0       -2.419107    5.248946    2.136070
      9          6           0       -2.593825    3.530336    3.415270
     10          1           0       -3.003076    4.091076    4.246220
     11          6           0       -2.404353    2.156596    3.526720
     12          1           0       -2.668852    1.643936    4.443080
     13          6           0       -1.887342    1.437797    2.455310
     14          1           0       -1.760380    0.365117    2.535600
     15          6           0       -1.305243    2.007158   -1.632890
     16          6           0       -0.401763    2.243409   -2.668460
     17          1           0        0.636007    1.958371   -2.571300
     18          6           0       -0.828964    2.879389   -3.832290
     19          1           0       -0.115014    3.070090   -4.623870
     20          6           0       -2.154544    3.267817   -3.979520
     21          1           0       -2.481135    3.760076   -4.886910
     22          6           0       -3.062974    3.024566   -2.952110
     23          1           0       -4.097525    3.326934   -3.056120
     24          6           0       -2.644343    2.397926   -1.785960
     25          1           0       -3.362703    2.230415   -0.992660
     26          6           0        1.694972   -1.227738    1.929080
     27          6           0        3.082842   -1.128906    2.095720
     28          1           0        3.726162   -0.931175    1.248100
     29          6           0        3.649242   -1.293115    3.354480
     30          1           0        4.722432   -1.212813    3.473630
     31          6           0        2.842872   -1.563476    4.456320
     32          1           0        3.288763   -1.696015    5.434060
     33          6           0        1.464963   -1.667598    4.299360
     34          1           0        0.835393   -1.883769    5.153330
     35          6           0        0.894122   -1.498579    3.042890
     36          1           0       -0.178708   -1.581150    2.922900
     37          6           0        1.946843   -1.776287   -0.943060
     38          6           0        1.882672   -1.373757   -2.281300
     39          1           0        1.312871   -0.498858   -2.560800
     40          6           0        2.564063   -2.085866   -3.260380
     41          1           0        2.518693   -1.755186   -4.290440
     42          6           0        3.296855   -3.219935   -2.921200
     43          1           0        3.822816   -3.776125   -3.687010
     44          6           0        3.345745   -3.640295   -1.596580
     45          1           0        3.908637   -4.524924   -1.326280
     46          6           0        2.674214   -2.925216   -0.610010
     47          1           0        2.722235   -3.268196    0.414760
     48         45           0       -1.393778   -1.224822   -0.019880
     49          6           0       -3.692738   -1.273925    0.059250
     50          6           0       -3.294138   -1.227345   -1.257690
     51          6           0       -1.523235   -3.449932   -0.557960
     52          6           0       -1.714985   -3.309103    0.799340
     53          1           0       -3.935369   -0.329186    0.534180
     54          6           0       -4.163686   -2.515216    0.793940
     55          1           0       -3.278539   -0.255695   -1.739050
     56          6           0       -3.168566   -2.389355   -2.211530
     57          6           0       -2.616304   -3.685904   -1.582590
     58          1           0       -0.515505   -3.669951   -0.892580
     59          1           0       -0.854655   -3.479131    1.438790
     60          6           0       -3.037565   -3.278504    1.526510
     61          1           0       -4.677025   -3.177587    0.097310
     62          1           0       -4.912367   -2.217977    1.530170
     63          1           0       -4.142466   -2.589106   -2.675880
     64          1           0       -2.509897   -2.077464   -3.024520
     65          1           0       -2.211334   -4.310273   -2.380640
     66          1           0       -3.422654   -4.263005   -1.130380
     67          1           0       -3.365844   -4.303795    1.738250
     68          1           0       -2.870476   -2.815884    2.502040
     69          6           0        2.055748    1.629523    0.209660
     70          1           0        2.617878    1.197404    1.038110
     71          6           0        2.985128    1.549224   -1.009000
     72          6           0        1.755046    3.105422    0.605620
     73          1           0        0.837725    3.400011    0.091310
     74          6           0        5.249458    1.270267   -1.652720
     75          1           0        6.185239    1.068649   -1.140510
     76          1           0        5.025660    0.486447   -2.374330
     77          1           0        5.287817    2.232748   -2.160480
     78          8           0        2.668288    1.714094   -2.161230
     79          8           0        4.241268    1.292866   -0.615000
     80          6           0        1.554056    3.203822    2.122370
     81          1           0        1.182084    4.191842    2.397070
     82          1           0        0.848297    2.465681    2.500050
     83          1           0        2.507186    3.052934    2.635610
     84          6           0        2.851404    4.086904    0.166160
     85          1           0        3.818265    3.826935    0.602220
     86          1           0        2.959514    4.131584   -0.918060
     87          1           0        2.595753    5.089904    0.511130
 ---------------------------------------------------------------------

 SCF Done:  E(RB3LYP) =  -2472.92023579     A.U. after   16 cycles

      1  P    Isotropic =   216.0714   Anisotropy =    71.2879

      2  P    Isotropic =   214.0773   Anisotropy =    87.8812

      3  N    Isotropic =   138.6770   Anisotropy =    76.0993

      4  C    Isotropic =    40.9419   Anisotropy =   176.8319

      5  C    Isotropic =    45.1175   Anisotropy =   193.5991

      6  H    Isotropic =    24.4905   Anisotropy =    10.8565

      7  C    Isotropic =    49.7898   Anisotropy =   188.0756

      8  H    Isotropic =    24.3819   Anisotropy =     6.2264

      9  C    Isotropic =    44.6725   Anisotropy =   197.6975

     10  H    Isotropic =    24.0888   Anisotropy =     3.7354

     11  C    Isotropic =    49.8253   Anisotropy =   186.4056

     12  H    Isotropic =    24.0760   Anisotropy =     7.1729

     13  C    Isotropic =    40.3165   Anisotropy =   182.8637

     14  H    Isotropic =    22.8924   Anisotropy =     9.8990

     15  C    Isotropic =    44.1085   Anisotropy =   156.4106

     16  C    Isotropic =    45.0881   Anisotropy =   205.4010

     17  H    Isotropic =    21.0685   Anisotropy =     8.6418

     18  C    Isotropic =    48.0246   Anisotropy =   192.0095

     19  H    Isotropic =    23.7012   Anisotropy =     6.9746

     20  C    Isotropic =    46.0627   Anisotropy =   195.9662

     21  H    Isotropic =    23.9146   Anisotropy =     3.6032

     22  C    Isotropic =    50.2703   Anisotropy =   188.0412

     23  H    Isotropic =    24.1952   Anisotropy =     6.4872

     24  C    Isotropic =    49.9630   Anisotropy =   187.4280

     25  H    Isotropic =    24.9724   Anisotropy =    10.9888

     26  C    Isotropic =    47.8299   Anisotropy =   172.7334

     27  C    Isotropic =    43.9386   Anisotropy =   192.7812

     28  H    Isotropic =    24.0122   Anisotropy =     9.4809

     29  C    Isotropic =    49.7798   Anisotropy =   188.2849

     30  H    Isotropic =    24.0663   Anisotropy =     6.3958

     31  C    Isotropic =    43.9754   Anisotropy =   199.7208

     32  H    Isotropic =    23.8576   Anisotropy =     4.0180

     33  C    Isotropic =    48.4667   Anisotropy =   189.1823

     34  H    Isotropic =    23.8424   Anisotropy =     7.1326

     35  C    Isotropic =    41.9941   Anisotropy =   181.4559

     36  H    Isotropic =    23.2643   Anisotropy =    10.1480

     37  C    Isotropic =    45.6763   Anisotropy =   161.4045

     38  C    Isotropic =    44.2178   Anisotropy =   202.9944

     39  H    Isotropic =    23.4032   Anisotropy =     8.7340

     40  C    Isotropic =    49.2263   Anisotropy =   190.4218

     41  H    Isotropic =    23.9877   Anisotropy =     7.1110

     42  C    Isotropic =    46.0940   Anisotropy =   195.8027

     43  H    Isotropic =    24.1233   Anisotropy =     3.6549

     44  C    Isotropic =    49.9439   Anisotropy =   188.3083

     45  H    Isotropic =    24.3775   Anisotropy =     6.1012

     46  C    Isotropic =    48.6642   Anisotropy =   188.0764

     47  H    Isotropic =    24.9540   Anisotropy =    11.9483

     48  Rh   Isotropic =  -276.1039   Anisotropy =   305.1288

     49  C    Isotropic =    78.7297   Anisotropy =   121.9729

     50  C    Isotropic =    68.9636   Anisotropy =   129.5209

     51  C    Isotropic =    74.9792   Anisotropy =   127.7239

     52  C    Isotropic =    78.6435   Anisotropy =   113.9819

     53  H    Isotropic =    27.0763   Anisotropy =     5.9274

     54  C    Isotropic =   154.2044   Anisotropy =    25.2970

     55  H    Isotropic =    26.8301   Anisotropy =     5.5051

     56  C    Isotropic =   148.7533   Anisotropy =    28.3774

     57  C    Isotropic =   154.1606   Anisotropy =    24.8246

     58  H    Isotropic =    27.8604   Anisotropy =     5.6551

     59  H    Isotropic =    26.4419   Anisotropy =     4.8369

     60  C    Isotropic =   147.7180   Anisotropy =    29.2180

     61  H    Isotropic =    29.7597   Anisotropy =     9.9407

     62  H    Isotropic =    29.8297   Anisotropy =    11.5635

     63  H    Isotropic =    29.4714   Anisotropy =    12.6770

     64  H    Isotropic =    29.6052   Anisotropy =     6.5602

     65  H    Isotropic =    30.2682   Anisotropy =    10.8993

     66  H    Isotropic =    29.9287   Anisotropy =    10.0463

     67  H    Isotropic =    29.0529   Anisotropy =    12.9683

     68  H    Isotropic =    28.9231   Anisotropy =     8.1659

     69  C    Isotropic =   108.0688   Anisotropy =    23.9279

     70  H    Isotropic =    28.4853   Anisotropy =     4.4488

     71  C    Isotropic =     0.0958   Anisotropy =   106.0728

     72  C    Isotropic =   149.5120   Anisotropy =    14.9421

     73  H    Isotropic =    30.1944   Anisotropy =     7.4843

     74  C    Isotropic =   129.7408   Anisotropy =    76.3251

     75  H    Isotropic =    28.6065   Anisotropy =     9.5639

     76  H    Isotropic =    28.7684   Anisotropy =     6.8308

     77  H    Isotropic =    28.3006   Anisotropy =    10.3436

     78  O    Isotropic =   -90.4749   Anisotropy =   602.1401

     79  O    Isotropic =   113.3239   Anisotropy =   145.0060

     80  C    Isotropic =   161.5017   Anisotropy =    32.7392

     81  H    Isotropic =    32.1772   Anisotropy =     8.5926

     82  H    Isotropic =    32.7022   Anisotropy =     7.7612

     83  H    Isotropic =    32.2338   Anisotropy =     7.6091

     84  C    Isotropic =   165.3869   Anisotropy =    34.3318

     85  H    Isotropic =    31.4316   Anisotropy =     8.3358

     86  H    Isotropic =    31.0783   Anisotropy =     7.9075

     87  H    Isotropic =    31.3313   Anisotropy =    11.4620

 The electronic state is 1-A.
 Alpha  occ. eigenvalues --  -77.25975 -77.25664 -19.27072 -19.21227 -14.44828
 Alpha  occ. eigenvalues --  -10.39765 -10.32544 -10.31163 -10.29565 -10.29222
 Alpha  occ. eigenvalues --  -10.29186 -10.28933 -10.28700 -10.28646 -10.28614
 Alpha  occ. eigenvalues --  -10.28554 -10.28516 -10.28506 -10.28249 -10.28187
 Alpha  occ. eigenvalues --  -10.28118 -10.28008 -10.27912 -10.27780 -10.27780
 Alpha  occ. eigenvalues --  -10.27740 -10.27736 -10.27664 -10.27543 -10.27449
 Alpha  occ. eigenvalues --  -10.27387 -10.27299 -10.27228 -10.27154 -10.27072
 Alpha  occ. eigenvalues --  -10.27068 -10.26974 -10.26901 -10.26813 -10.26788
 Alpha  occ. eigenvalues --  -10.26621 -10.24698 -10.24538  -6.71515  -6.71300
 Alpha  occ. eigenvalues --   -4.87928  -4.87684  -4.87677  -4.87471  -4.87425
 Alpha  occ. eigenvalues --   -4.87213  -3.31267  -2.08250  -2.07547  -2.04637
 Alpha  occ. eigenvalues --   -1.20762  -1.12044  -1.02102  -0.96685  -0.96361
 Alpha  occ. eigenvalues --   -0.95930  -0.95545  -0.94109  -0.90746  -0.88848
 Alpha  occ. eigenvalues --   -0.87686  -0.87400  -0.86600  -0.85549  -0.85239
 Alpha  occ. eigenvalues --   -0.85036  -0.84740  -0.84572  -0.84417  -0.84093
 Alpha  occ. eigenvalues --   -0.80079  -0.79532  -0.77501  -0.77455  -0.76340
 Alpha  occ. eigenvalues --   -0.73269  -0.71462  -0.71144  -0.70839  -0.70401
 Alpha  occ. eigenvalues --   -0.70223  -0.70165  -0.69858  -0.68569  -0.67502
 Alpha  occ. eigenvalues --   -0.67079  -0.65512  -0.64821  -0.62666  -0.62290
 Alpha  occ. eigenvalues --   -0.62002  -0.61929  -0.61049  -0.60682  -0.59646
 Alpha  occ. eigenvalues --   -0.58625  -0.58504  -0.56968  -0.56780  -0.56371
 Alpha  occ. eigenvalues --   -0.56084  -0.55935  -0.55887  -0.55582  -0.55325
 Alpha  occ. eigenvalues --   -0.55201  -0.54775  -0.54331  -0.53735  -0.53591
 Alpha  occ. eigenvalues --   -0.53340  -0.52984  -0.52759  -0.52551  -0.52382
 Alpha  occ. eigenvalues --   -0.52238  -0.52133  -0.51684  -0.51317  -0.51078
 Alpha  occ. eigenvalues --   -0.50478  -0.49193  -0.48596  -0.48277  -0.48123
 Alpha  occ. eigenvalues --   -0.47750  -0.47548  -0.47248  -0.47180  -0.46752
 Alpha  occ. eigenvalues --   -0.46637  -0.46216  -0.45912  -0.45677  -0.45569
 Alpha  occ. eigenvalues --   -0.45299  -0.45117  -0.44897  -0.44624  -0.44276
 Alpha  occ. eigenvalues --   -0.44005  -0.43440  -0.43273  -0.43023  -0.42967
 Alpha  occ. eigenvalues --   -0.42691  -0.42344  -0.41270  -0.40589  -0.38860
 Alpha  occ. eigenvalues --   -0.37906  -0.37465  -0.37183  -0.36562  -0.36365
 Alpha  occ. eigenvalues --   -0.36206  -0.35966  -0.35851  -0.35503  -0.35107
 Alpha  occ. eigenvalues --   -0.34491  -0.34197  -0.33889  -0.33460  -0.30319
 Alpha virt. eigenvalues --   -0.15680  -0.14957  -0.14573  -0.13292  -0.12191
 Alpha virt. eigenvalues --   -0.12002  -0.11530  -0.10758  -0.10406  -0.10004
 Alpha virt. eigenvalues --   -0.09643  -0.09051  -0.07435  -0.05992  -0.05614

 Mulliken charges:
               1
     1  P    0.411368
     2  P    0.424257
     3  N   -0.469789
     4  C   -0.305362
     5  C   -0.022651
     6  H    0.170283
     7  C   -0.115844
     8  H    0.135346
     9  C   -0.081836
    10  H    0.138584
    11  C   -0.115490
    12  H    0.128390
    13  C    0.004784
    14  H    0.138513
    15  C   -0.144231
    16  C   -0.062092
    17  H    0.228228
    18  C   -0.139354
    19  H    0.130984
    20  C   -0.090222
    21  H    0.135743
    22  C   -0.085608
    23  H    0.131922
    24  C   -0.156274
    25  H    0.169445
    26  C   -0.216575
    27  C   -0.087889
    28  H    0.188460
    29  C   -0.090454
    30  H    0.136380
    31  C   -0.084988
    32  H    0.139456
    33  C   -0.119533
    34  H    0.131318
    35  C   -0.072151
    36  H    0.159932
    37  C   -0.179823
    38  C   -0.029060
    39  H    0.151745
    40  C   -0.139657
    41  H    0.131056
    42  C   -0.081557
    43  H    0.137143
    44  C   -0.114421
    45  H    0.133786
    46  C   -0.065114
    47  H    0.158157
    48  Rh  -0.680280
    49  C   -0.006183
    50  C   -0.120105
    51  C   -0.016204
    52  C   -0.107404
    53  H    0.187565
    54  C   -0.356834
    55  H    0.223194
    56  C   -0.220455
    57  C   -0.356558
    58  H    0.201402
    59  H    0.199970
    60  C   -0.221807
    61  H    0.168534
    62  H    0.168680
    63  H    0.171204
    64  H    0.135886
    65  H    0.168828
    66  H    0.165657
    67  H    0.171910
    68  H    0.129889
    69  C    0.037399
    70  H    0.198698
    71  C    0.155750
    72  C   -0.147699
    73  H    0.153717
    74  C   -0.179714
    75  H    0.145551
    76  H    0.147209
    77  H    0.146334
    78  O   -0.330385
    79  O   -0.191780
    80  C   -0.364812
    81  H    0.140611
    82  H    0.154518
    83  H    0.138556
    84  C   -0.387675
    85  H    0.140284
    86  H    0.145718
    87  H    0.145525
 Sum of Mulliken charges =   1.00000

 Dipole moment (field-independent basis, Debye):
    X=              0.0232    Y=             -0.9308    Z=              1.4976  Tot=              1.7634
 Quadrupole moment (field-independent basis, Debye-Ang):
   XX=           -224.5481   YY=           -239.7472   ZZ=           -240.3481
   XY=             -5.1548   XZ=             -2.2154   YZ=              0.6728

 Summary of Natural Population Analysis:

                                       Natural Population
                Natural  -----------------------------------------------
    Atom  No    Charge         Core      Valence    Rydberg      Total
 -----------------------------------------------------------------------
      P    1    1.34231      9.99595     3.59946    0.06228    13.65769
      P    2    1.35115      9.99593     3.59042    0.06250    13.64885
      N    3   -0.98476      1.99957     5.96189    0.02330     7.98476
      C    4   -0.37283      1.99896     4.34805    0.02581     6.37283
      C    5   -0.18555      1.99909     4.16969    0.01677     6.18555
      H    6    0.22373      0.00000     0.77400    0.00226     0.77627
      C    7   -0.19687      1.99919     4.18247    0.01522     6.19687
      H    8    0.22327      0.00000     0.77546    0.00127     0.77673
      C    9   -0.17142      1.99920     4.15764    0.01458     6.17142
      H   10    0.22292      0.00000     0.77592    0.00117     0.77708
      C   11   -0.19979      1.99919     4.18610    0.01450     6.19979
      H   12    0.22040      0.00000     0.77833    0.00126     0.77960
      C   13   -0.18064      1.99909     4.16596    0.01559     6.18064
      H   14    0.21948      0.00000     0.77834    0.00218     0.78052
      C   15   -0.37286      1.99897     4.34924    0.02464     6.37286
      C   16   -0.20453      1.99909     4.18963    0.01581     6.20453
      H   17    0.25265      0.00000     0.74497    0.00238     0.74735
      C   18   -0.18869      1.99920     4.17499    0.01450     6.18869
      H   19    0.22161      0.00000     0.77716    0.00123     0.77839
      C   20   -0.18129      1.99920     4.16744    0.01465     6.18129
      H   21    0.22143      0.00000     0.77739    0.00118     0.77857
      C   22   -0.19622      1.99919     4.18220    0.01483     6.19622
      H   23    0.22145      0.00000     0.77730    0.00125     0.77855
      C   24   -0.20703      1.99910     4.19270    0.01523     6.20703
      H   25    0.21757      0.00000     0.78053    0.00190     0.78243
      C   26   -0.37842      1.99898     4.35471    0.02473     6.37842
      C   27   -0.19476      1.99910     4.17968    0.01598     6.19476
      H   28    0.22733      0.00000     0.77067    0.00200     0.77267
      C   29   -0.19520      1.99919     4.18130    0.01471     6.19520
      H   30    0.22357      0.00000     0.77519    0.00123     0.77643
      C   31   -0.16990      1.99921     4.15626    0.01443     6.16990
      H   32    0.22346      0.00000     0.77538    0.00117     0.77654
      C   33   -0.19781      1.99919     4.18407    0.01454     6.19781
      H   34    0.22140      0.00000     0.77736    0.00124     0.77860
      C   35   -0.17801      1.99910     4.16341    0.01550     6.17801
      H   36    0.21715      0.00000     0.78057    0.00228     0.78285
      C   37   -0.37535      1.99898     4.35029    0.02608     6.37535
      C   38   -0.18364      1.99910     4.16655    0.01799     6.18364
      H   39    0.22925      0.00000     0.76827    0.00248     0.77075
      C   40   -0.19547      1.99919     4.18101    0.01527     6.19547
      H   41    0.22235      0.00000     0.77640    0.00124     0.77765
      C   42   -0.18033      1.99920     4.16638    0.01474     6.18033
      H   43    0.22195      0.00000     0.77691    0.00114     0.77805
      C   44   -0.19690      1.99920     4.18267    0.01504     6.19690
      H   45    0.22222      0.00000     0.77655    0.00122     0.77778
      C   46   -0.19822      1.99911     4.18335    0.01576     6.19822
      H   47    0.22195      0.00000     0.77623    0.00183     0.77805
     Rh   48   -0.41597     35.98532     9.40170    0.02896    45.41597
      C   49   -0.18269      1.99908     4.16416    0.01945     6.18269
      C   50   -0.15888      1.99910     4.13909    0.02070     6.15888
      C   51   -0.16495      1.99907     4.14636    0.01952     6.16495
      C   52   -0.17383      1.99908     4.15451    0.02024     6.17383
      H   53    0.22715      0.00000     0.77095    0.00190     0.77285
      C   54   -0.42314      1.99936     4.41193    0.01184     6.42314
      H   55    0.23288      0.00000     0.76474    0.00238     0.76712
      C   56   -0.41910      1.99935     4.40686    0.01289     6.41910
      C   57   -0.42313      1.99936     4.41201    0.01176     6.42313
      H   58    0.23088      0.00000     0.76711    0.00202     0.76912
      H   59    0.22595      0.00000     0.77207    0.00198     0.77405
      C   60   -0.41689      1.99935     4.40482    0.01273     6.41689
      H   61    0.21515      0.00000     0.78288    0.00197     0.78485
      H   62    0.22788      0.00000     0.77062    0.00150     0.77212
      H   63    0.23315      0.00000     0.76499    0.00186     0.76685
      H   64    0.22003      0.00000     0.77850    0.00148     0.77997
      H   65    0.22933      0.00000     0.76918    0.00149     0.77067
      H   66    0.21349      0.00000     0.78453    0.00199     0.78651
      H   67    0.23314      0.00000     0.76494    0.00192     0.76686
      H   68    0.21150      0.00000     0.78692    0.00158     0.78850
      C   69   -0.14801      1.99909     4.11823    0.03068     6.14801
      H   70    0.22828      0.00000     0.76845    0.00327     0.77172
      C   71    0.76798      1.99940     3.18659    0.04604     5.23202
      C   72   -0.19681      1.99941     4.18494    0.01246     6.19681
      H   73    0.20253      0.00000     0.79441    0.00307     0.79747
      C   74   -0.26461      1.99926     4.25144    0.01390     6.26461
      H   75    0.20006      0.00000     0.79874    0.00120     0.79994
      H   76    0.19606      0.00000     0.80226    0.00168     0.80394
      H   77    0.19572      0.00000     0.80266    0.00163     0.80428
      O   78   -0.59269      1.99973     6.58025    0.01272     8.59269
      O   79   -0.47447      1.99975     6.46080    0.01392     8.47447
      C   80   -0.59404      1.99943     4.58609    0.00852     6.59404
      H   81    0.21676      0.00000     0.78197    0.00128     0.78324
      H   82    0.21051      0.00000     0.78753    0.00196     0.78949
      H   83    0.20585      0.00000     0.79273    0.00142     0.79415
      C   84   -0.60134      1.99942     4.59414    0.00778     6.60134
      H   85    0.20884      0.00000     0.78966    0.00150     0.79116
      H   86    0.21513      0.00000     0.78351    0.00137     0.78487
      H   87    0.22019      0.00000     0.77860    0.00122     0.77981
 =======================================================================
   * Total *    1.00000    137.94506   229.12233    0.93261   368.00000

 Normal termination of Gaussian 16 at Mon Jan  1 17:34:55 2001.
