 Gaussian 16, Revision B.01,
 Gaussian 16:  ES64L-G16RevB.01 20-Dec-2017

 ------------------------------------------
 # nmr=giao b3lyp/genecp pop=nbo scfcyc=200
 ------------------------------------------

 -------------
 Ligand 76 SPE
 -------------
 Symbolic Z-matrix:
 Charge =  1 Multiplicity = 1

                         Standard orientation:
 ---------------------------------------------------------------------
 Center     Atomic      Atomic             Coordinates (Angstroms)
 Number     Number       Type             X           Y           Z
 ---------------------------------------------------------------------
      1          6           0       -2.241820    1.201570   -1.074510
      2          6           0       -2.119440    2.347060   -1.882310
      3          1           0       -1.275160    2.419170   -2.554810
      4          6           0       -3.074910    3.322910   -1.817110
      5          1           0       -3.001970    4.201530   -2.446730
      6          6           0       -4.157920    3.213060   -0.911520
      7          6           0       -5.104930    4.257860   -0.772110
      8          1           0       -5.002690    5.137500   -1.396630
      9          6           0       -6.120690    4.169670    0.143320
     10          1           0       -6.835210    4.976300    0.246910
     11          6           0       -6.224570    3.029430    0.965760
     12          1           0       -7.012260    2.974470    1.706750
     13          6           0       -5.335670    1.990990    0.842160
     14          1           0       -5.430600    1.129830    1.487630
     15          6           0       -4.285020    2.035410   -0.109080
     16          6           0       -3.331730    0.968820   -0.260910
     17          6           0       -2.479440   -0.825110    1.232110
     18          6           0       -2.601150   -1.992710    2.006750
     19          1           0       -1.779070   -2.281010    2.648500
     20          6           0       -3.757550   -2.720340    1.944050
     21          1           0       -3.875840   -3.611260    2.548990
     22          6           0       -4.805710   -2.336720    1.072020
     23          6           0       -5.973740   -3.128530    0.941200
     24          1           0       -6.067290   -4.019600    1.550740
     25          6           0       -6.959840   -2.787590    0.053040
     26          1           0       -7.845640   -3.402480   -0.043150
     27          6           0       -6.811630   -1.638970   -0.750860
     28          1           0       -7.580390   -1.387150   -1.470670
     29          6           0       -5.702600   -0.838880   -0.634630
     30          1           0       -5.607870    0.033830   -1.264170
     31          6           0       -4.672610   -1.144710    0.290730
     32          6           0       -3.492630   -0.335600    0.435850
     33          6           0        3.503650    0.689331   -0.980790
     34          6           0        3.007660    1.552691   -1.959120
     35          1           0        1.984640    1.897001   -1.910280
     36          6           0        3.832520    1.987801   -2.989580
     37          1           0        3.442720    2.670651   -3.733780
     38          6           0        5.151270    1.551781   -3.065210
     39          1           0        5.790970    1.892111   -3.869650
     40          6           0        5.646110    0.675401   -2.104480
     41          1           0        6.670890    0.329911   -2.158550
     42          6           0        4.828000    0.241361   -1.067740
     43          1           0        5.230440   -0.440469   -0.328960
     44          6           0        3.300950   -0.120229    1.857280
     45          6           0        4.390800    0.705471    2.149950
     46          1           0        4.748610    1.418021    1.419710
     47          6           0        5.023050    0.614001    3.385210
     48          1           0        5.867360    1.255681    3.603990
     49          6           0        4.574610   -0.297109    4.336480
     50          1           0        5.069510   -0.364709    5.297100
     51          6           0        3.493280   -1.125389    4.050050
     52          1           0        3.145370   -1.839009    4.786220
     53          6           0        2.863160   -1.042379    2.814880
     54          1           0        2.025470   -1.692679    2.591230
     55          6           0        0.653730    2.243380    1.126830
     56          1           0       -0.384710    2.444990    0.860520
     57          6           0        0.714490    2.124340    2.651600
     58          1           0        0.036340    1.344340    2.993720
     59          1           0        0.406480    3.071410    3.097500
     60          1           0        1.714980    1.892521    3.011810
     61          7           0        0.934310    0.921340    0.449050
     62          8           0       -1.218530    0.253090   -1.200890
     63          8           0       -1.266090   -0.128260    1.320680
     64         15           0       -0.236800   -0.242630    0.027850
     65         15           0        2.386880   -0.060279    0.264200
     66         45           0        1.184010   -1.936620   -0.454730
     67          6           0       -0.152440   -3.783790   -0.696090
     68          6           0       -0.099060   -3.111610   -1.898220
     69          6           0        2.814550   -3.181029   -1.521820
     70          6           0        2.743570   -3.587449   -0.210870
     71          1           0       -0.994400   -3.560710   -0.049830
     72          6           0        0.622950   -5.041440   -0.348380
     73          1           0       -0.912900   -2.429390   -2.121360
     74          6           0        0.789780   -3.423550   -3.076080
     75          6           0        2.210460   -3.904879   -2.709130
     76          1           0        3.549290   -2.420569   -1.763640
     77          1           0        3.455050   -3.152099    0.483840
     78          6           0        1.985110   -4.774549    0.329870
     79          1           0        0.757501   -5.648200   -1.243360
     80          1           0        0.016191   -5.642440    0.330910
     81          1           0        0.301920   -4.170200   -3.715140
     82          1           0        0.864260   -2.517600   -3.681020
     83          1           0        2.859460   -3.747209   -3.572110
     84          1           0        2.212890   -4.978319   -2.523120
     85          1           0        2.612921   -5.671829    0.262070
     86          1           0        1.825320   -4.606469    1.397180
     87          6           0        1.473270    3.394700    0.564530
     88          6           0        2.713530    3.756351    1.092740
     89          6           0        0.951610    4.156950   -0.483800
     90          6           0        3.427150    4.828611    0.566150
     91          1           0        3.125360    3.214931    1.933350
     92          6           0        1.659390    5.231371   -1.010350
     93          1           0       -0.027340    3.916000   -0.880630
     94          6           0        2.905330    5.566751   -0.490140
     95          1           0        4.386300    5.096571    0.991990
     96          1           0        1.232070    5.816030   -1.815860
     97          1           0        3.456790    6.407031   -0.892890
 ---------------------------------------------------------------------

 SCF Done:  E(RB3LYP) =  -2854.13868650     A.U. after   20 cycles

      1  C    Isotropic =    27.0087   Anisotropy =   109.6138

      2  C    Isotropic =    60.0572   Anisotropy =   146.4927

      3  H    Isotropic =    23.8250   Anisotropy =     7.9766

      4  C    Isotropic =    47.3691   Anisotropy =   163.5782

      5  H    Isotropic =    23.3997   Anisotropy =     7.4807

      6  C    Isotropic =    46.0118   Anisotropy =   212.2954

      7  C    Isotropic =    50.0758   Anisotropy =   162.8881

      8  H    Isotropic =    23.6430   Anisotropy =     7.7303

      9  C    Isotropic =    51.3015   Anisotropy =   184.5377

     10  H    Isotropic =    24.0616   Anisotropy =     4.3727

     11  C    Isotropic =    50.3656   Anisotropy =   186.6622

     12  H    Isotropic =    24.2790   Anisotropy =     7.9107

     13  C    Isotropic =    50.8538   Anisotropy =   177.3742

     14  H    Isotropic =    24.4912   Anisotropy =    14.7391

     15  C    Isotropic =    44.9905   Anisotropy =   204.1808

     16  C    Isotropic =    55.0330   Anisotropy =   138.3994

     17  C    Isotropic =    29.5563   Anisotropy =   105.5852

     18  C    Isotropic =    60.7179   Anisotropy =   146.0065

     19  H    Isotropic =    24.0855   Anisotropy =     7.8649

     20  C    Isotropic =    47.2882   Anisotropy =   163.5664

     21  H    Isotropic =    23.5737   Anisotropy =     7.6792

     22  C    Isotropic =    45.6514   Anisotropy =   212.8680

     23  C    Isotropic =    50.5599   Anisotropy =   164.0609

     24  H    Isotropic =    23.6690   Anisotropy =     7.7447

     25  C    Isotropic =    51.6812   Anisotropy =   186.0092

     26  H    Isotropic =    24.0536   Anisotropy =     4.3924

     27  C    Isotropic =    50.5668   Anisotropy =   186.9064

     28  H    Isotropic =    24.2726   Anisotropy =     7.9100

     29  C    Isotropic =    51.3555   Anisotropy =   179.3387

     30  H    Isotropic =    24.5517   Anisotropy =    14.7598

     31  C    Isotropic =    44.7024   Anisotropy =   202.9973

     32  C    Isotropic =    52.8278   Anisotropy =   140.1536

     33  C    Isotropic =    47.3173   Anisotropy =   161.2625

     34  C    Isotropic =    47.8018   Anisotropy =   200.3045

     35  H    Isotropic =    24.3464   Anisotropy =     6.6401

     36  C    Isotropic =    49.0791   Anisotropy =   192.3134

     37  H    Isotropic =    24.4801   Anisotropy =     7.2995

     38  C    Isotropic =    46.7617   Anisotropy =   195.1800

     39  H    Isotropic =    24.3038   Anisotropy =     3.8392

     40  C    Isotropic =    50.3063   Anisotropy =   188.5878

     41  H    Isotropic =    24.3970   Anisotropy =     5.8659

     42  C    Isotropic =    50.9643   Anisotropy =   186.9068

     43  H    Isotropic =    24.8797   Anisotropy =    10.7579

     44  C    Isotropic =    45.5978   Anisotropy =   171.8101

     45  C    Isotropic =    45.3540   Anisotropy =   193.9352

     46  H    Isotropic =    23.8982   Anisotropy =    10.0625

     47  C    Isotropic =    49.3739   Anisotropy =   188.2066

     48  H    Isotropic =    24.0346   Anisotropy =     6.3220

     49  C    Isotropic =    43.3788   Anisotropy =   198.1532

     50  H    Isotropic =    23.8195   Anisotropy =     4.0771

     51  C    Isotropic =    48.3730   Anisotropy =   189.0503

     52  H    Isotropic =    23.7963   Anisotropy =     7.0754

     53  C    Isotropic =    41.1214   Anisotropy =   186.1047

     54  H    Isotropic =    23.0737   Anisotropy =     9.9329

     55  C    Isotropic =   116.0767   Anisotropy =    32.6154

     56  H    Isotropic =    27.6809   Anisotropy =     8.9565

     57  C    Isotropic =   162.6953   Anisotropy =    25.5562

     58  H    Isotropic =    30.3478   Anisotropy =     4.3049

     59  H    Isotropic =    31.4590   Anisotropy =     9.7390

     60  H    Isotropic =    31.2314   Anisotropy =     8.8957

     61  N    Isotropic =    85.9915   Anisotropy =   119.8244

     62  O    Isotropic =   131.9995   Anisotropy =    65.6508

     63  O    Isotropic =   138.5819   Anisotropy =    76.5018

     64  P    Isotropic =   161.2007   Anisotropy =   200.9152

     65  P    Isotropic =   224.1063   Anisotropy =    61.6590

     66  Rh   Isotropic =  -270.8983   Anisotropy =   305.6690

     67  C    Isotropic =    79.8824   Anisotropy =   120.4239

     68  C    Isotropic =    73.8077   Anisotropy =   123.6273

     69  C    Isotropic =    68.7786   Anisotropy =   136.6614

     70  C    Isotropic =    72.1301   Anisotropy =   124.4384

     71  H    Isotropic =    27.3124   Anisotropy =     9.6828

     72  C    Isotropic =   154.1341   Anisotropy =    24.5697

     73  H    Isotropic =    26.5269   Anisotropy =     2.9063

     74  C    Isotropic =   148.0901   Anisotropy =    30.5167

     75  C    Isotropic =   154.4153   Anisotropy =    25.1745

     76  H    Isotropic =    27.4955   Anisotropy =     6.4844

     77  H    Isotropic =    26.5129   Anisotropy =     3.9341

     78  C    Isotropic =   148.6705   Anisotropy =    27.8760

     79  H    Isotropic =    29.8785   Anisotropy =     9.6478

     80  H    Isotropic =    29.9458   Anisotropy =    11.1263

     81  H    Isotropic =    29.5055   Anisotropy =    12.3921

     82  H    Isotropic =    29.5199   Anisotropy =     7.0258

     83  H    Isotropic =    30.3182   Anisotropy =    11.4159

     84  H    Isotropic =    29.9774   Anisotropy =     9.8132

     85  H    Isotropic =    29.2218   Anisotropy =    12.8948

     86  H    Isotropic =    29.1165   Anisotropy =     7.3201

     87  C    Isotropic =    37.9363   Anisotropy =   193.4779

     88  C    Isotropic =    51.5892   Anisotropy =   188.9292

     89  C    Isotropic =    48.0445   Anisotropy =   167.5229

     90  C    Isotropic =    50.4702   Anisotropy =   189.1371

     91  H    Isotropic =    24.7974   Anisotropy =     8.4187

     92  C    Isotropic =    49.7984   Anisotropy =   186.8789

     93  H    Isotropic =    24.1857   Anisotropy =     7.8448

     94  C    Isotropic =    49.0211   Anisotropy =   192.5777

     95  H    Isotropic =    24.7187   Anisotropy =     6.1922

     96  H    Isotropic =    24.1894   Anisotropy =     6.6282

     97  H    Isotropic =    24.4401   Anisotropy =     3.2864

 The electronic state is 1-A.
 Alpha  occ. eigenvalues --  -77.31684 -77.26252 -19.26641 -19.26634 -14.44739
 Alpha  occ. eigenvalues --  -10.33334 -10.33242 -10.31798 -10.29691 -10.29270
 Alpha  occ. eigenvalues --  -10.29233 -10.29126 -10.28836 -10.28583 -10.28574
 Alpha  occ. eigenvalues --  -10.28470 -10.28428 -10.28346 -10.28084 -10.27934
 Alpha  occ. eigenvalues --  -10.27789 -10.27759 -10.27664 -10.27653 -10.27620
 Alpha  occ. eigenvalues --  -10.27534 -10.27274 -10.27249 -10.27232 -10.27227
 Alpha  occ. eigenvalues --  -10.27143 -10.27080 -10.27054 -10.27018 -10.26913
 Alpha  occ. eigenvalues --  -10.26898 -10.26824 -10.26768 -10.26680 -10.25898
 Alpha  occ. eigenvalues --  -10.25824 -10.25729 -10.25714 -10.25592 -10.25555
 Alpha  occ. eigenvalues --  -10.25411 -10.25388 -10.25320 -10.25263 -10.25245
 Alpha  occ. eigenvalues --  -10.25197 -10.25091 -10.24687  -6.76472  -6.71858
 Alpha  occ. eigenvalues --   -4.92871  -4.92803  -4.92334  -4.88267  -4.88018
 Alpha  occ. eigenvalues --   -4.87765  -3.31935  -2.09033  -2.08196  -2.05217
 Alpha  occ. eigenvalues --   -1.18605  -1.14431  -1.02261  -0.97505  -0.96690
 Alpha  occ. eigenvalues --   -0.95967  -0.95927  -0.94580  -0.94385  -0.91708
 Alpha  occ. eigenvalues --   -0.90782  -0.89157  -0.88771  -0.88253  -0.87936
 Alpha  occ. eigenvalues --   -0.86741  -0.85560  -0.85008  -0.84780  -0.84773
 Alpha  occ. eigenvalues --   -0.83545  -0.83288  -0.82755  -0.82045  -0.81464
 Alpha  occ. eigenvalues --   -0.80291  -0.79862  -0.77771  -0.77126  -0.75885
 Alpha  occ. eigenvalues --   -0.73083  -0.71923  -0.71636  -0.71470  -0.70781
 Alpha  occ. eigenvalues --   -0.70501  -0.70408  -0.70211  -0.69688  -0.69215
 Alpha  occ. eigenvalues --   -0.68335  -0.68022  -0.66422  -0.65718  -0.65582
 Alpha  occ. eigenvalues --   -0.64077  -0.62417  -0.62266  -0.61863  -0.61627
 Alpha  occ. eigenvalues --   -0.61151  -0.60760  -0.59976  -0.59824  -0.59565
 Alpha  occ. eigenvalues --   -0.58208  -0.57656  -0.56814  -0.56679  -0.56281
 Alpha  occ. eigenvalues --   -0.56109  -0.55799  -0.55521  -0.55291  -0.54975
 Alpha  occ. eigenvalues --   -0.54610  -0.54159  -0.53910  -0.53760  -0.53570
 Alpha  occ. eigenvalues --   -0.53013  -0.52739  -0.52661  -0.52509  -0.52467
 Alpha  occ. eigenvalues --   -0.52317  -0.52229  -0.51752  -0.51442  -0.51197
 Alpha  occ. eigenvalues --   -0.50908  -0.50744  -0.50426  -0.50302  -0.49808
 Alpha  occ. eigenvalues --   -0.48767  -0.48283  -0.48231  -0.48120  -0.47944
 Alpha  occ. eigenvalues --   -0.47838  -0.47537  -0.47286  -0.47017  -0.46603
 Alpha  occ. eigenvalues --   -0.46155  -0.45930  -0.45618  -0.45300  -0.45191
 Alpha  occ. eigenvalues --   -0.44922  -0.44736  -0.44438  -0.44188  -0.43678
 Alpha  occ. eigenvalues --   -0.43454  -0.43334  -0.43044  -0.42964  -0.42764
 Alpha  occ. eigenvalues --   -0.42587  -0.42291  -0.41674  -0.41364  -0.40796
 Alpha  occ. eigenvalues --   -0.40468  -0.38620  -0.38236  -0.38051  -0.37639
 Alpha  occ. eigenvalues --   -0.36689  -0.36593  -0.36292  -0.36064  -0.35520
 Alpha  occ. eigenvalues --   -0.34795  -0.34549  -0.34035  -0.33997  -0.33492
 Alpha  occ. eigenvalues --   -0.33252  -0.32855  -0.30923  -0.30734  -0.29902
 Alpha virt. eigenvalues --   -0.16230  -0.15403  -0.14224  -0.13376  -0.12625
 Alpha virt. eigenvalues --   -0.11938  -0.11400  -0.10826  -0.10531  -0.10259
 Alpha virt. eigenvalues --   -0.09952  -0.09619  -0.09328  -0.07410  -0.07074

 Mulliken charges:
               1
     1  C    0.150285
     2  C   -0.233241
     3  H    0.144585
     4  C   -0.145916
     5  H    0.119702
     6  C    0.027227
     7  C   -0.137538
     8  H    0.114719
     9  C   -0.084277
    10  H    0.124074
    11  C   -0.070386
    12  H    0.122182
    13  C   -0.117029
    14  H    0.153685
    15  C   -0.003840
    16  C    0.024429
    17  C    0.119252
    18  C   -0.215991
    19  H    0.125019
    20  C   -0.130745
    21  H    0.117799
    22  C    0.024514
    23  C   -0.144893
    24  H    0.115329
    25  C   -0.081686
    26  H    0.124087
    27  C   -0.074215
    28  H    0.122884
    29  C   -0.104887
    30  H    0.155529
    31  C    0.003874
    32  C   -0.009778
    33  C   -0.105038
    34  C   -0.034043
    35  H    0.165030
    36  C   -0.118039
    37  H    0.127196
    38  C   -0.087862
    39  H    0.137051
    40  C   -0.097331
    41  H    0.132831
    42  C   -0.141952
    43  H    0.162895
    44  C   -0.247587
    45  C   -0.095182
    46  H    0.198813
    47  C   -0.099876
    48  H    0.137646
    49  C   -0.085026
    50  H    0.140535
    51  C   -0.097637
    52  H    0.132491
    53  C   -0.038809
    54  H    0.160008
    55  C   -0.145147
    56  H    0.190842
    57  C   -0.398809
    58  H    0.159808
    59  H    0.153954
    60  H    0.137885
    61  N   -0.439394
    62  O   -0.318505
    63  O   -0.317795
    64  P    0.812392
    65  P    0.376518
    66  Rh  -0.697748
    67  C   -0.037821
    68  C   -0.102476
    69  C   -0.024952
    70  C   -0.094238
    71  H    0.229335
    72  C   -0.355069
    73  H    0.202711
    74  C   -0.220200
    75  C   -0.349033
    76  H    0.205204
    77  H    0.197963
    78  C   -0.221967
    79  H    0.167808
    80  H    0.168781
    81  H    0.172798
    82  H    0.139823
    83  H    0.170396
    84  H    0.164574
    85  H    0.173649
    86  H    0.131745
    87  C    0.018297
    88  C   -0.084597
    89  C   -0.125610
    90  C   -0.117018
    91  H    0.161405
    92  C   -0.115773
    93  H    0.169854
    94  C   -0.090215
    95  H    0.122518
    96  H    0.121025
    97  H    0.126216
 Sum of Mulliken charges =   1.00000

 Dipole moment (field-independent basis, Debye):
    X=              4.2045    Y=             -2.4140    Z=             -0.1698  Tot=              4.8511
 Quadrupole moment (field-independent basis, Debye-Ang):
   XX=           -245.1966   YY=           -273.2485   ZZ=           -304.9015
   XY=              0.6702   XZ=              2.4599   YZ=            -11.3070

 Summary of Natural Population Analysis:

                                       Natural Population
                Natural  -----------------------------------------------
    Atom  No    Charge         Core      Valence    Rydberg      Total
 -----------------------------------------------------------------------
      C    1    0.26474      1.99861     3.71329    0.02336     5.73526
      C    2   -0.24938      1.99906     4.23515    0.01518     6.24938
      H    3    0.22555      0.00000     0.77277    0.00168     0.77445
      C    4   -0.14942      1.99914     4.13637    0.01391     6.14942
      H    5    0.21742      0.00000     0.78102    0.00156     0.78258
      C    6   -0.06648      1.99909     4.05136    0.01603     6.06648
      C    7   -0.17052      1.99915     4.15714    0.01423     6.17052
      H    8    0.21339      0.00000     0.78498    0.00163     0.78661
      C    9   -0.19581      1.99920     4.18176    0.01486     6.19581
      H   10    0.21961      0.00000     0.77924    0.00115     0.78039
      C   11   -0.18450      1.99920     4.17048    0.01482     6.18450
      H   12    0.21842      0.00000     0.78040    0.00119     0.78158
      C   13   -0.18899      1.99913     4.17589    0.01396     6.18899
      H   14    0.22080      0.00000     0.77744    0.00176     0.77920
      C   15   -0.03060      1.99904     4.01477    0.01679     6.03060
      C   16   -0.06892      1.99887     4.05043    0.01962     6.06892
      C   17    0.25587      1.99862     3.72280    0.02270     5.74413
      C   18   -0.24685      1.99906     4.23266    0.01513     6.24685
      H   19    0.22484      0.00000     0.77343    0.00172     0.77516
      C   20   -0.15017      1.99914     4.13727    0.01375     6.15017
      H   21    0.21723      0.00000     0.78136    0.00141     0.78277
      C   22   -0.06516      1.99910     4.05008    0.01598     6.06516
      C   23   -0.17117      1.99914     4.15804    0.01398     6.17117
      H   24    0.21321      0.00000     0.78533    0.00146     0.78679
      C   25   -0.19523      1.99920     4.18121    0.01482     6.19523
      H   26    0.21957      0.00000     0.77924    0.00118     0.78043
      C   27   -0.18493      1.99920     4.17092    0.01481     6.18493
      H   28    0.21860      0.00000     0.78021    0.00119     0.78140
      C   29   -0.18777      1.99913     4.17454    0.01410     6.18777
      H   30    0.22182      0.00000     0.77644    0.00174     0.77818
      C   31   -0.03185      1.99904     4.01633    0.01648     6.03185
      C   32   -0.06144      1.99888     4.04335    0.01921     6.06144
      C   33   -0.36828      1.99898     4.34339    0.02592     6.36828
      C   34   -0.17816      1.99909     4.16171    0.01736     6.17816
      H   35    0.22481      0.00000     0.77264    0.00255     0.77519
      C   36   -0.18876      1.99920     4.17443    0.01513     6.18876
      H   37    0.22103      0.00000     0.77762    0.00136     0.77897
      C   38   -0.17996      1.99920     4.16587    0.01488     6.17996
      H   39    0.22190      0.00000     0.77698    0.00112     0.77810
      C   40   -0.19519      1.99920     4.18097    0.01503     6.19519
      H   41    0.22188      0.00000     0.77691    0.00121     0.77812
      C   42   -0.20633      1.99910     4.19172    0.01551     6.20633
      H   43    0.21757      0.00000     0.78048    0.00195     0.78243
      C   44   -0.38037      1.99897     4.35603    0.02537     6.38037
      C   45   -0.19083      1.99909     4.17575    0.01599     6.19083
      H   46    0.22827      0.00000     0.76958    0.00215     0.77173
      C   47   -0.19680      1.99919     4.18300    0.01461     6.19680
      H   48    0.22391      0.00000     0.77486    0.00123     0.77609
      C   49   -0.16953      1.99921     4.15578    0.01454     6.16953
      H   50    0.22405      0.00000     0.77478    0.00117     0.77595
      C   51   -0.19668      1.99919     4.18295    0.01453     6.19668
      H   52    0.22247      0.00000     0.77630    0.00123     0.77753
      C   53   -0.17706      1.99909     4.16277    0.01520     6.17706
      H   54    0.22100      0.00000     0.77690    0.00210     0.77900
      C   55   -0.05822      1.99924     4.03295    0.02603     6.05822
      H   56    0.21906      0.00000     0.77810    0.00284     0.78094
      C   57   -0.60285      1.99941     4.59509    0.00835     6.60285
      H   58    0.22559      0.00000     0.77315    0.00126     0.77441
      H   59    0.22455      0.00000     0.77441    0.00103     0.77545
      H   60    0.20578      0.00000     0.79253    0.00169     0.79422
      N   61   -1.01925      1.99958     5.99622    0.02345     8.01925
      O   62   -0.75193      1.99978     6.73849    0.01366     8.75193
      O   63   -0.74785      1.99979     6.73474    0.01332     8.74785
      P   64    1.88203      9.99522     3.02268    0.10007    13.11797
      P   65    1.34412      9.99595     3.59658    0.06336    13.65588
     Rh   66   -0.48784     35.98410     9.47378    0.02996    45.48784
      C   67   -0.18033      1.99908     4.16139    0.01986     6.18033
      C   68   -0.15058      1.99909     4.13128    0.02021     6.15058
      C   69   -0.15879      1.99906     4.14004    0.01968     6.15879
      C   70   -0.16414      1.99907     4.14451    0.02056     6.16414
      H   71    0.23398      0.00000     0.76353    0.00248     0.76602
      C   72   -0.42324      1.99936     4.41169    0.01219     6.42324
      H   73    0.23856      0.00000     0.75957    0.00187     0.76144
      C   74   -0.42202      1.99935     4.40990    0.01277     6.42202
      C   75   -0.42370      1.99936     4.41245    0.01189     6.42370
      H   76    0.23206      0.00000     0.76582    0.00212     0.76794
      H   77    0.22984      0.00000     0.76833    0.00183     0.77016
      C   78   -0.42215      1.99936     4.41046    0.01233     6.42215
      H   79    0.21454      0.00000     0.78360    0.00186     0.78546
      H   80    0.22855      0.00000     0.77000    0.00145     0.77145
      H   81    0.23489      0.00000     0.76328    0.00182     0.76511
      H   82    0.22409      0.00000     0.77454    0.00137     0.77591
      H   83    0.23068      0.00000     0.76787    0.00146     0.76932
      H   84    0.21129      0.00000     0.78649    0.00222     0.78871
      H   85    0.23516      0.00000     0.76297    0.00186     0.76484
      H   86    0.21811      0.00000     0.78045    0.00143     0.78189
      C   87   -0.04547      1.99904     4.02666    0.01978     6.04547
      C   88   -0.20771      1.99908     4.19379    0.01484     6.20771
      C   89   -0.20327      1.99911     4.18929    0.01487     6.20327
      C   90   -0.19295      1.99920     4.17863    0.01512     6.19295
      H   91    0.20991      0.00000     0.78778    0.00231     0.79009
      C   92   -0.19665      1.99920     4.18264    0.01482     6.19665
      H   93    0.21073      0.00000     0.78680    0.00246     0.78927
      C   94   -0.19321      1.99920     4.17923    0.01478     6.19321
      H   95    0.21483      0.00000     0.78389    0.00129     0.78517
      H   96    0.21504      0.00000     0.78372    0.00124     0.78496
      H   97    0.21791      0.00000     0.78092    0.00118     0.78209
 =======================================================================
   * Total *    1.00000    157.93215   268.96735    1.10050   428.00000

 Normal termination of Gaussian 16 at Wed Nov  6 02:37:29 2024.
