 Gaussian 16, Revision B.01,
 Gaussian 16:  ES64L-G16RevB.01 20-Dec-2017

 ------------------------------------------
 # nmr=giao b3lyp/genecp pop=nbo scfcyc=200
 ------------------------------------------

 -------------
 Ligand 83 SPE
 -------------
 Symbolic Z-matrix:
 Charge =  1 Multiplicity = 1

                         Standard orientation:
 ---------------------------------------------------------------------
 Center     Atomic      Atomic             Coordinates (Angstroms)
 Number     Number       Type             X           Y           Z
 ---------------------------------------------------------------------
      1         15           0       -2.530660   -0.905849    0.327069
      2         15           0        0.053800   -0.226410   -0.227471
      3          6           0        4.296200   -1.914050   -0.417521
      4          8           0        1.132540   -0.290970   -1.470371
      5          6           0        3.246030   -0.937170   -0.498041
      6          8           0        1.018810   -0.371270    1.108509
      7          6           0       -0.916430   -1.791009   -0.098211
      8          1           0       -0.563390   -2.513610    0.636539
      9          1           0       -0.989330   -2.262739   -1.078861
     10          6           0        4.315480   -3.002840   -1.346731
     11          6           0        2.231140   -1.168110   -1.403271
     12          6           0        6.327559   -3.875391   -0.311631
     13          1           0        7.116179   -4.615411   -0.262641
     14          6           0        6.372131    2.129139   -0.428501
     15          1           0        7.197891    2.078019   -1.127091
     16          6           0        5.376430    1.186559   -0.483911
     17          1           0        5.424660    0.402029   -1.225291
     18          6           0        2.241130   -2.230870   -2.322701
     19          1           0        1.433150   -2.314890   -3.037571
     20          6           0        2.117560    0.498490    1.185279
     21          6           0        5.357969   -3.960371   -1.275801
     22          1           0        5.366719   -4.771651   -1.994091
     23          6           0        4.277150    1.230460    0.410909
     24          6           0        5.303650   -1.873361    0.579869
     25          1           0        5.289080   -1.083331    1.316619
     26          6           0        3.212830    0.267380    0.378809
     27          6           0        6.288320   -2.827671    0.631249
     28          1           0        7.041730   -2.778491    1.407449
     29          6           0        4.217361    2.308820    1.350789
     30          6           0        5.272801    3.253879    1.392189
     31          1           0        5.222151    4.056869    2.118089
     32          6           0        3.280450   -3.120070   -2.305391
     33          1           0        3.311329   -3.936460   -3.016701
     34          6           0        2.048950    1.550630    2.114239
     35          1           0        1.173690    1.635750    2.744579
     36          6           0        6.330581    3.166669    0.525629
     37          1           0        7.128981    3.896859    0.562599
     38          6           0        3.095631    2.427140    2.207409
     39          1           0        3.068711    3.234290    2.929549
     40         45           0       -1.706290    1.208821   -0.379641
     41          6           0       -3.631439    2.130871   -1.299711
     42          6           0       -3.525079    2.549681    0.003349
     43          6           0       -0.758159    3.250461   -0.713171
     44          6           0       -0.791009    2.579111   -1.918641
     45          6           0       -3.266279    2.947521   -2.523831
     46          1           0       -4.234820    1.249031   -1.485161
     47          1           0       -4.089289    1.993151    0.745569
     48          6           0       -2.944689    3.852291    0.495859
     49          6           0       -1.710669    4.353031   -0.287891
     50          1           0        0.161961    3.182100   -0.142001
     51          6           0       -1.817719    2.731831   -3.013041
     52          1           0        0.114271    2.065650   -2.224891
     53          1           0       -3.946449    2.674351   -3.332251
     54          1           0       -3.446539    4.003091   -2.323231
     55          1           0       -3.722529    4.625871    0.491569
     56          1           0       -2.669599    3.718111    1.544519
     57          1           0       -2.022859    4.925121   -1.161171
     58          1           0       -1.164909    5.052101    0.347629
     59          1           0       -1.778200    1.831521   -3.629561
     60          1           0       -1.525869    3.557671   -3.673931
     61          6           0       -3.892370   -1.743429   -0.585231
     62          6           0       -3.756790   -1.963589   -1.960911
     63          6           0       -5.093600   -2.075909    0.046119
     64          6           0       -4.794750   -2.536209   -2.684601
     65          1           0       -2.845220   -1.684399   -2.476351
     66          6           0       -6.133350   -2.641988   -0.685961
     67          1           0       -5.220990   -1.905629    1.106809
     68          6           0       -5.985280   -2.877318   -2.047781
     69          1           0       -4.676080   -2.713099   -3.746191
     70          1           0       -7.058210   -2.901918   -0.186631
     71          1           0       -6.794391   -3.321818   -2.613201
     72          6           0       -2.801960   -1.235879    2.111769
     73          6           0       -2.923980   -0.165399    2.999529
     74          6           0       -2.861240   -2.546469    2.600389
     75          6           0       -3.110560   -0.399809    4.358819
     76          1           0       -2.862230    0.850681    2.631089
     77          6           0       -3.045330   -2.775959    3.957349
     78          1           0       -2.770701   -3.389759    1.926089
     79          6           0       -3.171310   -1.703049    4.837389
     80          1           0       -3.204140    0.435171    5.041599
     81          1           0       -3.089541   -3.791699    4.329529
     82          1           0       -3.314210   -1.885919    5.894899
 ---------------------------------------------------------------------

 SCF Done:  E(RB3LYP) =  -2528.30178658     A.U. after   20 cycles

      1  P    Isotropic =   316.2089   Anisotropy =   114.1175

      2  P    Isotropic =   137.3503   Anisotropy =   203.2243

      3  C    Isotropic =    44.9764   Anisotropy =   204.6680

      4  O    Isotropic =   154.2746   Anisotropy =    44.4865

      5  C    Isotropic =    53.3069   Anisotropy =   137.6962

      6  O    Isotropic =   143.0686   Anisotropy =    81.4515

      7  C    Isotropic =   116.0498   Anisotropy =    51.2695

      8  H    Isotropic =    28.2057   Anisotropy =     6.4537

      9  H    Isotropic =    27.3515   Anisotropy =     6.2055

     10  C    Isotropic =    45.4203   Anisotropy =   213.5953

     11  C    Isotropic =    28.7041   Anisotropy =   106.8353

     12  C    Isotropic =    51.2823   Anisotropy =   185.2853

     13  H    Isotropic =    24.0871   Anisotropy =     4.3181

     14  C    Isotropic =    50.3901   Anisotropy =   186.6818

     15  H    Isotropic =    24.2983   Anisotropy =     7.6463

     16  C    Isotropic =    50.8960   Anisotropy =   177.2426

     17  H    Isotropic =    24.5334   Anisotropy =    14.3914

     18  C    Isotropic =    61.9373   Anisotropy =   143.7320

     19  H    Isotropic =    24.2961   Anisotropy =     8.5258

     20  C    Isotropic =    29.1984   Anisotropy =   110.8892

     21  C    Isotropic =    50.1490   Anisotropy =   163.8210

     22  H    Isotropic =    23.7202   Anisotropy =     7.4768

     23  C    Isotropic =    44.9354   Anisotropy =   204.7772

     24  C    Isotropic =    51.4221   Anisotropy =   177.9344

     25  H    Isotropic =    24.5990   Anisotropy =    15.0176

     26  C    Isotropic =    52.4202   Anisotropy =   139.2721

     27  C    Isotropic =    50.4624   Anisotropy =   186.9080

     28  H    Isotropic =    24.3374   Anisotropy =     7.9727

     29  C    Isotropic =    45.7627   Anisotropy =   213.1111

     30  C    Isotropic =    49.9312   Anisotropy =   162.1593

     31  H    Isotropic =    23.7663   Anisotropy =     7.6338

     32  C    Isotropic =    47.0831   Anisotropy =   164.0426

     33  H    Isotropic =    23.6346   Anisotropy =     7.4354

     34  C    Isotropic =    61.6095   Anisotropy =   147.1951

     35  H    Isotropic =    24.3773   Anisotropy =     7.4784

     36  C    Isotropic =    51.0679   Anisotropy =   184.2571

     37  H    Isotropic =    24.1009   Anisotropy =     4.4024

     38  C    Isotropic =    47.5961   Anisotropy =   163.7446

     39  H    Isotropic =    23.6848   Anisotropy =     7.7368

     40  Rh   Isotropic =  -306.0456   Anisotropy =   353.4708

     41  C    Isotropic =    64.2028   Anisotropy =   142.5868

     42  C    Isotropic =    72.6108   Anisotropy =   122.1628

     43  C    Isotropic =    80.3916   Anisotropy =   119.0523

     44  C    Isotropic =    73.0831   Anisotropy =   123.7027

     45  C    Isotropic =   153.9469   Anisotropy =    25.4396

     46  H    Isotropic =    27.0231   Anisotropy =     5.0609

     47  H    Isotropic =    26.1603   Anisotropy =     4.6804

     48  C    Isotropic =   149.3044   Anisotropy =    28.2701

     49  C    Isotropic =   154.1299   Anisotropy =    24.1794

     50  H    Isotropic =    27.4650   Anisotropy =     8.3528

     51  C    Isotropic =   147.0379   Anisotropy =    31.5620

     52  H    Isotropic =    25.9821   Anisotropy =     2.7138

     53  H    Isotropic =    30.0305   Anisotropy =    11.2653

     54  H    Isotropic =    29.8082   Anisotropy =     9.1787

     55  H    Isotropic =    29.0852   Anisotropy =    12.5828

     56  H    Isotropic =    29.0474   Anisotropy =     8.0397

     57  H    Isotropic =    29.8516   Anisotropy =     9.2323

     58  H    Isotropic =    29.9308   Anisotropy =    11.1017

     59  H    Isotropic =    29.0334   Anisotropy =     7.5502

     60  H    Isotropic =    29.2106   Anisotropy =    12.0023

     61  C    Isotropic =    44.1518   Anisotropy =   167.2366

     62  C    Isotropic =    49.1162   Anisotropy =   186.6458

     63  C    Isotropic =    46.9660   Anisotropy =   191.5981

     64  C    Isotropic =    48.5865   Anisotropy =   189.8902

     65  H    Isotropic =    23.7678   Anisotropy =    10.4694

     66  C    Isotropic =    48.7962   Anisotropy =   189.6579

     67  H    Isotropic =    24.9040   Anisotropy =    12.7060

     68  C    Isotropic =    46.0623   Anisotropy =   196.2388

     69  H    Isotropic =    23.9372   Anisotropy =     6.7359

     70  H    Isotropic =    24.3323   Anisotropy =     6.4204

     71  H    Isotropic =    24.0600   Anisotropy =     3.9236

     72  C    Isotropic =    47.3132   Anisotropy =   169.6570

     73  C    Isotropic =    41.8922   Anisotropy =   179.4803

     74  C    Isotropic =    46.1785   Anisotropy =   189.0305

     75  C    Isotropic =    49.1259   Anisotropy =   188.4479

     76  H    Isotropic =    23.5342   Anisotropy =     9.7899

     77  C    Isotropic =    47.5088   Anisotropy =   192.1949

     78  H    Isotropic =    24.3829   Anisotropy =    10.8853

     79  C    Isotropic =    43.9913   Anisotropy =   200.1880

     80  H    Isotropic =    23.9249   Anisotropy =     6.5298

     81  H    Isotropic =    24.0632   Anisotropy =     5.8008

     82  H    Isotropic =    23.8559   Anisotropy =     3.8517

 The electronic state is 1-A.
 Alpha  occ. eigenvalues --  -77.30508 -77.24465 -19.27183 -19.26815 -10.33317
 Alpha  occ. eigenvalues --  -10.33250 -10.30355 -10.29991 -10.29860 -10.29813
 Alpha  occ. eigenvalues --  -10.29670 -10.29432 -10.29082 -10.28711 -10.28705
 Alpha  occ. eigenvalues --  -10.28643 -10.28440 -10.28410 -10.28409 -10.28101
 Alpha  occ. eigenvalues --  -10.27900 -10.27842 -10.27842 -10.27808 -10.27786
 Alpha  occ. eigenvalues --  -10.27771 -10.27702 -10.27656 -10.27644 -10.27631
 Alpha  occ. eigenvalues --  -10.27546 -10.27080 -10.26939 -10.26881 -10.26809
 Alpha  occ. eigenvalues --  -10.26808 -10.26715 -10.25553 -10.25404 -10.25394
 Alpha  occ. eigenvalues --  -10.25328 -10.25272 -10.25249 -10.25205 -10.25105
 Alpha  occ. eigenvalues --   -6.75593  -6.70424  -4.92064  -4.91868  -4.91385
 Alpha  occ. eigenvalues --   -4.86718  -4.86636  -4.86330  -3.32557  -2.09595
 Alpha  occ. eigenvalues --   -2.08722  -2.05943  -1.18688  -1.14738  -0.97595
 Alpha  occ. eigenvalues --   -0.97083  -0.96390  -0.95977  -0.94925  -0.91939
 Alpha  occ. eigenvalues --   -0.90803  -0.89697  -0.89440  -0.88753  -0.88443
 Alpha  occ. eigenvalues --   -0.85912  -0.85594  -0.85502  -0.85156  -0.84799
 Alpha  occ. eigenvalues --   -0.83021  -0.82744  -0.81967  -0.80804  -0.79869
 Alpha  occ. eigenvalues --   -0.78288  -0.76511  -0.74293  -0.72145  -0.71653
 Alpha  occ. eigenvalues --   -0.71550  -0.71222  -0.71013  -0.70550  -0.70474
 Alpha  occ. eigenvalues --   -0.69668  -0.67959  -0.67254  -0.66380  -0.66231
 Alpha  occ. eigenvalues --   -0.64138  -0.62890  -0.62713  -0.62021  -0.61557
 Alpha  occ. eigenvalues --   -0.60994  -0.60392  -0.59757  -0.59064  -0.58198
 Alpha  occ. eigenvalues --   -0.57604  -0.56857  -0.56654  -0.56611  -0.56381
 Alpha  occ. eigenvalues --   -0.56236  -0.55720  -0.55271  -0.54823  -0.54509
 Alpha  occ. eigenvalues --   -0.54079  -0.54041  -0.53730  -0.53049  -0.52973
 Alpha  occ. eigenvalues --   -0.52950  -0.52883  -0.52577  -0.52055  -0.51202
 Alpha  occ. eigenvalues --   -0.51000  -0.50914  -0.50519  -0.50385  -0.49595
 Alpha  occ. eigenvalues --   -0.48977  -0.48565  -0.48143  -0.48029  -0.47899
 Alpha  occ. eigenvalues --   -0.47705  -0.47454  -0.47075  -0.46503  -0.46432
 Alpha  occ. eigenvalues --   -0.45625  -0.45413  -0.45178  -0.44933  -0.44749
 Alpha  occ. eigenvalues --   -0.43857  -0.43836  -0.43523  -0.43384  -0.43286
 Alpha  occ. eigenvalues --   -0.42772  -0.42551  -0.41505  -0.41368  -0.40850
 Alpha  occ. eigenvalues --   -0.40657  -0.38627  -0.38138  -0.37315  -0.36846
 Alpha  occ. eigenvalues --   -0.36670  -0.36574  -0.36398  -0.35988  -0.35619
 Alpha  occ. eigenvalues --   -0.35181  -0.34573  -0.33289  -0.32994  -0.31623
 Alpha  occ. eigenvalues --   -0.30790  -0.29963
 Alpha virt. eigenvalues --   -0.17413  -0.15584  -0.14218  -0.13764  -0.12729
 Alpha virt. eigenvalues --   -0.12314  -0.11893  -0.11053  -0.10478  -0.10097
 Alpha virt. eigenvalues --   -0.09884  -0.08088  -0.07535  -0.07133  -0.06828

 Mulliken charges:
               1
     1  P    0.277765
     2  P    0.782787
     3  C   -0.005355
     4  O   -0.332261
     5  C    0.022696
     6  O   -0.311843
     7  C   -0.580522
     8  H    0.222704
     9  H    0.216311
    10  C    0.032303
    11  C    0.114452
    12  C   -0.085525
    13  H    0.124141
    14  C   -0.071484
    15  H    0.123303
    16  C   -0.115099
    17  H    0.153907
    18  C   -0.156155
    19  H    0.123031
    20  C    0.067457
    21  C   -0.133301
    22  H    0.117402
    23  C    0.038664
    24  C   -0.119304
    25  H    0.154590
    26  C    0.014405
    27  C   -0.070691
    28  H    0.122534
    29  C    0.020150
    30  C   -0.142517
    31  H    0.115641
    32  C   -0.163809
    33  H    0.119335
    34  C   -0.185010
    35  H    0.128704
    36  C   -0.083345
    37  H    0.124175
    38  C   -0.139796
    39  H    0.117406
    40  Rh  -0.590240
    41  C   -0.026826
    42  C   -0.086755
    43  C   -0.024504
    44  C   -0.111696
    45  C   -0.348670
    46  H    0.202549
    47  H    0.183601
    48  C   -0.216703
    49  C   -0.352457
    50  H    0.211913
    51  C   -0.224263
    52  H    0.218782
    53  H    0.171594
    54  H    0.166924
    55  H    0.176710
    56  H    0.132684
    57  H    0.168004
    58  H    0.172735
    59  H    0.135876
    60  H    0.175671
    61  C   -0.143629
    62  C   -0.084301
    63  C   -0.074620
    64  C   -0.098323
    65  H    0.138084
    66  C   -0.099665
    67  H    0.163408
    68  C   -0.097467
    69  H    0.134415
    70  H    0.137925
    71  H    0.141657
    72  C   -0.197192
    73  C   -0.028110
    74  C   -0.092183
    75  C   -0.116562
    76  H    0.151380
    77  C   -0.082160
    78  H    0.152194
    79  C   -0.090206
    80  H    0.131542
    81  H    0.138673
    82  H    0.142368
 Sum of Mulliken charges =   1.00000

 Dipole moment (field-independent basis, Debye):
    X=             -5.4685    Y=              0.3816    Z=             -0.1160  Tot=              5.4830
 Quadrupole moment (field-independent basis, Debye-Ang):
   XX=           -203.9405   YY=           -239.0508   ZZ=           -253.5498
   XY=              3.2146   XZ=              0.1933   YZ=              6.0432

 Summary of Natural Population Analysis:

                                       Natural Population
                Natural  -----------------------------------------------
    Atom  No    Charge         Core      Valence    Rydberg      Total
 -----------------------------------------------------------------------
      P    1    1.11525      9.99650     3.83758    0.05067    13.88475
      P    2    1.72933      9.99556     3.18612    0.08899    13.27067
      C    3   -0.03126      1.99904     4.01541    0.01681     6.03126
      O    4   -0.74228      1.99980     6.72990    0.01259     8.74228
      C    5   -0.06275      1.99887     4.04395    0.01992     6.06275
      O    6   -0.73428      1.99980     6.71989    0.01459     8.73428
      C    7   -1.03009      1.99943     5.01347    0.01718     7.03009
      H    8    0.27548      0.00000     0.72259    0.00193     0.72452
      H    9    0.26880      0.00000     0.72957    0.00162     0.73120
      C   10   -0.06345      1.99910     4.04840    0.01595     6.06345
      C   11    0.25759      1.99861     3.72084    0.02295     5.74241
      C   12   -0.19497      1.99920     4.18094    0.01484     6.19497
      H   13    0.21962      0.00000     0.77923    0.00115     0.78038
      C   14   -0.18492      1.99920     4.17092    0.01480     6.18492
      H   15    0.21868      0.00000     0.78013    0.00119     0.78132
      C   16   -0.18787      1.99913     4.17464    0.01409     6.18787
      H   17    0.22172      0.00000     0.77657    0.00171     0.77828
      C   18   -0.24563      1.99906     4.23109    0.01548     6.24563
      H   19    0.22199      0.00000     0.77642    0.00159     0.77801
      C   20    0.25421      1.99862     3.72462    0.02255     5.74579
      C   21   -0.17032      1.99915     4.15695    0.01423     6.17032
      H   22    0.21373      0.00000     0.78464    0.00163     0.78627
      C   23   -0.03302      1.99904     4.01748    0.01650     6.03302
      C   24   -0.18830      1.99913     4.17525    0.01392     6.18830
      H   25    0.22109      0.00000     0.77716    0.00176     0.77891
      C   26   -0.05952      1.99888     4.04125    0.01940     6.05952
      C   27   -0.18428      1.99920     4.17027    0.01481     6.18428
      H   28    0.21841      0.00000     0.78041    0.00119     0.78159
      C   29   -0.06432      1.99910     4.04927    0.01595     6.06432
      C   30   -0.17121      1.99914     4.15808    0.01398     6.17121
      H   31    0.21320      0.00000     0.78534    0.00146     0.78680
      C   32   -0.14648      1.99915     4.13309    0.01424     6.14648
      H   33    0.21812      0.00000     0.78032    0.00155     0.78188
      C   34   -0.24456      1.99906     4.23032    0.01518     6.24456
      H   35    0.22601      0.00000     0.77222    0.00177     0.77399
      C   36   -0.19513      1.99920     4.18112    0.01482     6.19513
      H   37    0.21955      0.00000     0.77927    0.00118     0.78045
      C   38   -0.14997      1.99915     4.13704    0.01379     6.14997
      H   39    0.21699      0.00000     0.78162    0.00139     0.78301
     Rh   40   -0.49168     35.98476     9.47702    0.02991    45.49168
      C   41   -0.14472      1.99907     4.12598    0.01967     6.14472
      C   42   -0.17269      1.99907     4.15297    0.02065     6.17269
      C   43   -0.18080      1.99905     4.16201    0.01974     6.18080
      C   44   -0.14240      1.99906     4.12304    0.02031     6.14240
      C   45   -0.42612      1.99936     4.41478    0.01198     6.42612
      H   46    0.23286      0.00000     0.76520    0.00195     0.76714
      H   47    0.22853      0.00000     0.76966    0.00181     0.77147
      C   48   -0.42320      1.99936     4.41148    0.01236     6.42320
      C   49   -0.42271      1.99936     4.41181    0.01153     6.42271
      H   50    0.23524      0.00000     0.76263    0.00214     0.76476
      C   51   -0.42184      1.99935     4.41015    0.01234     6.42184
      H   52    0.24057      0.00000     0.75755    0.00188     0.75943
      H   53    0.23127      0.00000     0.76729    0.00144     0.76873
      H   54    0.21288      0.00000     0.78489    0.00223     0.78712
      H   55    0.23723      0.00000     0.76093    0.00184     0.76277
      H   56    0.21833      0.00000     0.78021    0.00146     0.78167
      H   57    0.21496      0.00000     0.78315    0.00188     0.78504
      H   58    0.23054      0.00000     0.76799    0.00147     0.76946
      H   59    0.22141      0.00000     0.77712    0.00146     0.77859
      H   60    0.23611      0.00000     0.76204    0.00186     0.76389
      C   61   -0.34341      1.99900     4.32085    0.02356     6.34341
      C   62   -0.19805      1.99909     4.18371    0.01525     6.19805
      C   63   -0.19260      1.99910     4.17825    0.01526     6.19260
      C   64   -0.19114      1.99920     4.17720    0.01474     6.19114
      H   65    0.21016      0.00000     0.78784    0.00200     0.78984
      C   66   -0.18827      1.99920     4.17439    0.01469     6.18827
      H   67    0.22455      0.00000     0.77371    0.00174     0.77545
      C   68   -0.17843      1.99921     4.16455    0.01468     6.17843
      H   69    0.22231      0.00000     0.77647    0.00122     0.77769
      H   70    0.22399      0.00000     0.77480    0.00121     0.77601
      H   71    0.22401      0.00000     0.77483    0.00116     0.77599
      C   72   -0.35197      1.99900     4.32921    0.02376     6.35197
      C   73   -0.17922      1.99909     4.16477    0.01536     6.17922
      C   74   -0.18866      1.99909     4.17365    0.01592     6.18866
      C   75   -0.19543      1.99920     4.18166    0.01457     6.19543
      H   76    0.21603      0.00000     0.78177    0.00220     0.78397
      C   77   -0.19009      1.99920     4.17632    0.01457     6.19009
      H   78    0.21736      0.00000     0.78063    0.00201     0.78264
      C   79   -0.17099      1.99921     4.15733    0.01446     6.17099
      H   80    0.22217      0.00000     0.77661    0.00122     0.77783
      H   81    0.22467      0.00000     0.77410    0.00122     0.77533
      H   82    0.22408      0.00000     0.77475    0.00116     0.77592
 =======================================================================
   * Total *    1.00000    141.94013   229.13864    0.92123   372.00000

 Normal termination of Gaussian 16 at Tue Nov 19 11:48:15 2024.
