 Gaussian 16, Revision B.01,
 Gaussian 16:  ES64L-G16RevB.01 20-Dec-2017

 ------------------------------------------
 # nmr=giao b3lyp/genecp pop=nbo scfcyc=200
 ------------------------------------------

 -------------
 Ligand 85 SPE
 -------------
 Symbolic Z-matrix:
 Charge =  1 Multiplicity = 1

                         Standard orientation:
 ---------------------------------------------------------------------
 Center     Atomic      Atomic             Coordinates (Angstroms)
 Number     Number       Type             X           Y           Z
 ---------------------------------------------------------------------
      1         15           0       -2.398800   -0.731200    0.117509
      2         15           0        0.201069   -0.118070   -0.414781
      3          6           0        4.362160   -2.002629   -0.501231
      4          8           0        1.348419   -0.140139   -1.595201
      5          6           0        3.368150   -0.967489   -0.564161
      6          8           0        1.084170   -0.402129    0.961049
      7          6           0       -0.836060   -1.636590   -0.438581
      8          1           0       -0.496840   -2.471780    0.173609
      9          1           0       -0.953550   -1.960150   -1.473951
     10          6           0        4.379990   -3.021139   -1.507041
     11          6           0        2.396830   -1.076929   -1.537441
     12          6           0        6.283570   -4.073388   -0.434351
     13          1           0        7.030211   -4.856478   -0.399001
     14          6           0        6.632179    1.914342   -0.101981
     15          1           0        7.492939    1.868562   -0.757331
     16          6           0        5.595989    1.032392   -0.279421
     17          1           0        5.647839    0.300692   -1.072721
     18          6           0        2.406410   -2.069319   -2.532411
     19          1           0        1.637570   -2.057159   -3.293771
     20          6           0        2.216909    0.402201    1.158469
     21          6           0        5.367470   -4.036318   -1.452381
     22          1           0        5.376811   -4.793028   -2.227951
     23          6           0        4.450829    1.071801    0.556109
     24          6           0        5.312060   -2.088059    0.548449
     25          1           0        5.295310   -1.352729    1.339779
     26          6           0        3.344159    0.170991    0.397179
     27          6           0        6.243300   -3.095398    0.580659
     28          1           0        6.953210   -3.142608    1.396949
     29          6           0        4.390679    2.083311    1.567499
     30          6           0        5.487279    2.965572    1.734449
     31          1           0        5.434669    3.717382    2.513109
     32          6           0        3.397270   -3.012379   -2.526121
     33          1           0        3.428350   -3.775519   -3.294291
     34          6           0        2.147029    1.390761    2.154929
     35          1           0        1.241439    1.482531    2.739899
     36          6           0        6.587399    2.883012    0.921869
     37          1           0        7.417409    3.565222    1.054729
     38          6           0        3.228379    2.201821    2.367949
     39          1           0        3.198869    2.958091    3.143099
     40         45           0       -1.472701    1.407880   -0.497811
     41          6           0       -3.321821    2.550350   -1.341701
     42          6           0       -3.194641    2.850020   -0.009351
     43          6           0       -0.380451    3.388320   -0.659311
     44          6           0       -0.457321    2.819900   -1.916631
     45          6           0       -2.887751    3.433590   -2.494441
     46          1           0       -3.988061    1.735359   -1.601961
     47          1           0       -3.795531    2.273999    0.686609
     48          6           0       -2.521781    4.059180    0.590239
     49          6           0       -1.245942    4.524810   -0.146211
     50          1           0        0.531709    3.210320   -0.099601
     51          6           0       -1.457951    3.142850   -2.998001
     52          1           0        0.412059    2.272410   -2.265161
     53          1           0       -3.582411    3.283360   -3.322641
     54          1           0       -2.985122    4.479900   -2.207241
     55          1           0       -3.238512    4.887810    0.647279
     56          1           0       -2.267941    3.817130    1.624659
     57          1           0       -1.504462    5.190510   -0.969371
     58          1           0       -0.652622    5.123470    0.546609
     59          1           0       -1.485961    2.294390   -3.684941
     60          1           0       -1.095931    3.992980   -3.589731
     61          6           0       -3.823100   -1.458821   -0.873341
     62          6           0       -3.829710   -2.988871   -1.041081
     63          6           0       -5.193950   -0.951261   -0.387841
     64          1           0       -3.638090   -1.019330   -1.861661
     65          6           0       -4.944160   -3.416041   -2.009041
     66          1           0       -3.992030   -3.470401   -0.074701
     67          1           0       -2.865830   -3.344290   -1.412441
     68          6           0       -6.308340   -1.388391   -1.349981
     69          1           0       -5.402650   -1.357831    0.606009
     70          1           0       -5.194461    0.137459   -0.287521
     71          6           0       -6.315110   -2.905911   -1.555601
     72          1           0       -4.952060   -4.505241   -2.093391
     73          1           0       -4.722000   -3.028231   -3.009571
     74          1           0       -7.273700   -1.051481   -0.965091
     75          1           0       -6.166500   -0.889521   -2.315321
     76          1           0       -7.079180   -3.181731   -2.285701
     77          1           0       -6.592440   -3.397611   -0.616371
     78          6           0       -2.484330   -1.114620    1.957299
     79          6           0       -3.367721   -0.126620    2.741119
     80          6           0       -2.822630   -2.570260    2.321419
     81          1           0       -1.445320   -0.926970    2.256549
     82          6           0       -3.245720   -0.366510    4.253189
     83          1           0       -4.414070   -0.242081    2.442399
     84          1           0       -3.079531    0.900360    2.506129
     85          6           0       -2.685200   -2.796870    3.834439
     86          1           0       -3.851540   -2.791871    2.025059
     87          1           0       -2.178690   -3.269040    1.781859
     88          6           0       -3.553860   -1.818400    4.629639
     89          1           0       -3.914251    0.315069    4.784659
     90          1           0       -2.227831   -0.116830    4.573199
     91          1           0       -2.956220   -3.828150    4.072539
     92          1           0       -1.635540   -2.675630    4.123759
     93          1           0       -3.404580   -1.967760    5.701289
     94          1           0       -4.611080   -2.029001    4.431849
 ---------------------------------------------------------------------

 SCF Done:  E(RB3LYP) =  -2535.56196758     A.U. after   20 cycles

      1  P    Isotropic =   305.8047   Anisotropy =    80.3449

      2  P    Isotropic =   131.4620   Anisotropy =   217.6214

      3  C    Isotropic =    45.2196   Anisotropy =   205.3925

      4  O    Isotropic =   153.7501   Anisotropy =    45.4778

      5  C    Isotropic =    53.8928   Anisotropy =   139.0492

      6  O    Isotropic =   143.8577   Anisotropy =    81.3145

      7  C    Isotropic =   129.6909   Anisotropy =    55.0518

      8  H    Isotropic =    28.9168   Anisotropy =     6.2365

      9  H    Isotropic =    28.4833   Anisotropy =     6.3048

     10  C    Isotropic =    45.1811   Anisotropy =   213.2088

     11  C    Isotropic =    28.8098   Anisotropy =   107.9275

     12  C    Isotropic =    50.9566   Anisotropy =   184.0658

     13  H    Isotropic =    24.0843   Anisotropy =     4.2668

     14  C    Isotropic =    50.3343   Anisotropy =   187.1734

     15  H    Isotropic =    24.2735   Anisotropy =     7.7324

     16  C    Isotropic =    51.1247   Anisotropy =   178.4621

     17  H    Isotropic =    24.5510   Anisotropy =    14.4780

     18  C    Isotropic =    61.8636   Anisotropy =   144.6875

     19  H    Isotropic =    24.4033   Anisotropy =     8.5349

     20  C    Isotropic =    28.8610   Anisotropy =   110.6900

     21  C    Isotropic =    49.7213   Anisotropy =   162.5473

     22  H    Isotropic =    23.7419   Anisotropy =     7.3734

     23  C    Isotropic =    44.6047   Anisotropy =   204.3393

     24  C    Isotropic =    51.0722   Anisotropy =   176.9987

     25  H    Isotropic =    24.5424   Anisotropy =    14.9889

     26  C    Isotropic =    52.2393   Anisotropy =   139.4638

     27  C    Isotropic =    50.3735   Anisotropy =   186.6488

     28  H    Isotropic =    24.3069   Anisotropy =     7.9490

     29  C    Isotropic =    45.7242   Anisotropy =   212.7391

     30  C    Isotropic =    50.2755   Anisotropy =   163.2006

     31  H    Isotropic =    23.7240   Anisotropy =     7.6952

     32  C    Isotropic =    47.0215   Anisotropy =   164.1737

     33  H    Isotropic =    23.6559   Anisotropy =     7.3827

     34  C    Isotropic =    61.6419   Anisotropy =   146.5742

     35  H    Isotropic =    24.2633   Anisotropy =     7.5653

     36  C    Isotropic =    51.3092   Anisotropy =   185.3495

     37  H    Isotropic =    24.0749   Anisotropy =     4.3923

     38  C    Isotropic =    47.5773   Anisotropy =   163.9041

     39  H    Isotropic =    23.6422   Anisotropy =     7.8141

     40  Rh   Isotropic =  -304.6615   Anisotropy =   337.9866

     41  C    Isotropic =    66.9239   Anisotropy =   138.4049

     42  C    Isotropic =    72.3120   Anisotropy =   124.3140

     43  C    Isotropic =    83.3023   Anisotropy =   116.1209

     44  C    Isotropic =    77.0169   Anisotropy =   118.9537

     45  C    Isotropic =   153.7617   Anisotropy =    25.7532

     46  H    Isotropic =    26.3910   Anisotropy =     6.3758

     47  H    Isotropic =    25.9519   Anisotropy =     3.2726

     48  C    Isotropic =   149.4336   Anisotropy =    28.4151

     49  C    Isotropic =   154.1838   Anisotropy =    23.8517

     50  H    Isotropic =    27.7430   Anisotropy =     9.0176

     51  C    Isotropic =   147.1699   Anisotropy =    31.9468

     52  H    Isotropic =    26.3574   Anisotropy =     3.1525

     53  H    Isotropic =    29.8826   Anisotropy =    11.6066

     54  H    Isotropic =    29.7219   Anisotropy =     9.1492

     55  H    Isotropic =    29.1356   Anisotropy =    12.4632

     56  H    Isotropic =    29.2079   Anisotropy =     7.1074

     57  H    Isotropic =    29.8598   Anisotropy =     9.5501

     58  H    Isotropic =    30.0079   Anisotropy =    10.9798

     59  H    Isotropic =    29.1466   Anisotropy =     7.5963

     60  H    Isotropic =    29.2241   Anisotropy =    12.2422

     61  C    Isotropic =   131.5554   Anisotropy =    34.2879

     62  C    Isotropic =   152.4023   Anisotropy =    14.5518

     63  C    Isotropic =   151.4333   Anisotropy =    12.2711

     64  H    Isotropic =    29.9173   Anisotropy =     5.6599

     65  C    Isotropic =   153.1997   Anisotropy =     8.5886

     66  H    Isotropic =    30.4204   Anisotropy =     6.1651

     67  H    Isotropic =    30.2525   Anisotropy =     6.5133

     68  C    Isotropic =   153.4027   Anisotropy =     8.3743

     69  H    Isotropic =    30.2880   Anisotropy =     6.4334

     70  H    Isotropic =    30.4205   Anisotropy =     7.1134

     71  C    Isotropic =   155.7963   Anisotropy =     1.9229

     72  H    Isotropic =    29.9880   Anisotropy =    10.6716

     73  H    Isotropic =    30.6322   Anisotropy =     8.1544

     74  H    Isotropic =    29.9869   Anisotropy =    10.2847

     75  H    Isotropic =    30.6095   Anisotropy =     7.4639

     76  H    Isotropic =    30.0815   Anisotropy =    11.7433

     77  H    Isotropic =    30.5448   Anisotropy =     8.6606

     78  C    Isotropic =   132.1337   Anisotropy =    32.9859

     79  C    Isotropic =   148.6890   Anisotropy =    16.4988

     80  C    Isotropic =   152.0213   Anisotropy =    14.7371

     81  H    Isotropic =    29.6644   Anisotropy =     6.7762

     82  C    Isotropic =   153.1008   Anisotropy =     8.2613

     83  H    Isotropic =    30.2219   Anisotropy =     4.8476

     84  H    Isotropic =    29.7262   Anisotropy =     8.2593

     85  C    Isotropic =   153.4753   Anisotropy =     7.8701

     86  H    Isotropic =    30.4123   Anisotropy =     7.4558

     87  H    Isotropic =    30.1746   Anisotropy =     4.5871

     88  C    Isotropic =   155.7330   Anisotropy =     2.2337

     89  H    Isotropic =    29.8908   Anisotropy =    10.2424

     90  H    Isotropic =    30.3686   Anisotropy =     7.4604

     91  H    Isotropic =    30.0349   Anisotropy =    10.6200

     92  H    Isotropic =    30.6736   Anisotropy =     7.2137

     93  H    Isotropic =    30.0701   Anisotropy =    11.6114

     94  H    Isotropic =    30.5219   Anisotropy =     8.9894

 The electronic state is 1-A.
 Alpha  occ. eigenvalues --  -77.30402 -77.23178 -19.27158 -19.26840 -10.33330
 Alpha  occ. eigenvalues --  -10.33301 -10.30187 -10.29837 -10.29813 -10.29614
 Alpha  occ. eigenvalues --  -10.29486 -10.29149 -10.28856 -10.28479 -10.28433
 Alpha  occ. eigenvalues --  -10.27957 -10.27725 -10.27680 -10.27674 -10.27580
 Alpha  occ. eigenvalues --  -10.27489 -10.27458 -10.27126 -10.27018 -10.26972
 Alpha  occ. eigenvalues --  -10.26956 -10.26912 -10.26903 -10.26889 -10.26815
 Alpha  occ. eigenvalues --  -10.26733 -10.25775 -10.25610 -10.25592 -10.25448
 Alpha  occ. eigenvalues --  -10.25444 -10.25430 -10.25363 -10.25344 -10.25317
 Alpha  occ. eigenvalues --  -10.25286 -10.25251 -10.25145 -10.25072 -10.24832
 Alpha  occ. eigenvalues --   -6.75493  -6.69189  -4.91968  -4.91767  -4.91281
 Alpha  occ. eigenvalues --   -4.85504  -4.85355  -4.85094  -3.32228  -2.09264
 Alpha  occ. eigenvalues --   -2.08402  -2.05601  -1.18659  -1.14728  -0.97623
 Alpha  occ. eigenvalues --   -0.96015  -0.94833  -0.94212  -0.93057  -0.91934
 Alpha  occ. eigenvalues --   -0.90839  -0.89549  -0.88817  -0.88424  -0.88341
 Alpha  occ. eigenvalues --   -0.84910  -0.84832  -0.84312  -0.83954  -0.83831
 Alpha  occ. eigenvalues --   -0.82916  -0.82749  -0.81977  -0.80684  -0.79903
 Alpha  occ. eigenvalues --   -0.78169  -0.76174  -0.73747  -0.72167  -0.71653
 Alpha  occ. eigenvalues --   -0.71106  -0.70886  -0.70810  -0.70504  -0.70479
 Alpha  occ. eigenvalues --   -0.69705  -0.67967  -0.66426  -0.66198  -0.66148
 Alpha  occ. eigenvalues --   -0.65172  -0.64936  -0.64108  -0.62804  -0.61736
 Alpha  occ. eigenvalues --   -0.61093  -0.60502  -0.59797  -0.59548  -0.58444
 Alpha  occ. eigenvalues --   -0.58240  -0.57537  -0.56873  -0.56628  -0.56396
 Alpha  occ. eigenvalues --   -0.56320  -0.55051  -0.54601  -0.54328  -0.54064
 Alpha  occ. eigenvalues --   -0.53969  -0.53868  -0.53753  -0.53552  -0.53143
 Alpha  occ. eigenvalues --   -0.52897  -0.52808  -0.52592  -0.52426  -0.52116
 Alpha  occ. eigenvalues --   -0.51887  -0.51225  -0.50868  -0.50604  -0.50313
 Alpha  occ. eigenvalues --   -0.49322  -0.48727  -0.48382  -0.48186  -0.48049
 Alpha  occ. eigenvalues --   -0.47955  -0.47889  -0.47608  -0.47581  -0.47295
 Alpha  occ. eigenvalues --   -0.46849  -0.46660  -0.46305  -0.45966  -0.45358
 Alpha  occ. eigenvalues --   -0.45145  -0.44797  -0.44656  -0.43914  -0.43726
 Alpha  occ. eigenvalues --   -0.43678  -0.43523  -0.43352  -0.43165  -0.42806
 Alpha  occ. eigenvalues --   -0.42395  -0.41711  -0.41485  -0.41411  -0.40949
 Alpha  occ. eigenvalues --   -0.40899  -0.40738  -0.40222  -0.39933  -0.39910
 Alpha  occ. eigenvalues --   -0.38953  -0.38228  -0.37529  -0.36912  -0.36702
 Alpha  occ. eigenvalues --   -0.35563  -0.35252  -0.34235  -0.33327  -0.33028
 Alpha  occ. eigenvalues --   -0.31314  -0.30820  -0.30003
 Alpha virt. eigenvalues --   -0.16982  -0.14643  -0.14189  -0.12705  -0.10553
 Alpha virt. eigenvalues --   -0.10135  -0.09795  -0.08768  -0.08061  -0.07530
 Alpha virt. eigenvalues --   -0.07110  -0.06818  -0.06753  -0.06308  -0.05931

 Mulliken charges:
               1
     1  P    0.379163
     2  P    0.771520
     3  C   -0.004533
     4  O   -0.331430
     5  C    0.015829
     6  O   -0.324481
     7  C   -0.562479
     8  H    0.213381
     9  H    0.210691
    10  C    0.032027
    11  C    0.122961
    12  C   -0.085775
    13  H    0.124189
    14  C   -0.071211
    15  H    0.123512
    16  C   -0.114353
    17  H    0.154160
    18  C   -0.156969
    19  H    0.124562
    20  C    0.071953
    21  C   -0.133552
    22  H    0.117502
    23  C    0.038444
    24  C   -0.120938
    25  H    0.154016
    26  C    0.021329
    27  C   -0.070738
    28  H    0.122520
    29  C    0.018245
    30  C   -0.143452
    31  H    0.115780
    32  C   -0.162864
    33  H    0.119538
    34  C   -0.182189
    35  H    0.122920
    36  C   -0.083006
    37  H    0.124342
    38  C   -0.142056
    39  H    0.117527
    40  Rh  -0.585648
    41  C   -0.028310
    42  C   -0.101574
    43  C   -0.036143
    44  C   -0.106000
    45  C   -0.344147
    46  H    0.181004
    47  H    0.190007
    48  C   -0.225273
    49  C   -0.352346
    50  H    0.213643
    51  C   -0.224234
    52  H    0.220472
    53  H    0.170486
    54  H    0.168831
    55  H    0.175870
    56  H    0.134713
    57  H    0.168143
    58  H    0.171360
    59  H    0.135962
    60  H    0.174062
    61  C   -0.209525
    62  C   -0.235701
    63  C   -0.297897
    64  H    0.162997
    65  C   -0.236135
    66  H    0.146016
    67  H    0.131038
    68  C   -0.249129
    69  H    0.141731
    70  H    0.144408
    71  C   -0.233954
    72  H    0.148773
    73  H    0.119706
    74  H    0.148912
    75  H    0.119611
    76  H    0.150622
    77  H    0.118194
    78  C   -0.138857
    79  C   -0.272103
    80  C   -0.243350
    81  H    0.156375
    82  C   -0.243000
    83  H    0.138721
    84  H    0.127480
    85  C   -0.250620
    86  H    0.119357
    87  H    0.139417
    88  C   -0.232352
    89  H    0.144922
    90  H    0.120013
    91  H    0.147905
    92  H    0.124882
    93  H    0.148435
    94  H    0.116143
 Sum of Mulliken charges =   1.00000

 Dipole moment (field-independent basis, Debye):
    X=             -4.6537    Y=              0.8095    Z=             -0.6591  Tot=              4.7693
 Quadrupole moment (field-independent basis, Debye-Ang):
   XX=           -214.8347   YY=           -249.5356   ZZ=           -272.5479
   XY=             -1.0260   XZ=              3.2636   YZ=              6.4354

 Summary of Natural Population Analysis:

                                       Natural Population
                Natural  -----------------------------------------------
    Atom  No    Charge         Core      Valence    Rydberg      Total
 -----------------------------------------------------------------------
      P    1    1.10546      9.99686     3.85055    0.04713    13.89454
      P    2    1.73341      9.99554     3.18129    0.08977    13.26659
      C    3   -0.03149      1.99904     4.01565    0.01681     6.03149
      O    4   -0.74187      1.99979     6.72943    0.01264     8.74187
      C    5   -0.06329      1.99887     4.04444    0.01998     6.06329
      O    6   -0.74236      1.99980     6.72768    0.01489     8.74236
      C    7   -1.04719      1.99943     5.03059    0.01717     7.04719
      H    8    0.26840      0.00000     0.72936    0.00223     0.73160
      H    9    0.26781      0.00000     0.73054    0.00164     0.73219
      C   10   -0.06364      1.99910     4.04860    0.01595     6.06364
      C   11    0.25787      1.99861     3.72026    0.02326     5.74213
      C   12   -0.19520      1.99920     4.18116    0.01484     6.19520
      H   13    0.21964      0.00000     0.77921    0.00115     0.78036
      C   14   -0.18463      1.99920     4.17063    0.01479     6.18463
      H   15    0.21880      0.00000     0.78001    0.00119     0.78120
      C   16   -0.18774      1.99913     4.17451    0.01409     6.18774
      H   17    0.22185      0.00000     0.77644    0.00171     0.77815
      C   18   -0.24526      1.99906     4.23073    0.01548     6.24526
      H   19    0.22297      0.00000     0.77544    0.00159     0.77703
      C   20    0.25430      1.99862     3.72423    0.02285     5.74570
      C   21   -0.17032      1.99915     4.15694    0.01424     6.17032
      H   22    0.21376      0.00000     0.78461    0.00163     0.78624
      C   23   -0.03285      1.99904     4.01731    0.01650     6.03285
      C   24   -0.18872      1.99913     4.17567    0.01392     6.18872
      H   25    0.22090      0.00000     0.77734    0.00175     0.77910
      C   26   -0.05905      1.99888     4.04070    0.01948     6.05905
      C   27   -0.18451      1.99920     4.17049    0.01481     6.18451
      H   28    0.21836      0.00000     0.78046    0.00119     0.78164
      C   29   -0.06434      1.99910     4.04928    0.01596     6.06434
      C   30   -0.17116      1.99914     4.15804    0.01397     6.17116
      H   31    0.21325      0.00000     0.78529    0.00146     0.78675
      C   32   -0.14674      1.99915     4.13336    0.01422     6.14674
      H   33    0.21812      0.00000     0.78033    0.00155     0.78188
      C   34   -0.24530      1.99906     4.23097    0.01527     6.24530
      H   35    0.22399      0.00000     0.77424    0.00177     0.77601
      C   36   -0.19493      1.99920     4.18091    0.01482     6.19493
      H   37    0.21965      0.00000     0.77916    0.00118     0.78035
      C   38   -0.14984      1.99915     4.13689    0.01380     6.14984
      H   39    0.21708      0.00000     0.78153    0.00140     0.78292
     Rh   40   -0.47007     35.98465     9.46002    0.02540    45.47007
      C   41   -0.15202      1.99907     4.13291    0.02005     6.15202
      C   42   -0.17041      1.99907     4.15040    0.02094     6.17041
      C   43   -0.18002      1.99905     4.16120    0.01977     6.18002
      C   44   -0.14801      1.99906     4.12886    0.02009     6.14801
      C   45   -0.42619      1.99936     4.41470    0.01213     6.42619
      H   46    0.22336      0.00000     0.77453    0.00211     0.77664
      H   47    0.22826      0.00000     0.76976    0.00198     0.77174
      C   48   -0.42418      1.99936     4.41233    0.01249     6.42418
      C   49   -0.42262      1.99936     4.41160    0.01165     6.42262
      H   50    0.23406      0.00000     0.76378    0.00216     0.76594
      C   51   -0.42114      1.99935     4.40942    0.01237     6.42114
      H   52    0.23946      0.00000     0.75870    0.00184     0.76054
      H   53    0.22986      0.00000     0.76872    0.00142     0.77014
      H   54    0.21313      0.00000     0.78461    0.00226     0.78687
      H   55    0.23647      0.00000     0.76176    0.00177     0.76353
      H   56    0.21969      0.00000     0.77880    0.00151     0.78031
      H   57    0.21424      0.00000     0.78391    0.00185     0.78576
      H   58    0.22980      0.00000     0.76880    0.00140     0.77020
      H   59    0.22087      0.00000     0.77761    0.00153     0.77913
      H   60    0.23533      0.00000     0.76292    0.00176     0.76467
      C   61   -0.47008      1.99935     4.45379    0.01694     6.47008
      C   62   -0.39326      1.99937     4.38343    0.01045     6.39326
      C   63   -0.39228      1.99937     4.38269    0.01022     6.39228
      H   64    0.22160      0.00000     0.77569    0.00271     0.77840
      C   65   -0.38237      1.99942     4.37328    0.00968     6.38237
      H   66    0.20046      0.00000     0.79717    0.00237     0.79954
      H   67    0.20255      0.00000     0.79550    0.00196     0.79745
      C   68   -0.38291      1.99942     4.37373    0.00976     6.38291
      H   69    0.19686      0.00000     0.80063    0.00251     0.80314
      H   70    0.20282      0.00000     0.79515    0.00203     0.79718
      C   71   -0.39008      1.99942     4.38112    0.00954     6.39008
      H   72    0.21696      0.00000     0.78167    0.00137     0.78304
      H   73    0.19271      0.00000     0.80542    0.00187     0.80729
      H   74    0.21621      0.00000     0.78241    0.00139     0.78379
      H   75    0.19224      0.00000     0.80587    0.00188     0.80776
      H   76    0.21703      0.00000     0.78163    0.00134     0.78297
      H   77    0.19416      0.00000     0.80405    0.00179     0.80584
      C   78   -0.47485      1.99934     4.45711    0.01840     6.47485
      C   79   -0.38952      1.99937     4.38028    0.00987     6.38952
      C   80   -0.39362      1.99938     4.38336    0.01088     6.39362
      H   81    0.22964      0.00000     0.76742    0.00294     0.77036
      C   82   -0.38332      1.99942     4.37420    0.00970     6.38332
      H   83    0.19451      0.00000     0.80313    0.00237     0.80549
      H   84    0.20683      0.00000     0.79121    0.00195     0.79317
      C   85   -0.38310      1.99942     4.37400    0.00969     6.38310
      H   86    0.19333      0.00000     0.80412    0.00255     0.80667
      H   87    0.20425      0.00000     0.79352    0.00223     0.79575
      C   88   -0.38961      1.99942     4.38070    0.00950     6.38961
      H   89    0.21429      0.00000     0.78432    0.00139     0.78571
      H   90    0.19309      0.00000     0.80504    0.00187     0.80691
      H   91    0.21582      0.00000     0.78280    0.00138     0.78418
      H   92    0.19532      0.00000     0.80286    0.00183     0.80468
      H   93    0.21635      0.00000     0.78230    0.00135     0.78365
      H   94    0.19290      0.00000     0.80529    0.00181     0.80710
 =======================================================================
   * Total *    1.00000    141.94346   241.17449    0.88206   384.00000

 Normal termination of Gaussian 16 at Tue Nov 19 11:58:45 2024.
