 Gaussian 16, Revision B.01,
 Gaussian 16:  ES64L-G16RevB.01 20-Dec-2017

 ------------------------------------------
 # nmr=giao b3lyp/genecp pop=nbo scfcyc=200
 ------------------------------------------

 -------------
 Ligand 89 SPE
 -------------
 Symbolic Z-matrix:
 Charge =  1 Multiplicity = 1

                         Standard orientation:
 ---------------------------------------------------------------------
 Center     Atomic      Atomic             Coordinates (Angstroms)
 Number     Number       Type             X           Y           Z
 ---------------------------------------------------------------------
      1         45           0        0.205960   -0.131140    1.195100
      2         15           0        0.259020   -1.252530   -0.898940
      3         15           0       -0.527901    1.393190   -0.435950
      4          6           0        1.551630   -1.418340    2.475320
      5          1           0        2.176040   -1.916240    1.741600
      6          6           0        0.275740   -1.901870    2.657310
      7          1           0       -0.023100   -2.742540    2.040990
      8          6           0       -0.611440   -1.623650    3.855580
      9          1           0        0.005310   -1.497180    4.745030
     10          1           0       -1.229390   -2.503461    4.043370
     11          6           0       -1.539310   -0.405371    3.664420
     12          1           0       -2.427810   -0.715221    3.110300
     13          1           0       -1.901310   -0.057511    4.640270
     14          6           0       -0.918341    0.749139    2.917480
     15          1           0       -1.638721    1.416799    2.456760
     16          6           0        0.382559    1.203700    3.024210
     17          1           0        0.586699    2.187730    2.615650
     18          6           0        1.432569    0.664420    3.977950
     19          1           0        0.954459    0.327930    4.897770
     20          1           0        2.091939    1.484250    4.267510
     21          6           0        2.296910   -0.464610    3.374940
     22          1           0        3.104209   -0.023740    2.786370
     23          1           0        2.787730   -1.025660    4.180110
     24          6           0        3.127490   -1.374600   -1.391490
     25          6           0        3.761830   -2.217750   -0.473690
     26          1           0        3.292480   -3.144020   -0.165220
     27          6           0        5.012980   -1.898880    0.043470
     28          1           0        5.491540   -2.572860    0.743380
     29          6           0        5.656220   -0.728720   -0.347240
     30          1           0        6.635260   -0.486949    0.046750
     31          6           0        5.038369    0.117800   -1.261150
     32          1           0        5.534839    1.024270   -1.584540
     33          6           0        3.787330   -0.203950   -1.776090
     34          1           0        3.323659    0.459350   -2.497510
     35          6           0        1.775320   -1.695150   -1.982610
     36          1           0        1.641900   -1.070600   -2.868880
     37          6           0        1.538620   -3.164870   -2.393210
     38          1           0        2.086570   -3.383610   -3.311530
     39          1           0        1.926100   -3.840420   -1.628200
     40          6           0        0.036550   -3.394800   -2.555950
     41          1           0       -0.196270   -4.449910   -2.713990
     42          1           0       -0.327280   -2.853230   -3.432260
     43          6           0       -0.649820   -2.883400   -1.277210
     44          1           0       -0.342750   -3.533570   -0.452480
     45          6           0       -2.156020   -2.806341   -1.269020
     46          6           0       -2.896260   -2.495481   -2.414780
     47          1           0       -2.396630   -2.317431   -3.358390
     48          6           0       -4.286490   -2.435031   -2.372700
     49          1           0       -4.839160   -2.206141   -3.275430
     50          6           0       -4.964390   -2.681171   -1.184070
     51          1           0       -6.046040   -2.645201   -1.155110
     52          6           0       -4.241440   -2.993761   -0.036620
     53          1           0       -4.759530   -3.204201    0.890850
     54          6           0       -2.853830   -3.055101   -0.081710
     55          1           0       -2.303690   -3.317031    0.814760
     56          6           0       -0.651541    0.117540   -1.800290
     57          1           0       -1.689300   -0.171391   -1.967880
     58          1           0       -0.213901    0.433150   -2.747170
     59          6           0       -2.158361    2.238909   -0.293880
     60          6           0       -3.338011    1.486229   -0.324860
     61          6           0       -2.230251    3.612569   -0.043880
     62          6           0       -4.567971    2.105709   -0.138870
     63          1           0       -3.310471    0.415959   -0.489680
     64          6           0       -3.464541    4.225539    0.148190
     65          1           0       -1.329471    4.211279   -0.010390
     66          6           0       -4.634271    3.475909    0.097070
     67          1           0       -5.475011    1.515699   -0.176570
     68          1           0       -3.509031    5.291349    0.333780
     69          1           0       -5.593731    3.955859    0.242530
     70          6           0        0.650519    2.661890   -1.053840
     71          6           0        0.387559    3.366250   -2.235460
     72          6           0        1.831119    2.913300   -0.353170
     73          6           0        1.293189    4.310500   -2.700690
     74          1           0       -0.527961    3.189770   -2.787580
     75          6           0        2.735199    3.863230   -0.821360
     76          1           0        2.047829    2.359360    0.551180
     77          6           0        2.467219    4.561340   -1.992600
     78          1           0        1.082589    4.854050   -3.613170
     79          1           0        3.647479    4.054500   -0.270540
     80          1           0        3.169179    5.301490   -2.355740
 ---------------------------------------------------------------------

 SCF Done:  E(RB3LYP) =  -2227.71052243     A.U. after   16 cycles

      1  Rh   Isotropic =  -321.0657   Anisotropy =   376.9335

      2  P    Isotropic =   292.2896   Anisotropy =   159.9198

      3  P    Isotropic =   318.4824   Anisotropy =   115.7081

      4  C    Isotropic =    74.4800   Anisotropy =   120.9100

      5  H    Isotropic =    26.3045   Anisotropy =     6.4112

      6  C    Isotropic =    76.5723   Anisotropy =   123.6840

      7  H    Isotropic =    26.6521   Anisotropy =     5.2291

      8  C    Isotropic =   153.9110   Anisotropy =    24.6614

      9  H    Isotropic =    29.8686   Anisotropy =     9.5129

     10  H    Isotropic =    29.8337   Anisotropy =    10.8376

     11  C    Isotropic =   147.9549   Anisotropy =    29.1236

     12  H    Isotropic =    29.3780   Anisotropy =     7.3246

     13  H    Isotropic =    29.4715   Anisotropy =    12.5234

     14  C    Isotropic =    73.0830   Anisotropy =   123.4578

     15  H    Isotropic =    27.5782   Anisotropy =     3.9431

     16  C    Isotropic =    83.3331   Anisotropy =   115.5674

     17  H    Isotropic =    27.5346   Anisotropy =     6.5709

     18  C    Isotropic =   154.7008   Anisotropy =    24.1802

     19  H    Isotropic =    30.0397   Anisotropy =     9.8128

     20  H    Isotropic =    30.0967   Anisotropy =    11.5816

     21  C    Isotropic =   148.7272   Anisotropy =    28.6213

     22  H    Isotropic =    29.6932   Anisotropy =     8.0666

     23  H    Isotropic =    29.3471   Anisotropy =    12.0471

     24  C    Isotropic =    39.5037   Anisotropy =   193.2023

     25  C    Isotropic =    53.8422   Anisotropy =   182.7480

     26  H    Isotropic =    24.5077   Anisotropy =     9.5589

     27  C    Isotropic =    49.1382   Anisotropy =   190.1467

     28  H    Isotropic =    24.1302   Anisotropy =     5.5486

     29  C    Isotropic =    49.6526   Anisotropy =   190.8701

     30  H    Isotropic =    24.1963   Anisotropy =     3.6433

     31  C    Isotropic =    48.8840   Anisotropy =   188.8395

     32  H    Isotropic =    24.4695   Anisotropy =     5.6201

     33  C    Isotropic =    48.7853   Anisotropy =   163.5480

     34  H    Isotropic =    25.4021   Anisotropy =     6.6046

     35  C    Isotropic =   119.0423   Anisotropy =    25.4190

     36  H    Isotropic =    28.6396   Anisotropy =     5.6081

     37  C    Isotropic =   146.4937   Anisotropy =    27.1952

     38  H    Isotropic =    29.4817   Anisotropy =    10.4270

     39  H    Isotropic =    29.6400   Anisotropy =     7.7953

     40  C    Isotropic =   148.6374   Anisotropy =    25.0118

     41  H    Isotropic =    29.4967   Anisotropy =    10.9250

     42  H    Isotropic =    29.6388   Anisotropy =     7.9221

     43  C    Isotropic =   125.9223   Anisotropy =    36.6311

     44  H    Isotropic =    28.1695   Anisotropy =     4.7319

     45  C    Isotropic =    42.9118   Anisotropy =   188.2678

     46  C    Isotropic =    51.7863   Anisotropy =   185.3140

     47  H    Isotropic =    24.3682   Anisotropy =    10.4940

     48  C    Isotropic =    48.4729   Anisotropy =   190.9269

     49  H    Isotropic =    23.9484   Anisotropy =     5.3234

     50  C    Isotropic =    49.2876   Anisotropy =   191.0868

     51  H    Isotropic =    23.9881   Anisotropy =     3.1185

     52  C    Isotropic =    48.6079   Anisotropy =   189.0735

     53  H    Isotropic =    23.9969   Anisotropy =     6.0091

     54  C    Isotropic =    48.2666   Anisotropy =   164.0361

     55  H    Isotropic =    24.1885   Anisotropy =     8.0305

     56  C    Isotropic =   129.2033   Anisotropy =    51.5170

     57  H    Isotropic =    27.6740   Anisotropy =     7.2798

     58  H    Isotropic =    28.8350   Anisotropy =     7.4416

     59  C    Isotropic =    44.0982   Anisotropy =   167.3060

     60  C    Isotropic =    49.7518   Anisotropy =   187.7472

     61  C    Isotropic =    47.7838   Anisotropy =   189.7023

     62  C    Isotropic =    49.1586   Anisotropy =   188.4091

     63  H    Isotropic =    25.5236   Anisotropy =     7.2654

     64  C    Isotropic =    49.1796   Anisotropy =   189.1217

     65  H    Isotropic =    25.2972   Anisotropy =    12.6037

     66  C    Isotropic =    46.8481   Anisotropy =   194.8293

     67  H    Isotropic =    24.4661   Anisotropy =     8.0725

     68  H    Isotropic =    24.5242   Anisotropy =     6.3188

     69  H    Isotropic =    24.2913   Anisotropy =     4.2694

     70  C    Isotropic =    45.6523   Anisotropy =   174.0834

     71  C    Isotropic =    46.5801   Anisotropy =   187.5384

     72  C    Isotropic =    40.4293   Anisotropy =   183.6331

     73  C    Isotropic =    47.7210   Anisotropy =   190.8498

     74  H    Isotropic =    24.4526   Anisotropy =    11.6110

     75  C    Isotropic =    49.6155   Anisotropy =   188.5673

     76  H    Isotropic =    23.8505   Anisotropy =     9.0010

     77  C    Isotropic =    44.5791   Anisotropy =   198.4005

     78  H    Isotropic =    24.0561   Anisotropy =     5.9163

     79  H    Isotropic =    24.1452   Anisotropy =     6.3486

     80  H    Isotropic =    23.8835   Anisotropy =     3.9025

 The electronic state is 1-A.
 Alpha  occ. eigenvalues --  -77.23783 -77.22884 -10.30354 -10.30226 -10.29982
 Alpha  occ. eigenvalues --  -10.29643 -10.29516 -10.29108 -10.29039 -10.28944
 Alpha  occ. eigenvalues --  -10.28780 -10.28680 -10.28557 -10.28483 -10.28221
 Alpha  occ. eigenvalues --  -10.28166 -10.28031 -10.27997 -10.27899 -10.27884
 Alpha  occ. eigenvalues --  -10.27793 -10.27728 -10.27463 -10.27411 -10.27395
 Alpha  occ. eigenvalues --  -10.27378 -10.27339 -10.27281 -10.27218 -10.27207
 Alpha  occ. eigenvalues --  -10.27182 -10.26928 -10.26912 -10.26763 -10.26669
 Alpha  occ. eigenvalues --  -10.26599 -10.26500 -10.26391 -10.26197  -6.69766
 Alpha  occ. eigenvalues --   -6.68903  -4.86046  -4.85990  -4.85668  -4.85181
 Alpha  occ. eigenvalues --   -4.85099  -4.84800  -3.31595  -2.08504  -2.07817
 Alpha  occ. eigenvalues --   -2.05043  -0.96908  -0.96666  -0.96077  -0.95737
 Alpha  occ. eigenvalues --   -0.94422  -0.93327  -0.89136  -0.88846  -0.88065
 Alpha  occ. eigenvalues --   -0.88001  -0.85483  -0.85364  -0.85047  -0.84883
 Alpha  occ. eigenvalues --   -0.84557  -0.84381  -0.83993  -0.80315  -0.79999
 Alpha  occ. eigenvalues --   -0.77843  -0.77773  -0.74290  -0.71575  -0.71365
 Alpha  occ. eigenvalues --   -0.71009  -0.70550  -0.70304  -0.70252  -0.70088
 Alpha  occ. eigenvalues --   -0.69339  -0.66955  -0.66691  -0.65818  -0.65109
 Alpha  occ. eigenvalues --   -0.62591  -0.62406  -0.61605  -0.61498  -0.60586
 Alpha  occ. eigenvalues --   -0.59987  -0.57701  -0.57641  -0.57009  -0.56617
 Alpha  occ. eigenvalues --   -0.56223  -0.56198  -0.56179  -0.55513  -0.55452
 Alpha  occ. eigenvalues --   -0.55022  -0.54926  -0.54153  -0.53807  -0.53580
 Alpha  occ. eigenvalues --   -0.52922  -0.52732  -0.52566  -0.52548  -0.52308
 Alpha  occ. eigenvalues --   -0.52099  -0.51595  -0.51140  -0.50748  -0.49890
 Alpha  occ. eigenvalues --   -0.49069  -0.48607  -0.48110  -0.47954  -0.47523
 Alpha  occ. eigenvalues --   -0.47442  -0.47300  -0.46607  -0.46238  -0.45966
 Alpha  occ. eigenvalues --   -0.45884  -0.45314  -0.45118  -0.44974  -0.44368
 Alpha  occ. eigenvalues --   -0.44012  -0.43621  -0.43555  -0.43383  -0.43224
 Alpha  occ. eigenvalues --   -0.43124  -0.42938  -0.42843  -0.42134  -0.41160
 Alpha  occ. eigenvalues --   -0.37980  -0.36845  -0.36475  -0.36371  -0.35826
 Alpha  occ. eigenvalues --   -0.35604  -0.35270  -0.34956  -0.34750  -0.34582
 Alpha  occ. eigenvalues --   -0.34364  -0.33950  -0.33240  -0.30781
 Alpha virt. eigenvalues --   -0.16598  -0.14786  -0.13641  -0.12261  -0.11979
 Alpha virt. eigenvalues --   -0.11654  -0.11117  -0.10767  -0.10564  -0.10390
 Alpha virt. eigenvalues --   -0.09223  -0.08077  -0.07592  -0.07018  -0.06503

 Mulliken charges:
               1
     1  Rh  -0.479498
     2  P    0.447856
     3  P    0.358514
     4  C   -0.062512
     5  H    0.185329
     6  C   -0.025007
     7  H    0.168429
     8  C   -0.364883
     9  H    0.169866
    10  H    0.166139
    11  C   -0.224675
    12  H    0.131580
    13  H    0.171441
    14  C   -0.100089
    15  H    0.214820
    16  C   -0.022276
    17  H    0.183534
    18  C   -0.357240
    19  H    0.166132
    20  H    0.168113
    21  C   -0.243030
    22  H    0.141086
    23  H    0.172593
    24  C    0.190557
    25  C   -0.233645
    26  H    0.131783
    27  C   -0.088253
    28  H    0.126646
    29  C   -0.114255
    30  H    0.130567
    31  C   -0.088896
    32  H    0.124071
    33  C   -0.150160
    34  H    0.117489
    35  C   -0.359015
    36  H    0.209219
    37  C   -0.286303
    38  H    0.163540
    39  H    0.162823
    40  C   -0.246733
    41  H    0.165680
    42  H    0.146622
    43  C   -0.361229
    44  H    0.215748
    45  C    0.064065
    46  C   -0.173631
    47  H    0.133650
    48  C   -0.085152
    49  H    0.129639
    50  C   -0.117976
    51  H    0.133890
    52  C   -0.105278
    53  H    0.126593
    54  C   -0.113869
    55  H    0.110136
    56  C   -0.594615
    57  H    0.232656
    58  H    0.205791
    59  C   -0.220641
    60  C   -0.056092
    61  C   -0.037851
    62  C   -0.147440
    63  H    0.178030
    64  C   -0.112158
    65  H    0.157723
    66  C   -0.078987
    67  H    0.130546
    68  H    0.134534
    69  H    0.139151
    70  C   -0.263917
    71  C   -0.091119
    72  C   -0.003777
    73  C   -0.084122
    74  H    0.150089
    75  C   -0.125498
    76  H    0.146278
    77  C   -0.092483
    78  H    0.137555
    79  H    0.131043
    80  H    0.140764
 Sum of Mulliken charges =   1.00000

 Dipole moment (field-independent basis, Debye):
    X=             -0.4119    Y=              0.8035    Z=             -0.1009  Tot=              0.9086
 Quadrupole moment (field-independent basis, Debye-Ang):
   XX=           -211.5958   YY=           -220.9834   ZZ=           -227.3780
   XY=              2.4877   XZ=              2.9501   YZ=             -6.1269

 Summary of Natural Population Analysis:

                                       Natural Population
                Natural  -----------------------------------------------
    Atom  No    Charge         Core      Valence    Rydberg      Total
 -----------------------------------------------------------------------
     Rh    1   -0.37199     35.98576     9.35770    0.02853    45.37199
      P    2    1.04976      9.99688     3.90777    0.04559    13.95024
      P    3    1.13019      9.99650     3.82284    0.05047    13.86981
      C    4   -0.16609      1.99909     4.14688    0.02013     6.16609
      H    5    0.23303      0.00000     0.76467    0.00230     0.76697
      C    6   -0.16966      1.99908     4.15093    0.01965     6.16966
      H    7    0.21757      0.00000     0.78040    0.00203     0.78243
      C    8   -0.42440      1.99936     4.41311    0.01193     6.42440
      H    9    0.21583      0.00000     0.78222    0.00195     0.78417
      H   10    0.22657      0.00000     0.77193    0.00150     0.77343
      C   11   -0.41813      1.99935     4.40615    0.01262     6.41813
      H   12    0.21806      0.00000     0.78026    0.00167     0.78194
      H   13    0.23349      0.00000     0.76464    0.00187     0.76651
      C   14   -0.14884      1.99909     4.13006    0.01969     6.14884
      H   15    0.23200      0.00000     0.76598    0.00202     0.76800
      C   16   -0.19042      1.99908     4.17189    0.01945     6.19042
      H   17    0.22467      0.00000     0.77329    0.00203     0.77533
      C   18   -0.42210      1.99936     4.41101    0.01173     6.42210
      H   19    0.21463      0.00000     0.78341    0.00196     0.78537
      H   20    0.22786      0.00000     0.77065    0.00149     0.77214
      C   21   -0.42020      1.99935     4.40814    0.01272     6.42020
      H   22    0.22044      0.00000     0.77772    0.00184     0.77956
      H   23    0.23346      0.00000     0.76465    0.00189     0.76654
      C   24   -0.04041      1.99907     4.02150    0.01984     6.04041
      C   25   -0.21598      1.99909     4.20270    0.01420     6.21598
      H   26    0.20341      0.00000     0.79439    0.00220     0.79659
      C   27   -0.19310      1.99921     4.17902    0.01487     6.19310
      H   28    0.21718      0.00000     0.78156    0.00126     0.78282
      C   29   -0.20113      1.99920     4.18711    0.01483     6.20113
      H   30    0.21901      0.00000     0.77978    0.00122     0.78099
      C   31   -0.19098      1.99920     4.17712    0.01466     6.19098
      H   32    0.21682      0.00000     0.78190    0.00129     0.78318
      C   33   -0.19687      1.99911     4.18332    0.01444     6.19687
      H   34    0.20736      0.00000     0.79081    0.00183     0.79264
      C   35   -0.45075      1.99930     4.43344    0.01801     6.45075
      H   36    0.22791      0.00000     0.76885    0.00324     0.77209
      C   37   -0.38780      1.99939     4.37691    0.01149     6.38780
      H   38    0.23283      0.00000     0.76565    0.00153     0.76717
      H   39    0.20267      0.00000     0.79569    0.00164     0.79733
      C   40   -0.39098      1.99938     4.37996    0.01163     6.39098
      H   41    0.23314      0.00000     0.76528    0.00158     0.76686
      H   42    0.19761      0.00000     0.80070    0.00169     0.80239
      C   43   -0.45353      1.99931     4.43700    0.01722     6.45353
      H   44    0.22885      0.00000     0.76857    0.00257     0.77115
      C   45   -0.04506      1.99906     4.02572    0.02028     6.04506
      C   46   -0.21845      1.99909     4.20503    0.01433     6.21845
      H   47    0.20887      0.00000     0.78935    0.00178     0.79113
      C   48   -0.19179      1.99921     4.17765    0.01493     6.19179
      H   49    0.21959      0.00000     0.77917    0.00124     0.78041
      C   50   -0.20151      1.99920     4.18743    0.01488     6.20151
      H   51    0.22034      0.00000     0.77845    0.00121     0.77966
      C   52   -0.19273      1.99920     4.17890    0.01463     6.19273
      H   53    0.21803      0.00000     0.78073    0.00124     0.78197
      C   54   -0.19770      1.99911     4.18406    0.01454     6.19770
      H   55    0.20513      0.00000     0.79309    0.00179     0.79487
      C   56   -0.99099      1.99943     4.97405    0.01751     6.99099
      H   57    0.27188      0.00000     0.72616    0.00197     0.72812
      H   58    0.25410      0.00000     0.74399    0.00191     0.74590
      C   59   -0.34287      1.99900     4.32041    0.02347     6.34287
      C   60   -0.19835      1.99909     4.18365    0.01560     6.19835
      C   61   -0.19644      1.99910     4.18206    0.01528     6.19644
      C   62   -0.19082      1.99920     4.17687    0.01474     6.19082
      H   63    0.21733      0.00000     0.78038    0.00230     0.78267
      C   64   -0.18999      1.99920     4.17604    0.01475     6.18999
      H   65    0.22250      0.00000     0.77577    0.00173     0.77750
      C   66   -0.18125      1.99920     4.16733    0.01471     6.18125
      H   67    0.22121      0.00000     0.77751    0.00128     0.77879
      H   68    0.22285      0.00000     0.77593    0.00121     0.77715
      H   69    0.22268      0.00000     0.77615    0.00117     0.77732
      C   70   -0.35063      1.99900     4.32742    0.02421     6.35063
      C   71   -0.19191      1.99910     4.17683    0.01598     6.19191
      C   72   -0.17754      1.99910     4.16281    0.01564     6.17754
      C   73   -0.19388      1.99920     4.18002    0.01467     6.19388
      H   74    0.21787      0.00000     0.78017    0.00196     0.78213
      C   75   -0.19788      1.99920     4.18398    0.01470     6.19788
      H   76    0.22336      0.00000     0.77460    0.00204     0.77664
      C   77   -0.17575      1.99921     4.16198    0.01456     6.17575
      H   78    0.22390      0.00000     0.77487    0.00123     0.77610
      H   79    0.22168      0.00000     0.77708    0.00125     0.77832
      H   80    0.22323      0.00000     0.77560    0.00117     0.77677
 =======================================================================
   * Total *    1.00000    129.94902   205.26880    0.78218   336.00000

 Normal termination of Gaussian 16 at Tue Nov 19 11:47:17 2024.
