 Gaussian 16, Revision B.01,
 Gaussian 16:  ES64L-G16RevB.01 20-Dec-2017

 --------------------------------------------
 # nmr=giao b3lyp/def2TZVP pop=nbo scfcyc=200
 --------------------------------------------

 ---------------
 cyPAMP SPE NoRh
 ---------------
 Symbolic Z-matrix:
 Charge =  0 Multiplicity = 1

                         Standard orientation:
 ---------------------------------------------------------------------
 Center     Atomic      Atomic             Coordinates (Angstroms)
 Number     Number       Type             X           Y           Z
 ---------------------------------------------------------------------
      1         15           0        1.381192   -0.430390    0.430212
      2         15           0       -1.428560   -0.292490    0.629027
      3          8           0        3.820903    0.729479    1.491054
      4          6           0        2.206481    1.103091   -0.171724
      5          6           0        3.387164    1.523749    0.475124
      6          6           0        4.041640    2.681458    0.058992
      7          1           0        4.950383    3.003896    0.546407
      8          6           0        3.521908    3.434192   -0.989219
      9          1           0        4.038324    4.333211   -1.301693
     10          6           0        2.358320    3.037378   -1.633199
     11          1           0        1.958977    3.618509   -2.454209
     12          6           0        1.712056    1.876821   -1.222112
     13          1           0        0.815051    1.574433   -1.743954
     14          6           0        5.093563    0.992167    2.088188
     15          1           0        5.247062    0.199508    2.815168
     16          1           0        5.099957    1.959369    2.596985
     17          1           0        5.889841    0.961045    1.341470
     18          6           0        2.521315   -1.813797   -0.009950
     19          6           0        2.376875   -3.037462    0.648413
     20          1           0        1.643485   -3.140270    1.439894
     21          6           0        3.169371   -4.123881    0.292997
     22          1           0        3.050827   -5.068537    0.808275
     23          6           0        4.116122   -3.993532   -0.717764
     24          1           0        4.736894   -4.837035   -0.992505
     25          6           0        4.265482   -2.775712   -1.375327
     26          1           0        5.000711   -2.671336   -2.162915
     27          6           0        3.471278   -1.689051   -1.026394
     28          1           0        3.596971   -0.747439   -1.545364
     29          6           0       -0.127102   -0.709615   -0.648927
     30          1           0       -0.180473   -0.192024   -1.606297
     31          1           0       -0.159470   -1.781139   -0.846586
     32          6           0       -1.925594    1.478124    0.225888
     33          6           0       -2.690109    1.675271   -1.094234
     34          6           0       -2.639772    2.190185    1.390610
     35          1           0       -0.942650    1.954893    0.119849
     36          6           0       -2.878702    3.169037   -1.397821
     37          1           0       -3.675580    1.206657   -1.019309
     38          1           0       -2.173225    1.189056   -1.925843
     39          6           0       -2.844034    3.679520    1.078490
     40          1           0       -3.613061    1.725006    1.573210
     41          1           0       -2.055453    2.080702    2.306720
     42          6           0       -3.582191    3.892264   -0.245985
     43          1           0       -3.446513    3.282824   -2.323978
     44          1           0       -1.899752    3.628940   -1.573778
     45          1           0       -3.390528    4.151837    1.898094
     46          1           0       -1.865670    4.172471    1.032569
     47          1           0       -3.663176    4.959537   -0.464892
     48          1           0       -4.607599    3.515127   -0.155891
     49          6           0       -2.830311   -1.524814    0.377022
     50          6           0       -4.077679   -1.190669    1.217445
     51          6           0       -3.217543   -1.829886   -1.080964
     52          1           0       -2.386563   -2.437600    0.794325
     53          6           0       -5.100750   -2.334198    1.153488
     54          1           0       -4.541922   -0.277650    0.832851
     55          1           0       -3.807611   -0.990414    2.257499
     56          6           0       -4.238944   -2.975859   -1.138049
     57          1           0       -3.652346   -0.941572   -1.545808
     58          1           0       -2.337283   -2.095802   -1.670846
     59          6           0       -5.478901   -2.674208   -0.290611
     60          1           0       -5.990111   -2.059125    1.724976
     61          1           0       -4.679930   -3.220687    1.640129
     62          1           0       -4.523895   -3.157589   -2.177502
     63          1           0       -3.766564   -3.897831   -0.780149
     64          1           0       -6.163161   -3.526384   -0.308876
     65          1           0       -6.022296   -1.830682   -0.731311
 ---------------------------------------------------------------------

 SCF Done:  E(RB3LYP) =  -1770.81568385     A.U. after   14 cycles

      1  P    Isotropic =   255.9122   Anisotropy =    71.5528

      2  P    Isotropic =   222.2651   Anisotropy =   100.6094

      3  O    Isotropic =   209.3733   Anisotropy =   115.1231

      4  C    Isotropic =    48.7892   Anisotropy =   168.1851

      5  C    Isotropic =    14.9864   Anisotropy =   138.1949

      6  C    Isotropic =    71.1347   Anisotropy =   157.1523

      7  H    Isotropic =    25.0476   Anisotropy =     7.4048

      8  C    Isotropic =    49.5941   Anisotropy =   180.7231

      9  H    Isotropic =    24.3645   Anisotropy =     4.4617

     10  C    Isotropic =    59.0327   Anisotropy =   170.1344

     11  H    Isotropic =    24.6637   Anisotropy =     6.1523

     12  C    Isotropic =    47.8062   Anisotropy =   183.8632

     13  H    Isotropic =    24.2441   Anisotropy =     9.4735

     14  C    Isotropic =   126.6394   Anisotropy =    77.8159

     15  H    Isotropic =    28.2126   Anisotropy =     8.7885

     16  H    Isotropic =    28.2388   Anisotropy =     9.7897

     17  H    Isotropic =    28.6316   Anisotropy =     9.0974

     18  C    Isotropic =    29.7997   Anisotropy =   210.3481

     19  C    Isotropic =    45.2416   Anisotropy =   178.4876

     20  H    Isotropic =    23.8738   Anisotropy =     9.2923

     21  C    Isotropic =    50.0484   Anisotropy =   182.4740

     22  H    Isotropic =    24.3058   Anisotropy =     5.5913

     23  C    Isotropic =    50.7472   Anisotropy =   184.6775

     24  H    Isotropic =    24.4706   Anisotropy =     4.1684

     25  C    Isotropic =    50.5001   Anisotropy =   181.7098

     26  H    Isotropic =    24.6593   Anisotropy =     6.6633

     27  C    Isotropic =    46.8275   Anisotropy =   184.4159

     28  H    Isotropic =    24.7692   Anisotropy =    12.9197

     29  C    Isotropic =   158.5785   Anisotropy =    30.3733

     30  H    Isotropic =    29.3064   Anisotropy =     3.5218

     31  H    Isotropic =    30.9773   Anisotropy =     5.6679

     32  C    Isotropic =   137.4947   Anisotropy =    22.4331

     33  C    Isotropic =   147.4248   Anisotropy =    12.1669

     34  C    Isotropic =   146.3377   Anisotropy =    16.9136

     35  H    Isotropic =    30.5844   Anisotropy =     9.3193

     36  C    Isotropic =   150.2959   Anisotropy =     8.3695

     37  H    Isotropic =    30.4140   Anisotropy =     7.7024

     38  H    Isotropic =    29.7315   Anisotropy =     4.3092

     39  C    Isotropic =   150.6189   Anisotropy =     7.1082

     40  H    Isotropic =    30.5948   Anisotropy =     6.5995

     41  H    Isotropic =    29.9614   Anisotropy =     5.9434

     42  C    Isotropic =   152.5204   Anisotropy =     3.2216

     43  H    Isotropic =    30.0848   Anisotropy =     9.3222

     44  H    Isotropic =    30.7336   Anisotropy =     7.5680

     45  H    Isotropic =    30.2475   Anisotropy =    10.1653

     46  H    Isotropic =    30.8086   Anisotropy =     7.0576

     47  H    Isotropic =    30.2852   Anisotropy =    10.5004

     48  H    Isotropic =    30.7058   Anisotropy =     8.3592

     49  C    Isotropic =   134.3226   Anisotropy =    25.2176

     50  C    Isotropic =   149.3812   Anisotropy =     9.5056

     51  C    Isotropic =   147.9945   Anisotropy =    14.4146

     52  H    Isotropic =    30.0940   Anisotropy =     4.7061

     53  C    Isotropic =   150.7076   Anisotropy =     7.3019

     54  H    Isotropic =    30.6880   Anisotropy =     7.4082

     55  H    Isotropic =    29.8604   Anisotropy =     5.3895

     56  C    Isotropic =   150.7903   Anisotropy =     8.3275

     57  H    Isotropic =    30.4150   Anisotropy =     6.8935

     58  H    Isotropic =    30.0246   Anisotropy =     7.1989

     59  C    Isotropic =   152.4736   Anisotropy =     3.0946

     60  H    Isotropic =    30.1028   Anisotropy =     9.7437

     61  H    Isotropic =    30.6710   Anisotropy =     8.4428

     62  H    Isotropic =    30.2143   Anisotropy =     9.3897

     63  H    Isotropic =    30.8476   Anisotropy =     7.8909

     64  H    Isotropic =    30.2246   Anisotropy =    10.6026

     65  H    Isotropic =    30.6749   Anisotropy =     7.7669

 The electronic state is 1-A.
 Alpha  occ. eigenvalues --  -77.04308 -77.02691 -19.15981 -10.23852 -10.22775
 Alpha  occ. eigenvalues --  -10.18041 -10.17795 -10.17742 -10.17707 -10.17543
 Alpha  occ. eigenvalues --  -10.17506 -10.17437 -10.17402 -10.17358 -10.17280
 Alpha  occ. eigenvalues --  -10.17174 -10.17154 -10.17119 -10.16941 -10.16477
 Alpha  occ. eigenvalues --  -10.16363 -10.16189 -10.16124 -10.16110 -10.16072
 Alpha  occ. eigenvalues --  -10.16048 -10.16041 -10.16039 -10.15961  -6.52819
 Alpha  occ. eigenvalues --   -6.51282  -4.68979  -4.68939  -4.68449  -4.67450
 Alpha  occ. eigenvalues --   -4.67381  -4.66898  -1.06848  -0.85840  -0.85415
 Alpha  occ. eigenvalues --   -0.83279  -0.82677  -0.77343  -0.75864  -0.75228
 Alpha  occ. eigenvalues --   -0.74718  -0.74539  -0.74088  -0.73854  -0.73449
 Alpha  occ. eigenvalues --   -0.71687  -0.69911  -0.63609  -0.62026  -0.60983
 Alpha  occ. eigenvalues --   -0.60488  -0.60407  -0.60235  -0.60076  -0.59507
 Alpha  occ. eigenvalues --   -0.56107  -0.55633  -0.54955  -0.53353  -0.52474
 Alpha  occ. eigenvalues --   -0.50741  -0.48735  -0.47821  -0.47701  -0.47410
 Alpha  occ. eigenvalues --   -0.46514  -0.45266  -0.45094  -0.44887  -0.44380
 Alpha  occ. eigenvalues --   -0.44070  -0.43971  -0.43662  -0.43054  -0.42497
 Alpha  occ. eigenvalues --   -0.42228  -0.42075  -0.41743  -0.40328  -0.39397
 Alpha  occ. eigenvalues --   -0.38487  -0.38338  -0.37893  -0.37743  -0.37413
 Alpha  occ. eigenvalues --   -0.37230  -0.37054  -0.36289  -0.35858  -0.35085
 Alpha  occ. eigenvalues --   -0.34925  -0.34711  -0.34488  -0.33828  -0.33668
 Alpha  occ. eigenvalues --   -0.33007  -0.32721  -0.32195  -0.31812  -0.31264
 Alpha  occ. eigenvalues --   -0.30548  -0.30042  -0.29278  -0.27417  -0.26877
 Alpha  occ. eigenvalues --   -0.25646  -0.25482  -0.23428  -0.21028  -0.17719
 Alpha virt. eigenvalues --   -0.02659  -0.01845  -0.01431  -0.00308   0.02364
 Alpha virt. eigenvalues --    0.02897   0.03186   0.03897   0.04032   0.04593
 Alpha virt. eigenvalues --    0.05119   0.05591   0.05931   0.06227   0.06483

 Mulliken charges:
               1
     1  P    0.165500
     2  P    0.146420
     3  O   -0.278568
     4  C   -0.041219
     5  C    0.295596
     6  C   -0.256490
     7  H    0.115177
     8  C   -0.098060
     9  H    0.107323
    10  C   -0.175104
    11  H    0.101396
    12  C   -0.121728
    13  H    0.108392
    14  C   -0.207529
    15  H    0.139051
    16  H    0.121098
    17  H    0.121499
    18  C    0.076421
    19  C   -0.198205
    20  H    0.113032
    21  C   -0.103410
    22  H    0.106891
    23  C   -0.100111
    24  H    0.107210
    25  C   -0.127218
    26  H    0.104572
    27  C   -0.170188
    28  H    0.134249
    29  C   -0.382973
    30  H    0.117459
    31  H    0.138764
    32  C   -0.093589
    33  C   -0.209501
    34  C   -0.207152
    35  H    0.079021
    36  C   -0.160845
    37  H    0.076580
    38  H    0.097497
    39  C   -0.163346
    40  H    0.088189
    41  H    0.103913
    42  C   -0.155029
    43  H    0.088156
    44  H    0.083482
    45  H    0.090842
    46  H    0.084678
    47  H    0.091133
    48  H    0.073688
    49  C   -0.078023
    50  C   -0.216971
    51  C   -0.196180
    52  H    0.064887
    53  C   -0.158488
    54  H    0.078367
    55  H    0.106903
    56  C   -0.160093
    57  H    0.088438
    58  H    0.093000
    59  C   -0.155640
    60  H    0.090840
    61  H    0.082099
    62  H    0.089248
    63  H    0.079125
    64  H    0.091242
    65  H    0.074282
 Sum of Mulliken charges =  -0.00000

 Dipole moment (field-independent basis, Debye):
    X=              1.0269    Y=              0.4231    Z=             -1.0983  Tot=              1.5620
 Quadrupole moment (field-independent basis, Debye-Ang):
   XX=           -174.1115   YY=           -185.1283   ZZ=           -194.2629
   XY=              3.5700   XZ=              3.6423   YZ=             -1.1061

 Summary of Natural Population Analysis:

                                       Natural Population
                Natural  -----------------------------------------------
    Atom  No    Charge         Core      Valence    Rydberg      Total
 -----------------------------------------------------------------------
      P    1    0.85196      9.99819     4.11689    0.03296    14.14804
      P    2    0.80515      9.99854     4.16235    0.03396    14.19485
      O    3   -0.45487      1.99975     6.43787    0.01724     8.45487
      C    4   -0.36739      1.99890     4.33667    0.03181     6.36739
      C    5    0.29312      1.99868     3.68344    0.02476     5.70688
      C    6   -0.29260      1.99905     4.27447    0.01908     6.29260
      H    7    0.21308      0.00000     0.78525    0.00167     0.78692
      C    8   -0.18783      1.99920     4.16875    0.01988     6.18783
      H    9    0.20751      0.00000     0.79128    0.00121     0.79249
      C   10   -0.23481      1.99917     4.21606    0.01958     6.23481
      H   11    0.20831      0.00000     0.79044    0.00124     0.79169
      C   12   -0.19433      1.99910     4.17561    0.01962     6.19433
      H   13    0.20138      0.00000     0.79598    0.00264     0.79862
      C   14   -0.24733      1.99926     4.23447    0.01360     6.24733
      H   15    0.19771      0.00000     0.80103    0.00126     0.80229
      H   16    0.17018      0.00000     0.82754    0.00227     0.82982
      H   17    0.17249      0.00000     0.82521    0.00230     0.82751
      C   18   -0.30832      1.99898     4.27699    0.03234     6.30832
      C   19   -0.20392      1.99909     4.18415    0.02067     6.20392
      H   20    0.21382      0.00000     0.78457    0.00161     0.78618
      C   21   -0.20458      1.99918     4.18572    0.01968     6.20458
      H   22    0.20749      0.00000     0.79119    0.00132     0.79251
      C   23   -0.20765      1.99919     4.18910    0.01937     6.20765
      H   24    0.20666      0.00000     0.79213    0.00121     0.79334
      C   25   -0.20335      1.99919     4.18498    0.01918     6.20335
      H   26    0.20556      0.00000     0.79302    0.00142     0.79444
      C   27   -0.20085      1.99907     4.18137    0.02041     6.20085
      H   28    0.21177      0.00000     0.78607    0.00216     0.78823
      C   29   -1.01442      1.99944     4.98327    0.03171     7.01442
      H   30    0.22709      0.00000     0.76998    0.00292     0.77291
      H   31    0.25390      0.00000     0.74455    0.00155     0.74610
      C   32   -0.48739      1.99937     4.46220    0.02582     6.48739
      C   33   -0.39344      1.99938     4.37964    0.01442     6.39344
      C   34   -0.39099      1.99938     4.37633    0.01528     6.39099
      H   35    0.21644      0.00000     0.78078    0.00278     0.78356
      C   36   -0.38436      1.99943     4.37140    0.01354     6.38436
      H   37    0.18603      0.00000     0.81156    0.00241     0.81397
      H   38    0.19610      0.00000     0.80184    0.00207     0.80390
      C   39   -0.38273      1.99943     4.36965    0.01366     6.38273
      H   40    0.18703      0.00000     0.81071    0.00226     0.81297
      H   41    0.21472      0.00000     0.78335    0.00193     0.78528
      C   42   -0.38591      1.99943     4.37316    0.01332     6.38591
      H   43    0.19872      0.00000     0.79979    0.00149     0.80128
      H   44    0.18727      0.00000     0.81088    0.00185     0.81273
      H   45    0.20149      0.00000     0.79715    0.00136     0.79851
      H   46    0.18913      0.00000     0.80909    0.00178     0.81087
      H   47    0.20118      0.00000     0.79748    0.00134     0.79882
      H   48    0.18589      0.00000     0.81226    0.00185     0.81411
      C   49   -0.48105      1.99937     4.45707    0.02460     6.48105
      C   50   -0.39198      1.99938     4.37760    0.01501     6.39198
      C   51   -0.39345      1.99938     4.37998    0.01409     6.39345
      H   52    0.20720      0.00000     0.79033    0.00246     0.79280
      C   53   -0.38098      1.99942     4.36799    0.01357     6.38098
      H   54    0.18519      0.00000     0.81250    0.00230     0.81481
      H   55    0.21187      0.00000     0.78607    0.00206     0.78813
      C   56   -0.38346      1.99943     4.37044    0.01358     6.38346
      H   57    0.18936      0.00000     0.80849    0.00215     0.81064
      H   58    0.19703      0.00000     0.80089    0.00208     0.80297
      C   59   -0.38614      1.99943     4.37331    0.01340     6.38614
      H   60    0.20107      0.00000     0.79755    0.00138     0.79893
      H   61    0.18801      0.00000     0.81018    0.00181     0.81199
      H   62    0.19971      0.00000     0.79884    0.00145     0.80029
      H   63    0.18610      0.00000     0.81206    0.00184     0.81390
      H   64    0.20120      0.00000     0.79745    0.00134     0.79880
      H   65    0.18623      0.00000     0.81193    0.00184     0.81377
 =======================================================================
   * Total *   -0.00000     73.97682   155.37039    0.65280   230.00000

 Normal termination of Gaussian 16 at Thu Jan 30 10:54:06 2025.
