 Gaussian 16, Revision B.01,
 Gaussian 16:  ES64L-G16RevB.01 20-Dec-2017

 --------------------------------------------
 # nmr=giao b3lyp/def2TZVP pop=nbo scfcyc=200
 --------------------------------------------

 ---------------
 dcPAMP SPE NoRh
 ---------------
 Symbolic Z-matrix:
 Charge =  0 Multiplicity = 1

                         Standard orientation:
 ---------------------------------------------------------------------
 Center     Atomic      Atomic             Coordinates (Angstroms)
 Number     Number       Type             X           Y           Z
 ---------------------------------------------------------------------
      1         15           0       -0.582637    0.028983    0.368062
      2         15           0        2.264016   -0.142191    0.484480
      3          8           0       -3.200830   -0.418527    1.529572
      4          6           0       -1.796884   -1.261029   -0.153548
      5          6           0       -3.028747   -1.327280    0.531291
      6          6           0       -3.984396   -2.273458    0.170565
      7          1           0       -4.931609   -2.323234    0.689574
      8          6           0       -3.722133   -3.166707   -0.863047
      9          1           0       -4.471755   -3.899732   -1.132600
     10          6           0       -2.516021   -3.116765   -1.546926
     11          1           0       -2.313624   -3.805684   -2.356024
     12          6           0       -1.566037   -2.166620   -1.188474
     13          1           0       -0.640626   -2.134582   -1.745667
     14          6           0       -4.471992   -0.328726    2.179079
     15          1           0       -4.385644    0.492894    2.884706
     16          1           0       -4.704716   -1.248797    2.720177
     17          1           0       -5.263976   -0.110042    1.460253
     18          6           0       -1.396616    1.625976   -0.079086
     19          6           0       -1.223811    2.746174    0.734519
     20          1           0       -0.642376    2.663550    1.643922
     21          6           0       -1.794310    3.965638    0.379765
     22          1           0       -1.656515    4.829771    1.016890
     23          6           0       -2.542042    4.071840   -0.787454
     24          1           0       -2.988389    5.019588   -1.061370
     25          6           0       -2.719775    2.956601   -1.602120
     26          1           0       -3.303563    3.035177   -2.510079
     27          6           0       -2.151307    1.738175   -1.251926
     28          1           0       -2.305829    0.874834   -1.887778
     29          6           0        0.885572   -0.078675   -0.794566
     30          1           0        0.885515   -0.944992   -1.450135
     31          1           0        0.935013    0.809448   -1.420709
     32          6           0        3.398585    1.347936    0.040243
     33          6           0        2.586878    2.611267    0.383856
     34          1           0        3.201826    3.491217    0.174944
     35          1           0        2.302695    2.642876    1.436511
     36          1           0        1.679359    2.703972   -0.212842
     37          6           0        3.783690    1.400329   -1.446575
     38          1           0        4.328340    2.330184   -1.632978
     39          1           0        2.916602    1.403355   -2.108241
     40          1           0        4.434619    0.580578   -1.741232
     41          6           0        4.674365    1.327939    0.896876
     42          1           0        5.186825    2.287352    0.790755
     43          1           0        5.372606    0.555060    0.577998
     44          1           0        4.468539    1.185290    1.958712
     45          6           0        3.091775   -1.859245    0.202985
     46          6           0        3.647130   -2.037843   -1.217331
     47          1           0        3.922520   -3.086974   -1.358309
     48          1           0        4.545592   -1.446254   -1.385765
     49          1           0        2.922686   -1.788609   -1.993940
     50          6           0        4.217593   -2.092176    1.222678
     51          1           0        4.603137   -3.106190    1.092372
     52          1           0        3.863768   -2.012022    2.250749
     53          1           0        5.055021   -1.409788    1.092901
     54          6           0        1.993230   -2.910354    0.458337
     55          1           0        2.443028   -3.905721    0.408911
     56          1           0        1.198404   -2.881392   -0.285758
     57          1           0        1.539996   -2.792762    1.444487
 ---------------------------------------------------------------------

 SCF Done:  E(RB3LYP) =  -1615.91261355     A.U. after   16 cycles

      1  P    Isotropic =   253.9884   Anisotropy =   105.6552

      2  P    Isotropic =   191.0773   Anisotropy =    95.4664

      3  O    Isotropic =   210.9922   Anisotropy =   111.8437

      4  C    Isotropic =    47.6652   Anisotropy =   168.8180

      5  C    Isotropic =    15.8703   Anisotropy =   136.3233

      6  C    Isotropic =    70.9776   Anisotropy =   156.9939

      7  H    Isotropic =    25.1482   Anisotropy =     7.7370

      8  C    Isotropic =    50.2606   Anisotropy =   179.8425

      9  H    Isotropic =    24.4591   Anisotropy =     4.3435

     10  C    Isotropic =    59.6021   Anisotropy =   169.1115

     11  H    Isotropic =    24.6975   Anisotropy =     5.8820

     12  C    Isotropic =    48.0408   Anisotropy =   181.1113

     13  H    Isotropic =    24.0049   Anisotropy =    10.8255

     14  C    Isotropic =   126.8834   Anisotropy =    77.5611

     15  H    Isotropic =    28.2867   Anisotropy =     8.6334

     16  H    Isotropic =    28.3433   Anisotropy =     9.9772

     17  H    Isotropic =    28.7963   Anisotropy =     9.0257

     18  C    Isotropic =    31.3647   Anisotropy =   210.9757

     19  C    Isotropic =    41.9665   Anisotropy =   181.2889

     20  H    Isotropic =    23.7578   Anisotropy =     7.9499

     21  C    Isotropic =    51.2640   Anisotropy =   181.5939

     22  H    Isotropic =    24.3838   Anisotropy =     5.4867

     23  C    Isotropic =    50.1495   Anisotropy =   186.5987

     24  H    Isotropic =    24.4408   Anisotropy =     4.0063

     25  C    Isotropic =    49.5856   Anisotropy =   183.4944

     26  H    Isotropic =    24.5581   Anisotropy =     6.4412

     27  C    Isotropic =    43.5292   Anisotropy =   185.6272

     28  H    Isotropic =    24.5068   Anisotropy =    12.1110

     29  C    Isotropic =   162.7442   Anisotropy =    21.4222

     30  H    Isotropic =    29.6991   Anisotropy =     5.5217

     31  H    Isotropic =    30.7217   Anisotropy =     3.4852

     32  C    Isotropic =   141.2002   Anisotropy =    17.7061

     33  C    Isotropic =   150.2917   Anisotropy =    45.3091

     34  H    Isotropic =    31.5372   Anisotropy =     8.5745

     35  H    Isotropic =    30.6442   Anisotropy =     7.6206

     36  H    Isotropic =    31.2619   Anisotropy =    10.3342

     37  C    Isotropic =   155.4063   Anisotropy =    38.7313

     38  H    Isotropic =    31.2415   Anisotropy =     9.6892

     39  H    Isotropic =    30.8262   Anisotropy =     4.6175

     40  H    Isotropic =    30.6148   Anisotropy =     7.2869

     41  C    Isotropic =   152.9553   Anisotropy =    39.8286

     42  H    Isotropic =    31.1211   Anisotropy =     9.5025

     43  H    Isotropic =    30.7400   Anisotropy =     7.6514

     44  H    Isotropic =    30.5544   Anisotropy =     7.4469

     45  C    Isotropic =   140.5439   Anisotropy =    19.0993

     46  C    Isotropic =   154.8947   Anisotropy =    35.7204

     47  H    Isotropic =    31.0399   Anisotropy =     9.7342

     48  H    Isotropic =    30.5783   Anisotropy =     7.0238

     49  H    Isotropic =    30.4703   Anisotropy =     4.8780

     50  C    Isotropic =   152.7951   Anisotropy =    43.8776

     51  H    Isotropic =    31.1986   Anisotropy =     9.5263

     52  H    Isotropic =    30.6145   Anisotropy =     8.0038

     53  H    Isotropic =    30.5714   Anisotropy =     7.5568

     54  C    Isotropic =   151.2797   Anisotropy =    44.3942

     55  H    Isotropic =    31.4478   Anisotropy =     8.6531

     56  H    Isotropic =    30.8474   Anisotropy =     9.6238

     57  H    Isotropic =    30.7448   Anisotropy =     6.4736

 The electronic state is 1-A.
 Alpha  occ. eigenvalues --  -77.04210 -77.03122 -19.15839 -10.23638 -10.22678
 Alpha  occ. eigenvalues --  -10.18833 -10.18751 -10.17834 -10.17826 -10.17648
 Alpha  occ. eigenvalues --  -10.17608 -10.17541 -10.17521 -10.17495 -10.17486
 Alpha  occ. eigenvalues --  -10.17461 -10.17392 -10.17306 -10.16749 -10.15916
 Alpha  occ. eigenvalues --  -10.15866 -10.15776 -10.15736 -10.15721 -10.15638
 Alpha  occ. eigenvalues --   -6.52724  -6.51655  -4.68886  -4.68841  -4.68351
 Alpha  occ. eigenvalues --   -4.67823  -4.67744  -4.67279  -1.06696  -0.85828
 Alpha  occ. eigenvalues --   -0.85404  -0.81701  -0.80206  -0.77076  -0.75462
 Alpha  occ. eigenvalues --   -0.74818  -0.74611  -0.72315  -0.69835  -0.68996
 Alpha  occ. eigenvalues --   -0.68684  -0.68251  -0.68179  -0.63372  -0.60707
 Alpha  occ. eigenvalues --   -0.60539  -0.59790  -0.59111  -0.55520  -0.54700
 Alpha  occ. eigenvalues --   -0.53337  -0.50807  -0.50605  -0.48595  -0.47641
 Alpha  occ. eigenvalues --   -0.47313  -0.46759  -0.45381  -0.45257  -0.44894
 Alpha  occ. eigenvalues --   -0.44626  -0.44102  -0.43825  -0.43380  -0.42801
 Alpha  occ. eigenvalues --   -0.42354  -0.42167  -0.41603  -0.40068  -0.39646
 Alpha  occ. eigenvalues --   -0.39028  -0.38759  -0.38288  -0.38170  -0.37864
 Alpha  occ. eigenvalues --   -0.37449  -0.37129  -0.36596  -0.35965  -0.35727
 Alpha  occ. eigenvalues --   -0.34665  -0.34411  -0.33925  -0.33763  -0.33206
 Alpha  occ. eigenvalues --   -0.32866  -0.32740  -0.31933  -0.30149  -0.28089
 Alpha  occ. eigenvalues --   -0.26729  -0.25796  -0.25452  -0.23335  -0.21111
 Alpha  occ. eigenvalues --   -0.18080
 Alpha virt. eigenvalues --   -0.02698  -0.02108  -0.01217  -0.00195   0.02468
 Alpha virt. eigenvalues --    0.02739   0.03762   0.04192   0.04522   0.05190
 Alpha virt. eigenvalues --    0.05392   0.06176   0.06398   0.07200   0.07671

 Mulliken charges:
               1
     1  P    0.158465
     2  P    0.112836
     3  O   -0.281525
     4  C   -0.077035
     5  C    0.341215
     6  C   -0.269024
     7  H    0.114022
     8  C   -0.095854
     9  H    0.106241
    10  C   -0.181614
    11  H    0.100565
    12  C   -0.108536
    13  H    0.105283
    14  C   -0.205786
    15  H    0.137424
    16  H    0.120915
    17  H    0.121455
    18  C    0.076141
    19  C   -0.189436
    20  H    0.114528
    21  C   -0.102207
    22  H    0.107356
    23  C   -0.096379
    24  H    0.108298
    25  C   -0.123919
    26  H    0.105381
    27  C   -0.170471
    28  H    0.136152
    29  C   -0.366903
    30  H    0.101606
    31  H    0.125857
    32  C    0.080665
    33  C   -0.378525
    34  H    0.105130
    35  H    0.119501
    36  H    0.129840
    37  C   -0.338759
    38  H    0.098414
    39  H    0.105447
    40  H    0.105314
    41  C   -0.372249
    42  H    0.106452
    43  H    0.102783
    44  H    0.124756
    45  C    0.061389
    46  C   -0.349767
    47  H    0.101374
    48  H    0.100860
    49  H    0.113541
    50  C   -0.353867
    51  H    0.104104
    52  H    0.119180
    53  H    0.105442
    54  C   -0.350094
    55  H    0.105688
    56  H    0.096440
    57  H    0.131890
 Sum of Mulliken charges =  -0.00000

 Dipole moment (field-independent basis, Debye):
    X=             -1.2592    Y=              0.2855    Z=             -0.9797  Tot=              1.6208
 Quadrupole moment (field-independent basis, Debye-Ang):
   XX=           -154.0248   YY=           -163.3475   ZZ=           -168.9479
   XY=             -0.0806   XZ=             -4.7872   YZ=              2.7536

 Summary of Natural Population Analysis:

                                       Natural Population
                Natural  -----------------------------------------------
    Atom  No    Charge         Core      Valence    Rydberg      Total
 -----------------------------------------------------------------------
      P    1    0.84335      9.99817     4.12583    0.03265    14.15665
      P    2    0.78655      9.99844     4.18480    0.03021    14.21345
      O    3   -0.45540      1.99975     6.43837    0.01727     8.45540
      C    4   -0.35991      1.99890     4.32933    0.03168     6.35991
      C    5    0.29169      1.99868     3.68493    0.02470     5.70831
      C    6   -0.29204      1.99905     4.27390    0.01909     6.29204
      H    7    0.21255      0.00000     0.78577    0.00168     0.78745
      C    8   -0.18921      1.99920     4.17012    0.01989     6.18921
      H    9    0.20707      0.00000     0.79172    0.00121     0.79293
      C   10   -0.23410      1.99917     4.21535    0.01958     6.23410
      H   11    0.20763      0.00000     0.79113    0.00124     0.79237
      C   12   -0.19473      1.99909     4.17619    0.01944     6.19473
      H   13    0.19703      0.00000     0.80038    0.00259     0.80297
      C   14   -0.24716      1.99926     4.23432    0.01358     6.24716
      H   15    0.19665      0.00000     0.80206    0.00129     0.80335
      H   16    0.17023      0.00000     0.82748    0.00229     0.82977
      H   17    0.17266      0.00000     0.82504    0.00230     0.82734
      C   18   -0.31009      1.99898     4.27823    0.03287     6.31009
      C   19   -0.19648      1.99909     4.17648    0.02091     6.19648
      H   20    0.21748      0.00000     0.78090    0.00162     0.78252
      C   21   -0.20736      1.99918     4.18857    0.01961     6.20736
      H   22    0.20790      0.00000     0.79078    0.00132     0.79210
      C   23   -0.20372      1.99919     4.18526    0.01926     6.20372
      H   24    0.20709      0.00000     0.79171    0.00121     0.79291
      C   25   -0.20553      1.99919     4.18714    0.01920     6.20553
      H   26    0.20637      0.00000     0.79221    0.00142     0.79363
      C   27   -0.19980      1.99907     4.18045    0.02027     6.19980
      H   28    0.21137      0.00000     0.78637    0.00226     0.78863
      C   29   -1.02628      1.99943     4.99449    0.03236     7.02628
      H   30    0.23450      0.00000     0.76285    0.00265     0.76550
      H   31    0.24737      0.00000     0.75022    0.00241     0.75263
      C   32   -0.27496      1.99946     4.25065    0.02486     6.27496
      C   33   -0.60455      1.99937     4.59258    0.01260     6.60455
      H   34    0.20164      0.00000     0.79628    0.00208     0.79836
      H   35    0.21320      0.00000     0.78535    0.00144     0.78680
      H   36    0.20704      0.00000     0.79148    0.00148     0.79296
      C   37   -0.60151      1.99937     4.58997    0.01218     6.60151
      H   38    0.19528      0.00000     0.80241    0.00231     0.80472
      H   39    0.19911      0.00000     0.79927    0.00162     0.80089
      H   40    0.20136      0.00000     0.79722    0.00143     0.79864
      C   41   -0.59939      1.99937     4.58803    0.01200     6.59939
      H   42    0.20116      0.00000     0.79676    0.00208     0.79884
      H   43    0.19873      0.00000     0.79983    0.00144     0.80127
      H   44    0.21248      0.00000     0.78594    0.00158     0.78752
      C   45   -0.27123      1.99945     4.24707    0.02470     6.27123
      C   46   -0.60179      1.99936     4.59020    0.01222     6.60179
      H   47    0.19612      0.00000     0.80155    0.00233     0.80388
      H   48    0.19948      0.00000     0.79904    0.00148     0.80052
      H   49    0.19883      0.00000     0.79960    0.00157     0.80117
      C   50   -0.59975      1.99936     4.58814    0.01225     6.59975
      H   51    0.19974      0.00000     0.79822    0.00204     0.80026
      H   52    0.21276      0.00000     0.78575    0.00149     0.78724
      H   53    0.20211      0.00000     0.79654    0.00135     0.79789
      C   54   -0.60456      1.99937     4.59285    0.01234     6.60456
      H   55    0.20276      0.00000     0.79516    0.00208     0.79724
      H   56    0.20170      0.00000     0.79687    0.00143     0.79830
      H   57    0.21855      0.00000     0.78012    0.00133     0.78145
 =======================================================================
   * Total *   -0.00000     65.97898   135.44926    0.57176   202.00000

 Normal termination of Gaussian 16 at Thu Jan 23 00:28:35 2025.
