 Gaussian 16, Revision B.01,
 Gaussian 16:  ES64L-G16RevB.01 20-Dec-2017

 --------------------------------------------
 # nmr=giao b3lyp/def2TZVP pop=nbo scfcyc=200
 --------------------------------------------

 --------------
 DS-17 SPE NoRh
 --------------
 Symbolic Z-matrix:
 Charge =  0 Multiplicity = 1

                         Standard orientation:
 ---------------------------------------------------------------------
 Center     Atomic      Atomic             Coordinates (Angstroms)
 Number     Number       Type             X           Y           Z
 ---------------------------------------------------------------------
      1         15           0       -0.516931    1.142164   -1.086955
      2         15           0        1.724816   -0.598127   -1.281372
      3          6           0        0.618826   -2.655260   -0.028606
      4          6           0        1.730206   -2.373565   -0.852718
      5          6           0        2.507307   -4.630751   -0.631769
      6          6           0        0.479736   -3.941557    0.498599
      7          6           0        1.418918   -4.919310    0.188692
      8          1           0        3.229099   -5.402431   -0.865358
      9          1           0       -0.347665   -4.175715    1.155198
     10          1           0        1.306718   -5.914965    0.598440
     11          6           0        2.673586   -3.347437   -1.148686
     12          1           0        3.532299   -3.119955   -1.768665
     13          6           0       -0.285292   -1.504645    0.208317
     14          6           0        0.205314   -0.335222   -0.291576
     15          6           0       -0.065228    2.612194   -0.079187
     16          6           0       -0.338988    3.891865   -0.577101
     17          6           0        0.582101    2.481924    1.149994
     18          6           0        0.016795    5.019107    0.152853
     19          1           0       -0.847234    4.014804   -1.526101
     20          6           0        0.944780    3.614168    1.874253
     21          1           0        0.810285    1.499108    1.541223
     22          6           0        0.662206    4.881278    1.378691
     23          1           0       -0.207096    6.004400   -0.236270
     24          1           0        1.446304    3.502135    2.826975
     25          1           0        0.942153    5.760750    1.945458
     26          6           0       -2.354532    1.081391   -1.128272
     27          6           0       -2.965175    0.195280   -2.022151
     28          6           0       -3.149623    1.904000   -0.327063
     29          6           0       -4.350368    0.128634   -2.106934
     30          1           0       -2.356586   -0.444860   -2.649765
     31          6           0       -4.536114    1.839050   -0.422115
     32          1           0       -2.694900    2.593583    0.370797
     33          6           0       -5.137390    0.954973   -1.310415
     34          1           0       -4.814941   -0.563227   -2.798179
     35          1           0       -5.145458    2.482563    0.200698
     36          1           0       -6.216577    0.909351   -1.383185
     37          6           0       -1.591105   -1.669066    0.878197
     38          6           0       -1.947709   -0.820113    1.933620
     39          6           0       -2.485812   -2.676924    0.493783
     40          6           0       -3.160475   -0.980780    2.591284
     41          1           0       -1.258472   -0.049430    2.253722
     42          6           0       -3.703838   -2.825429    1.143115
     43          1           0       -2.234980   -3.334618   -0.329800
     44          6           0       -4.041600   -1.982794    2.198424
     45          1           0       -3.415039   -0.326653    3.416697
     46          1           0       -4.389377   -3.602436    0.828611
     47          1           0       -4.986033   -2.108832    2.712378
     48          6           0        3.209400    0.127547   -0.469267
     49          6           0        3.809728    1.249804   -1.043313
     50          6           0        3.729342   -0.403101    0.716529
     51          6           0        4.916539    1.837839   -0.440288
     52          1           0        3.406455    1.663880   -1.959459
     53          6           0        4.834610    0.188005    1.315289
     54          1           0        3.279578   -1.276712    1.170802
     55          6           0        5.429680    1.307000    0.737279
     56          1           0        5.377666    2.706982   -0.891574
     57          1           0        5.235928   -0.228096    2.231153
     58          1           0        6.294652    1.761204    1.204358
 ---------------------------------------------------------------------

 SCF Done:  E(RB3LYP) =  -1917.03683614     A.U. after   15 cycles

      1  P    Isotropic =   256.3202   Anisotropy =    73.5861

      2  P    Isotropic =   218.1192   Anisotropy =   144.2724

      3  C    Isotropic =    25.5278   Anisotropy =   170.1280

      4  C    Isotropic =    21.6752   Anisotropy =   201.0398

      5  C    Isotropic =    51.2208   Anisotropy =   180.9922

      6  C    Isotropic =    52.6210   Anisotropy =   179.6821

      7  C    Isotropic =    51.9037   Anisotropy =   180.2574

      8  H    Isotropic =    24.3995   Anisotropy =     4.5575

      9  H    Isotropic =    24.2376   Anisotropy =    11.4746

     10  H    Isotropic =    24.4037   Anisotropy =     5.3542

     11  C    Isotropic =    49.3641   Anisotropy =   182.9408

     12  H    Isotropic =    24.1044   Anisotropy =     9.0237

     13  C    Isotropic =    18.8631   Anisotropy =   142.4410

     14  C    Isotropic =    34.3575   Anisotropy =   150.7839

     15  C    Isotropic =    37.2957   Anisotropy =   195.9964

     16  C    Isotropic =    46.3950   Anisotropy =   187.1044

     17  C    Isotropic =    43.1026   Anisotropy =   186.6843

     18  C    Isotropic =    50.6345   Anisotropy =   183.6972

     19  H    Isotropic =    24.2931   Anisotropy =    10.0503

     20  C    Isotropic =    49.5812   Anisotropy =   185.0817

     21  H    Isotropic =    24.2384   Anisotropy =     8.3207

     22  C    Isotropic =    51.8932   Anisotropy =   183.8459

     23  H    Isotropic =    24.3629   Anisotropy =     4.5562

     24  H    Isotropic =    24.6885   Anisotropy =     6.7850

     25  H    Isotropic =    24.5635   Anisotropy =     3.9449

     26  C    Isotropic =    37.2713   Anisotropy =   196.1316

     27  C    Isotropic =    44.1105   Anisotropy =   189.3896

     28  C    Isotropic =    44.9827   Anisotropy =   194.0534

     29  C    Isotropic =    50.7390   Anisotropy =   185.5052

     30  H    Isotropic =    24.4477   Anisotropy =     9.5289

     31  C    Isotropic =    50.1104   Anisotropy =   185.1837

     32  H    Isotropic =    24.9491   Anisotropy =    11.9437

     33  C    Isotropic =    51.3113   Anisotropy =   186.1662

     34  H    Isotropic =    24.7856   Anisotropy =     5.1910

     35  H    Isotropic =    24.9304   Anisotropy =     5.9843

     36  H    Isotropic =    24.8746   Anisotropy =     3.2042

     37  C    Isotropic =    39.1471   Anisotropy =   188.8946

     38  C    Isotropic =    46.3040   Anisotropy =   175.6998

     39  C    Isotropic =    47.9069   Anisotropy =   185.1601

     40  C    Isotropic =    49.7341   Anisotropy =   188.1418

     41  H    Isotropic =    24.4385   Anisotropy =     8.0844

     42  C    Isotropic =    51.1399   Anisotropy =   186.4311

     43  H    Isotropic =    24.3058   Anisotropy =     8.6911

     44  C    Isotropic =    49.8377   Anisotropy =   189.1732

     45  H    Isotropic =    24.7147   Anisotropy =     6.3650

     46  H    Isotropic =    24.6032   Anisotropy =     4.4655

     47  H    Isotropic =    24.6758   Anisotropy =     3.6496

     48  C    Isotropic =    37.7935   Anisotropy =   190.3996

     49  C    Isotropic =    38.8404   Anisotropy =   186.8625

     50  C    Isotropic =    44.1986   Anisotropy =   184.4701

     51  C    Isotropic =    50.2625   Anisotropy =   185.2522

     52  H    Isotropic =    23.8382   Anisotropy =     7.6591

     53  C    Isotropic =    49.9397   Anisotropy =   183.7640

     54  H    Isotropic =    24.8448   Anisotropy =    13.2800

     55  C    Isotropic =    48.5832   Anisotropy =   190.1635

     56  H    Isotropic =    24.5024   Anisotropy =     4.8880

     57  H    Isotropic =    24.5458   Anisotropy =     6.5290

     58  H    Isotropic =    24.4331   Anisotropy =     3.6762

 The electronic state is 1-A.
 Alpha  occ. eigenvalues --  -77.05274 -77.04895 -10.20373 -10.19117 -10.18928
 Alpha  occ. eigenvalues --  -10.18846 -10.18464 -10.18367 -10.18192 -10.18168
 Alpha  occ. eigenvalues --  -10.18159 -10.18113 -10.18023 -10.18009 -10.17965
 Alpha  occ. eigenvalues --  -10.17964 -10.17950 -10.17942 -10.17929 -10.17876
 Alpha  occ. eigenvalues --  -10.17873 -10.17859 -10.17816 -10.17816 -10.17759
 Alpha  occ. eigenvalues --  -10.17703 -10.17634 -10.17594 -10.17555 -10.17553
 Alpha  occ. eigenvalues --  -10.17426 -10.17375 -10.17327 -10.17274  -6.53797
 Alpha  occ. eigenvalues --   -6.53503  -4.69957  -4.69907  -4.69660  -4.69588
 Alpha  occ. eigenvalues --   -4.69464  -4.69181  -0.88114  -0.86365  -0.86093
 Alpha  occ. eigenvalues --   -0.86005  -0.85519  -0.81881  -0.77153  -0.76533
 Alpha  occ. eigenvalues --   -0.75396  -0.75386  -0.75188  -0.75008  -0.74862
 Alpha  occ. eigenvalues --   -0.74739  -0.74356  -0.72219  -0.66959  -0.64443
 Alpha  occ. eigenvalues --   -0.61734  -0.61472  -0.61152  -0.61046  -0.60620
 Alpha  occ. eigenvalues --   -0.60271  -0.59902  -0.59812  -0.57205  -0.56212
 Alpha  occ. eigenvalues --   -0.54172  -0.52597  -0.52043  -0.51720  -0.49972
 Alpha  occ. eigenvalues --   -0.48416  -0.46700  -0.46523  -0.45968  -0.45752
 Alpha  occ. eigenvalues --   -0.45679  -0.45457  -0.45170  -0.45106  -0.44952
 Alpha  occ. eigenvalues --   -0.44018  -0.43142  -0.42959  -0.42827  -0.42575
 Alpha  occ. eigenvalues --   -0.42329  -0.42013  -0.41199  -0.40777  -0.38778
 Alpha  occ. eigenvalues --   -0.38293  -0.37903  -0.37815  -0.37169  -0.36825
 Alpha  occ. eigenvalues --   -0.36636  -0.35903  -0.35250  -0.35210  -0.35024
 Alpha  occ. eigenvalues --   -0.34769  -0.34632  -0.33389  -0.32551  -0.31610
 Alpha  occ. eigenvalues --   -0.31355  -0.27902  -0.27235  -0.26914  -0.26666
 Alpha  occ. eigenvalues --   -0.26281  -0.26185  -0.25865  -0.25390  -0.25201
 Alpha  occ. eigenvalues --   -0.24131  -0.21819  -0.18988
 Alpha virt. eigenvalues --   -0.06856  -0.03829  -0.03170  -0.02729  -0.02457
 Alpha virt. eigenvalues --   -0.01846  -0.01440  -0.01334  -0.01159  -0.00411
 Alpha virt. eigenvalues --    0.02986   0.03332   0.04196   0.04909   0.05099

 Mulliken charges:
               1
     1  P    0.101764
     2  P    0.128149
     3  C    0.091578
     4  C   -0.028405
     5  C   -0.112815
     6  C   -0.261155
     7  C   -0.083717
     8  H    0.108755
     9  H    0.142924
    10  H    0.108192
    11  C   -0.145261
    12  H    0.110139
    13  C    0.042768
    14  C   -0.094255
    15  C    0.059652
    16  C   -0.208423
    17  C   -0.127421
    18  C   -0.094264
    19  H    0.112166
    20  C   -0.133881
    21  H    0.145986
    22  C   -0.105367
    23  H    0.109116
    24  H    0.105746
    25  H    0.107840
    26  C    0.086870
    27  C   -0.194590
    28  C   -0.171369
    29  C   -0.100321
    30  H    0.111700
    31  C   -0.118956
    32  H    0.138123
    33  C   -0.099178
    34  H    0.105498
    35  H    0.103913
    36  H    0.105999
    37  C    0.129150
    38  C   -0.169109
    39  C   -0.274976
    40  C   -0.114206
    41  H    0.115212
    42  C   -0.085109
    43  H    0.132157
    44  C   -0.098962
    45  H    0.106384
    46  H    0.107909
    47  H    0.108330
    48  C    0.030132
    49  C   -0.147240
    50  C   -0.163615
    51  C   -0.104747
    52  H    0.119164
    53  C   -0.118529
    54  H    0.142022
    55  C   -0.093069
    56  H    0.110766
    57  H    0.109521
    58  H    0.111316
 Sum of Mulliken charges =  -0.00000

 Dipole moment (field-independent basis, Debye):
    X=             -0.3358    Y=             -0.2241    Z=              2.1644  Tot=              2.2017
 Quadrupole moment (field-independent basis, Debye-Ang):
   XX=           -192.8150   YY=           -196.1444   ZZ=           -211.5881
   XY=              4.6610   XZ=              1.9084   YZ=              3.3107

 Summary of Natural Population Analysis:

                                       Natural Population
                Natural  -----------------------------------------------
    Atom  No    Charge         Core      Valence    Rydberg      Total
 -----------------------------------------------------------------------
      P    1    0.86458      9.99770     4.10260    0.03513    14.13542
      P    2    0.85641      9.99788     4.11153    0.03418    14.14359
      C    3   -0.07002      1.99896     4.04923    0.02182     6.07002
      C    4   -0.29842      1.99899     4.26835    0.03109     6.29842
      C    5   -0.19701      1.99920     4.17929    0.01852     6.19701
      C    6   -0.19080      1.99908     4.17354    0.01818     6.19080
      C    7   -0.20701      1.99920     4.18925    0.01856     6.20701
      H    8    0.20865      0.00000     0.79017    0.00118     0.79135
      H    9    0.21655      0.00000     0.78186    0.00158     0.78345
      H   10    0.20859      0.00000     0.79023    0.00117     0.79141
      C   11   -0.19540      1.99907     4.17697    0.01936     6.19540
      H   12    0.21183      0.00000     0.78655    0.00162     0.78817
      C   13   -0.01077      1.99886     3.98575    0.02617     6.01077
      C   14   -0.62304      1.99891     4.58736    0.03677     6.62304
      C   15   -0.32688      1.99898     4.29539    0.03250     6.32688
      C   16   -0.20109      1.99909     4.18215    0.01986     6.20109
      C   17   -0.20536      1.99908     4.18641    0.01987     6.20536
      C   18   -0.20117      1.99918     4.18333    0.01866     6.20117
      H   19    0.21241      0.00000     0.78583    0.00176     0.78759
      C   20   -0.19830      1.99918     4.18037    0.01875     6.19830
      H   21    0.21551      0.00000     0.78233    0.00215     0.78449
      C   22   -0.20906      1.99919     4.19049    0.01938     6.20906
      H   23    0.20886      0.00000     0.78987    0.00127     0.79114
      H   24    0.20814      0.00000     0.79057    0.00130     0.79186
      H   25    0.20758      0.00000     0.79124    0.00118     0.79242
      C   26   -0.32434      1.99897     4.29388    0.03148     6.32434
      C   27   -0.19273      1.99909     4.17418    0.01946     6.19273
      C   28   -0.19714      1.99908     4.17880    0.01926     6.19714
      C   29   -0.19996      1.99918     4.18225    0.01853     6.19996
      H   30    0.21081      0.00000     0.78741    0.00177     0.78919
      C   31   -0.20001      1.99918     4.18209    0.01874     6.20001
      H   32    0.21460      0.00000     0.78328    0.00213     0.78540
      C   33   -0.20393      1.99919     4.18544    0.01931     6.20393
      H   34    0.20777      0.00000     0.79095    0.00128     0.79223
      H   35    0.20631      0.00000     0.79237    0.00132     0.79369
      H   36    0.20658      0.00000     0.79224    0.00118     0.79342
      C   37   -0.06440      1.99900     4.04324    0.02216     6.06440
      C   38   -0.17711      1.99908     4.15947    0.01855     6.17711
      C   39   -0.18691      1.99909     4.16981    0.01802     6.18691
      C   40   -0.19894      1.99919     4.18095    0.01880     6.19894
      H   41    0.21185      0.00000     0.78574    0.00241     0.78815
      C   42   -0.20072      1.99919     4.18312    0.01841     6.20072
      H   43    0.21258      0.00000     0.78582    0.00160     0.78742
      C   44   -0.19807      1.99919     4.17993    0.01894     6.19807
      H   45    0.20929      0.00000     0.78947    0.00124     0.79071
      H   46    0.20872      0.00000     0.79006    0.00122     0.79128
      H   47    0.20809      0.00000     0.79076    0.00114     0.79191
      C   48   -0.32167      1.99896     4.29131    0.03139     6.32167
      C   49   -0.18470      1.99910     4.16552    0.02009     6.18470
      C   50   -0.18955      1.99908     4.17069    0.01979     6.18955
      C   51   -0.20393      1.99918     4.18536    0.01940     6.20393
      H   52    0.21955      0.00000     0.77898    0.00147     0.78045
      C   53   -0.20504      1.99919     4.18695    0.01890     6.20504
      H   54    0.21518      0.00000     0.78287    0.00196     0.78482
      C   55   -0.19473      1.99919     4.17651    0.01902     6.19473
      H   56    0.21072      0.00000     0.78801    0.00127     0.78928
      H   57    0.20861      0.00000     0.79002    0.00137     0.79139
      H   58    0.20843      0.00000     0.79037    0.00120     0.79157
 =======================================================================
   * Total *    0.00000     83.96668   161.23853    0.79479   246.00000

 Normal termination of Gaussian 16 at Thu Jan 23 02:00:43 2025.
