 Gaussian 16, Revision B.01,
 Gaussian 16:  ES64L-G16RevB.01 20-Dec-2017

 --------------------------------------------
 # nmr=giao b3lyp/def2TZVP pop=nbo scfcyc=200
 --------------------------------------------

 --------------
 DS-16 SPE NoRh
 --------------
 Symbolic Z-matrix:
 Charge =  0 Multiplicity = 1

                         Standard orientation:
 ---------------------------------------------------------------------
 Center     Atomic      Atomic             Coordinates (Angstroms)
 Number     Number       Type             X           Y           Z
 ---------------------------------------------------------------------
      1         15           0        1.424067    0.121915   -0.944663
      2         15           0       -1.356488    0.087790   -1.026322
      3          6           0       -2.069512    2.597183    0.099716
      4          6           0       -2.857790    3.738896    0.204785
      5          6           0       -4.029110    3.851943   -0.534524
      6          6           0       -4.410648    2.815984   -1.383542
      7          6           0       -3.623785    1.676001   -1.492217
      8          6           0       -2.446385    1.549912   -0.743802
      9          1           0       -1.161869    2.523731    0.678688
     10          1           0       -2.554223    4.539970    0.866996
     11          1           0       -4.642321    4.739972   -0.451762
     12          1           0       -5.322280    2.894528   -1.962111
     13          1           0       -3.941409    0.879204   -2.154069
     14          6           0       -3.719814   -1.388089   -0.321995
     15          6           0       -4.495412   -2.541880   -0.293655
     16          6           0       -4.025529   -3.718881   -0.867397
     17          6           0       -2.777432   -3.735721   -1.481872
     18          6           0       -2.006379   -2.580298   -1.523728
     19          6           0       -2.462399   -1.397428   -0.934036
     20          1           0       -4.104267   -0.484935    0.130185
     21          1           0       -5.469648   -2.519837    0.179208
     22          1           0       -4.631942   -4.615693   -0.842723
     23          1           0       -2.409694   -4.645640   -1.939607
     24          1           0       -1.048916   -2.589735   -2.029160
     25          6           0        2.340563   -2.482778   -1.320055
     26          6           0        3.240594   -3.538388   -1.262456
     27          6           0        4.506473   -3.346140   -0.715035
     28          6           0        4.864208   -2.094974   -0.225711
     29          6           0        3.959486   -1.038486   -0.271343
     30          6           0        2.685239   -1.224623   -0.812550
     31          1           0        1.363410   -2.635791   -1.760424
     32          1           0        2.958968   -4.508580   -1.652226
     33          1           0        5.211823   -4.167507   -0.675569
     34          1           0        5.848338   -1.937594    0.196266
     35          1           0        4.257007   -0.074346    0.116495
     36          6           0        3.447375    1.995684   -1.435956
     37          6           0        4.093902    3.219801   -1.322518
     38          6           0        3.621708    4.181323   -0.433308
     39          6           0        2.504542    3.906613    0.347138
     40          6           0        1.860717    2.678243    0.239751
     41          6           0        2.325009    1.707491   -0.648287
     42          1           0        3.833275    1.260795   -2.131625
     43          1           0        4.966985    3.422791   -1.930342
     44          1           0        4.124766    5.135510   -0.347204
     45          1           0        2.133883    4.647050    1.044197
     46          1           0        1.002336    2.473265    0.861924
     47          6           0        0.000339   -0.047811    0.269593
     48          6           0       -0.131584   -0.349654    1.586093
     49          6           0       -1.521111   -0.345377    2.222336
     50          1           0       -2.242010   -0.074987    1.455123
     51          6           0        0.977736   -0.737074    2.565639
     52          1           0        0.501540   -0.748703    3.546396
     53          6           0       -1.633872    0.731409    3.320457
     54          1           0       -2.669549    0.788170    3.659396
     55          1           0       -1.019083    0.502439    4.191605
     56          1           0       -1.351864    1.719572    2.954507
     57          6           0       -1.934731   -1.721979    2.771496
     58          1           0       -2.961079   -1.667874    3.139605
     59          1           0       -1.897360   -2.492850    2.000743
     60          1           0       -1.305894   -2.036754    3.605145
     61          6           0        2.138849    0.256564    2.687397
     62          1           0        1.786246    1.255006    2.950377
     63          1           0        2.810642   -0.075106    3.482220
     64          1           0        2.724352    0.335410    1.775812
     65          6           0        1.475414   -2.177686    2.332642
     66          1           0        2.050628   -2.268756    1.416286
     67          1           0        2.117241   -2.471247    3.165816
     68          1           0        0.648319   -2.885714    2.286283
 ---------------------------------------------------------------------

 SCF Done:  E(RB3LYP) =  -1923.03136238     A.U. after   15 cycles

      1  P    Isotropic =   237.0487   Anisotropy =    85.0738

      2  P    Isotropic =   212.1343   Anisotropy =   127.5747

      3  C    Isotropic =    48.2416   Anisotropy =   182.0183

      4  C    Isotropic =    50.0496   Anisotropy =   182.2764

      5  C    Isotropic =    53.4707   Anisotropy =   179.6675

      6  C    Isotropic =    50.1928   Anisotropy =   182.2376

      7  C    Isotropic =    49.3174   Anisotropy =   182.6610

      8  C    Isotropic =    33.7350   Anisotropy =   189.2359

      9  H    Isotropic =    23.8723   Anisotropy =     8.9876

     10  H    Isotropic =    24.3328   Anisotropy =     7.2275

     11  H    Isotropic =    24.5791   Anisotropy =     4.1729

     12  H    Isotropic =    24.4090   Anisotropy =     5.2339

     13  H    Isotropic =    24.3917   Anisotropy =    11.2082

     14  C    Isotropic =    46.3893   Anisotropy =   189.6605

     15  C    Isotropic =    49.4181   Anisotropy =   183.7491

     16  C    Isotropic =    50.4350   Anisotropy =   184.8845

     17  C    Isotropic =    50.0422   Anisotropy =   181.9168

     18  C    Isotropic =    41.8260   Anisotropy =   180.1841

     19  C    Isotropic =    31.9418   Anisotropy =   198.0279

     20  H    Isotropic =    23.9822   Anisotropy =    10.3655

     21  H    Isotropic =    24.3930   Anisotropy =     6.1825

     22  H    Isotropic =    24.3774   Anisotropy =     4.0609

     23  H    Isotropic =    24.1964   Anisotropy =     5.7723

     24  H    Isotropic =    23.3889   Anisotropy =     9.1076

     25  C    Isotropic =    42.4475   Anisotropy =   181.5978

     26  C    Isotropic =    49.6885   Anisotropy =   182.8526

     27  C    Isotropic =    50.5933   Anisotropy =   183.8140

     28  C    Isotropic =    49.2624   Anisotropy =   183.5049

     29  C    Isotropic =    47.2505   Anisotropy =   189.1087

     30  C    Isotropic =    31.6891   Anisotropy =   198.1266

     31  H    Isotropic =    23.5435   Anisotropy =     9.1127

     32  H    Isotropic =    24.2455   Anisotropy =     5.7755

     33  H    Isotropic =    24.4374   Anisotropy =     3.8635

     34  H    Isotropic =    24.4375   Anisotropy =     6.1081

     35  H    Isotropic =    24.0213   Anisotropy =    10.7130

     36  C    Isotropic =    47.9094   Anisotropy =   183.5865

     37  C    Isotropic =    50.5367   Anisotropy =   181.6086

     38  C    Isotropic =    53.0180   Anisotropy =   180.3942

     39  C    Isotropic =    50.3325   Anisotropy =   181.8947

     40  C    Isotropic =    46.5354   Anisotropy =   184.9080

     41  C    Isotropic =    35.6737   Anisotropy =   188.2887

     42  H    Isotropic =    24.2928   Anisotropy =    10.9868

     43  H    Isotropic =    24.3848   Anisotropy =     5.1300

     44  H    Isotropic =    24.5539   Anisotropy =     4.2151

     45  H    Isotropic =    24.3131   Anisotropy =     7.2339

     46  H    Isotropic =    23.8767   Anisotropy =     9.3233

     47  C    Isotropic =    45.6960   Anisotropy =    99.4911

     48  C    Isotropic =   -16.4064   Anisotropy =   225.1772

     49  C    Isotropic =   135.4167   Anisotropy =    26.4748

     50  H    Isotropic =    28.6141   Anisotropy =     8.5254

     51  C    Isotropic =   144.5594   Anisotropy =    16.0301

     52  H    Isotropic =    29.4965   Anisotropy =     7.2192

     53  C    Isotropic =   160.0523   Anisotropy =    37.0050

     54  H    Isotropic =    31.0265   Anisotropy =     9.0310

     55  H    Isotropic =    30.9042   Anisotropy =     6.6302

     56  H    Isotropic =    30.6576   Anisotropy =     7.7631

     57  C    Isotropic =   162.5722   Anisotropy =    28.2917

     58  H    Isotropic =    31.5781   Anisotropy =     8.6248

     59  H    Isotropic =    32.2310   Anisotropy =     7.7623

     60  H    Isotropic =    31.4543   Anisotropy =     6.2542

     61  C    Isotropic =   160.4551   Anisotropy =    22.5742

     62  H    Isotropic =    30.9486   Anisotropy =     7.3212

     63  H    Isotropic =    31.3302   Anisotropy =     9.6939

     64  H    Isotropic =    30.5884   Anisotropy =     8.0867

     65  C    Isotropic =   161.8070   Anisotropy =    31.1324

     66  H    Isotropic =    32.4008   Anisotropy =    15.5628

     67  H    Isotropic =    31.8572   Anisotropy =     9.8614

     68  H    Isotropic =    31.8577   Anisotropy =     5.4458

 The electronic state is 1-A.
 Alpha  occ. eigenvalues --  -77.05070 -77.04913 -10.20877 -10.19099 -10.18640
 Alpha  occ. eigenvalues --  -10.18631 -10.18616 -10.18520 -10.18517 -10.18425
 Alpha  occ. eigenvalues --  -10.18038 -10.17975 -10.17962 -10.17921 -10.17904
 Alpha  occ. eigenvalues --  -10.17880 -10.17856 -10.17820 -10.17804 -10.17714
 Alpha  occ. eigenvalues --  -10.17519 -10.17479 -10.17463 -10.17453 -10.17438
 Alpha  occ. eigenvalues --  -10.17422 -10.17387 -10.17380 -10.17232 -10.17196
 Alpha  occ. eigenvalues --  -10.16803 -10.16442 -10.16049 -10.15856  -6.53560
 Alpha  occ. eigenvalues --   -6.53417  -4.69717  -4.69680  -4.69566  -4.69540
 Alpha  occ. eigenvalues --   -4.69210  -4.69066  -0.86357  -0.86232  -0.85656
 Alpha  occ. eigenvalues --   -0.85603  -0.84448  -0.78565  -0.77251  -0.76323
 Alpha  occ. eigenvalues --   -0.75328  -0.75236  -0.74948  -0.74751  -0.74493
 Alpha  occ. eigenvalues --   -0.74456  -0.73811  -0.69465  -0.68551  -0.66324
 Alpha  occ. eigenvalues --   -0.63940  -0.61634  -0.61168  -0.61122  -0.60529
 Alpha  occ. eigenvalues --   -0.60398  -0.60081  -0.59914  -0.59575  -0.56738
 Alpha  occ. eigenvalues --   -0.56020  -0.52531  -0.52215  -0.51951  -0.50131
 Alpha  occ. eigenvalues --   -0.49196  -0.47783  -0.46615  -0.45994  -0.45891
 Alpha  occ. eigenvalues --   -0.45581  -0.45455  -0.45318  -0.45240  -0.44985
 Alpha  occ. eigenvalues --   -0.44498  -0.43374  -0.43117  -0.43036  -0.42887
 Alpha  occ. eigenvalues --   -0.42593  -0.42274  -0.42063  -0.41091  -0.40992
 Alpha  occ. eigenvalues --   -0.40552  -0.39220  -0.38832  -0.38584  -0.38378
 Alpha  occ. eigenvalues --   -0.37725  -0.37542  -0.37250  -0.37075  -0.36311
 Alpha  occ. eigenvalues --   -0.36041  -0.35899  -0.35306  -0.34946  -0.34934
 Alpha  occ. eigenvalues --   -0.34545  -0.34277  -0.33318  -0.33090  -0.32781
 Alpha  occ. eigenvalues --   -0.32331  -0.30039  -0.28196  -0.27323  -0.26743
 Alpha  occ. eigenvalues --   -0.26352  -0.26195  -0.25955  -0.25835  -0.25758
 Alpha  occ. eigenvalues --   -0.25540  -0.21769  -0.17269
 Alpha virt. eigenvalues --   -0.05539  -0.03333  -0.02842  -0.02476  -0.01920
 Alpha virt. eigenvalues --   -0.01799  -0.00958  -0.00880  -0.00728   0.01991
 Alpha virt. eigenvalues --    0.03671   0.04035   0.04468   0.05535   0.05824

 Mulliken charges:
               1
     1  P    0.172239
     2  P    0.169664
     3  C   -0.101656
     4  C   -0.140559
     5  C   -0.104524
     6  C   -0.109169
     7  C   -0.220269
     8  C    0.040889
     9  H    0.105891
    10  H    0.100343
    11  H    0.105827
    12  H    0.107723
    13  H    0.126006
    14  C   -0.170489
    15  C   -0.116158
    16  C   -0.098097
    17  C   -0.134580
    18  C   -0.167368
    19  C    0.009539
    20  H    0.147408
    21  H    0.107920
    22  H    0.109529
    23  H    0.106982
    24  H    0.138737
    25  C   -0.121648
    26  C   -0.127836
    27  C   -0.097591
    28  C   -0.129439
    29  C   -0.130330
    30  C   -0.055362
    31  H    0.104269
    32  H    0.106080
    33  H    0.108705
    34  H    0.107915
    35  H    0.153752
    36  C   -0.218756
    37  C   -0.103952
    38  C   -0.106687
    39  C   -0.143005
    40  C   -0.116934
    41  C    0.020697
    42  H    0.125159
    43  H    0.108114
    44  H    0.106121
    45  H    0.100627
    46  H    0.146780
    47  C   -0.174102
    48  C   -0.007198
    49  C    0.067959
    50  H    0.053708
    51  C    0.006772
    52  H    0.055496
    53  C   -0.347257
    54  H    0.116602
    55  H    0.108385
    56  H    0.109590
    57  C   -0.375456
    58  H    0.109935
    59  H    0.146925
    60  H    0.116349
    61  C   -0.348618
    62  H    0.109669
    63  H    0.110494
    64  H    0.110042
    65  C   -0.368368
    66  H    0.156797
    67  H    0.103475
    68  H    0.116291
 Sum of Mulliken charges =  -0.00000

 Dipole moment (field-independent basis, Debye):
    X=             -0.2045    Y=             -1.1716    Z=              2.8730  Tot=              3.1095
 Quadrupole moment (field-independent basis, Debye-Ang):
   XX=           -204.0043   YY=           -205.4485   ZZ=           -221.7186
   XY=              0.4511   XZ=             -1.0349   YZ=              6.3244

 Summary of Natural Population Analysis:

                                       Natural Population
                Natural  -----------------------------------------------
    Atom  No    Charge         Core      Valence    Rydberg      Total
 -----------------------------------------------------------------------
      P    1    0.84355      9.99775     4.12530    0.03340    14.15645
      P    2    0.84012      9.99783     4.12869    0.03336    14.15988
      C    3   -0.21575      1.99908     4.19686    0.01981     6.21575
      C    4   -0.19703      1.99918     4.17939    0.01846     6.19703
      C    5   -0.21693      1.99919     4.19821    0.01953     6.21693
      C    6   -0.19707      1.99918     4.17943    0.01846     6.19707
      C    7   -0.21005      1.99909     4.19133    0.01963     6.21005
      C    8   -0.32635      1.99897     4.29566    0.03172     6.32635
      H    9    0.20426      0.00000     0.79361    0.00212     0.79574
      H   10    0.20617      0.00000     0.79253    0.00130     0.79383
      H   11    0.20731      0.00000     0.79151    0.00118     0.79269
      H   12    0.20817      0.00000     0.79056    0.00126     0.79183
      H   13    0.21284      0.00000     0.78541    0.00176     0.78716
      C   14   -0.20874      1.99907     4.18988    0.01978     6.20874
      C   15   -0.20374      1.99918     4.18564    0.01892     6.20374
      C   16   -0.20508      1.99919     4.18662    0.01928     6.20508
      C   17   -0.20328      1.99918     4.18558    0.01851     6.20328
      C   18   -0.19709      1.99909     4.17824    0.01976     6.19709
      C   19   -0.31883      1.99896     4.28753    0.03234     6.31883
      H   20    0.21458      0.00000     0.78320    0.00222     0.78542
      H   21    0.20779      0.00000     0.79087    0.00133     0.79221
      H   22    0.20860      0.00000     0.79022    0.00118     0.79140
      H   23    0.20912      0.00000     0.78961    0.00127     0.79088
      H   24    0.20908      0.00000     0.78920    0.00172     0.79092
      C   25   -0.19953      1.99908     4.18086    0.01959     6.19953
      C   26   -0.20210      1.99918     4.18448    0.01844     6.20210
      C   27   -0.20735      1.99919     4.18881    0.01935     6.20735
      C   28   -0.20177      1.99918     4.18379    0.01880     6.20177
      C   29   -0.21012      1.99907     4.19156    0.01949     6.21012
      C   30   -0.32602      1.99896     4.29492    0.03215     6.32602
      H   31    0.20784      0.00000     0.79024    0.00192     0.79216
      H   32    0.20930      0.00000     0.78942    0.00128     0.79070
      H   33    0.20866      0.00000     0.79016    0.00118     0.79134
      H   34    0.20831      0.00000     0.79036    0.00133     0.79169
      H   35    0.21592      0.00000     0.78185    0.00223     0.78408
      C   36   -0.20841      1.99909     4.18966    0.01965     6.20841
      C   37   -0.19891      1.99918     4.18123    0.01850     6.19891
      C   38   -0.21429      1.99919     4.19563    0.01947     6.21429
      C   39   -0.19865      1.99918     4.18095    0.01852     6.19865
      C   40   -0.21146      1.99907     4.19264    0.01974     6.21146
      C   41   -0.32088      1.99896     4.29017    0.03174     6.32088
      H   42    0.21303      0.00000     0.78524    0.00173     0.78697
      H   43    0.20855      0.00000     0.79019    0.00127     0.79145
      H   44    0.20737      0.00000     0.79145    0.00118     0.79263
      H   45    0.20610      0.00000     0.79260    0.00130     0.79390
      H   46    0.20516      0.00000     0.79271    0.00213     0.79484
      C   47   -0.64525      1.99882     4.60695    0.03948     6.64525
      C   48    0.16083      1.99890     3.81297    0.02731     5.83917
      C   49   -0.26729      1.99932     4.25100    0.01697     6.26729
      H   50    0.21871      0.00000     0.77790    0.00338     0.78129
      C   51   -0.26781      1.99930     4.25205    0.01646     6.26781
      H   52    0.19468      0.00000     0.80247    0.00285     0.80532
      C   53   -0.58136      1.99941     4.57021    0.01175     6.58136
      H   54    0.21043      0.00000     0.78846    0.00112     0.78957
      H   55    0.19542      0.00000     0.80332    0.00127     0.80458
      H   56    0.20551      0.00000     0.79328    0.00121     0.79449
      C   57   -0.58826      1.99941     4.57641    0.01244     6.58826
      H   58    0.20852      0.00000     0.79024    0.00123     0.79148
      H   59    0.21433      0.00000     0.78418    0.00148     0.78567
      H   60    0.19663      0.00000     0.80210    0.00127     0.80337
      C   61   -0.57812      1.99941     4.56655    0.01217     6.57812
      H   62    0.20288      0.00000     0.79598    0.00114     0.79712
      H   63    0.20413      0.00000     0.79469    0.00118     0.79587
      H   64    0.20914      0.00000     0.78896    0.00190     0.79086
      C   65   -0.57879      1.99940     4.56699    0.01240     6.57879
      H   66    0.21688      0.00000     0.78149    0.00163     0.78312
      H   67    0.20190      0.00000     0.79693    0.00117     0.79810
      H   68    0.20448      0.00000     0.79450    0.00102     0.79552
 =======================================================================
   * Total *    0.00000     83.96821   171.25169    0.78010   256.00000

 Normal termination of Gaussian 16 at Thu Jan 23 01:54:29 2025.
