 Gaussian 16, Revision B.01,
 Gaussian 16:  ES64L-G16RevB.01 20-Dec-2017

 --------------------------------------------
 # nmr=giao b3lyp/def2TZVP pop=nbo scfcyc=200
 --------------------------------------------

 --------------
 DS-13 SPE NoRh
 --------------
 Symbolic Z-matrix:
 Charge =  0 Multiplicity = 1

                         Standard orientation:
 ---------------------------------------------------------------------
 Center     Atomic      Atomic             Coordinates (Angstroms)
 Number     Number       Type             X           Y           Z
 ---------------------------------------------------------------------
      1         15           0       -1.361117   -0.076735   -0.910136
      2         15           0        1.490940    0.065840   -0.911073
      3          6           0        0.062285   -0.556469    0.355219
      4          6           0       -2.792372   -1.223082   -0.734546
      5          6           0       -3.837007   -0.964658    0.160932
      6          6           0       -4.915814   -1.836153    0.242903
      7          6           0       -4.965694   -2.968041   -0.563508
      8          6           0       -3.932046   -3.231120   -1.456838
      9          6           0       -2.849537   -2.364280   -1.543459
     10          6           0       -2.032685    1.583564   -0.458186
     11          6           0       -1.393461    2.508271    0.368492
     12          6           0       -1.941667    3.770746    0.568302
     13          6           0       -3.124946    4.133004   -0.063859
     14          6           0       -3.761511    3.222883   -0.902587
     15          6           0       -3.222252    1.959688   -1.100844
     16          6           0        2.992128   -0.992719   -0.732631
     17          6           0        2.948767   -2.289991   -1.266415
     18          6           0        4.066218   -3.112459   -1.214103
     19          6           0        5.249821   -2.647722   -0.650101
     20          6           0        5.311789   -1.355119   -0.143921
     21          6           0        4.193054   -0.529891   -0.182387
     22          6           0        1.958551    1.800019   -0.490786
     23          6           0        2.624694    2.198811    0.676807
     24          6           0        2.987652    3.527515    0.853431
     25          6           0        2.695484    4.476236   -0.123294
     26          6           0        2.027133    4.092003   -1.279478
     27          6           0        1.659899    2.764605   -1.462104
     28          1           0       -3.814938   -0.087497    0.790734
     29          1           0       -5.717612   -1.628399    0.939680
     30          1           0       -5.809708   -3.644312   -0.496671
     31          1           0       -3.965052   -4.112813   -2.083501
     32          1           0       -2.040149   -2.585172   -2.223842
     33          1           0       -0.464938    2.272917    0.866509
     34          1           0       -1.439590    4.468955    1.225426
     35          1           0       -3.550494    5.115181    0.097193
     36          1           0       -4.685386    3.492647   -1.399091
     37          1           0       -3.745528    1.260849   -1.740670
     38          1           0        2.042344   -2.665178   -1.720453
     39          1           0        4.011881   -4.114459   -1.620801
     40          1           0        6.123151   -3.288292   -0.614227
     41          1           0        6.232916   -0.980443    0.283199
     42          1           0        4.277308    0.474823    0.200256
     43          1           0        2.837375    1.490797    1.460951
     44          1           0        3.498273    3.822731    1.761343
     45          1           0        2.982924    5.509427    0.021475
     46          1           0        1.788910    4.824273   -2.041144
     47          1           0        1.125952    2.470405   -2.355842
     48          6           0        0.042051   -0.025848    1.777229
     49          6           0        0.188427   -2.073713    0.354988
     50          8           0        0.916551    0.542842    2.332792
     51          8           0       -0.106704   -2.777507   -0.554102
     52         17           0       -1.514522   -0.353844    2.639829
     53         17           0        0.952902   -2.778637    1.819145
 ---------------------------------------------------------------------

 SCF Done:  E(RB3LYP) =  -2794.97331460     A.U. after   15 cycles

      1  P    Isotropic =   170.1929   Anisotropy =   135.2798

      2  P    Isotropic =   150.7487   Anisotropy =   240.4139

      3  C    Isotropic =    80.1244   Anisotropy =    17.7473

      4  C    Isotropic =    39.0123   Anisotropy =   188.0910

      5  C    Isotropic =    40.1529   Anisotropy =   196.1208

      6  C    Isotropic =    50.4694   Anisotropy =   181.5679

      7  C    Isotropic =    47.3063   Anisotropy =   190.0584

      8  C    Isotropic =    51.2501   Anisotropy =   180.8107

      9  C    Isotropic =    35.1826   Anisotropy =   193.6626

     10  C    Isotropic =    37.9217   Anisotropy =   183.5160

     11  C    Isotropic =    47.8351   Anisotropy =   187.4284

     12  C    Isotropic =    50.4624   Anisotropy =   184.4280

     13  C    Isotropic =    51.8452   Anisotropy =   183.8754

     14  C    Isotropic =    50.6738   Anisotropy =   183.3143

     15  C    Isotropic =    47.3110   Anisotropy =   186.1667

     16  C    Isotropic =    40.8123   Anisotropy =   184.9104

     17  C    Isotropic =    41.1303   Anisotropy =   190.6917

     18  C    Isotropic =    49.4594   Anisotropy =   184.4337

     19  C    Isotropic =    49.0539   Anisotropy =   187.9774

     20  C    Isotropic =    50.0019   Anisotropy =   182.3788

     21  C    Isotropic =    45.6541   Anisotropy =   189.2709

     22  C    Isotropic =    42.7919   Anisotropy =   183.7167

     23  C    Isotropic =    35.1286   Anisotropy =   201.1655

     24  C    Isotropic =    50.8101   Anisotropy =   183.2198

     25  C    Isotropic =    45.8120   Anisotropy =   193.9589

     26  C    Isotropic =    49.5996   Anisotropy =   186.1529

     27  C    Isotropic =    37.6166   Anisotropy =   186.4183

     28  H    Isotropic =    23.9863   Anisotropy =    10.9425

     29  H    Isotropic =    24.4557   Anisotropy =     6.7940

     30  H    Isotropic =    24.2250   Anisotropy =     4.3197

     31  H    Isotropic =    24.1457   Anisotropy =     5.4988

     32  H    Isotropic =    23.1782   Anisotropy =     9.4020

     33  H    Isotropic =    25.4215   Anisotropy =     5.3776

     34  H    Isotropic =    25.0276   Anisotropy =     7.7690

     35  H    Isotropic =    24.6547   Anisotropy =     4.4262

     36  H    Isotropic =    24.5153   Anisotropy =     5.3650

     37  H    Isotropic =    24.6207   Anisotropy =    11.5949

     38  H    Isotropic =    23.7262   Anisotropy =     9.9611

     39  H    Isotropic =    24.1759   Anisotropy =     6.2885

     40  H    Isotropic =    24.3103   Anisotropy =     4.6407

     41  H    Isotropic =    24.3530   Anisotropy =     6.6770

     42  H    Isotropic =    23.7318   Anisotropy =    12.7828

     43  H    Isotropic =    22.4345   Anisotropy =     9.3017

     44  H    Isotropic =    23.9732   Anisotropy =     5.6739

     45  H    Isotropic =    24.0747   Anisotropy =     3.9887

     46  H    Isotropic =    24.3920   Anisotropy =     5.2476

     47  H    Isotropic =    23.8679   Anisotropy =     7.5025

     48  C    Isotropic =     0.4490   Anisotropy =    91.9719

     49  C    Isotropic =     3.6866   Anisotropy =    77.7497

     50  O    Isotropic =  -256.2848   Anisotropy =   667.4891

     51  O    Isotropic =  -249.5958   Anisotropy =   716.8443

     52  Cl   Isotropic =   355.3989   Anisotropy =   814.2406

     53  Cl   Isotropic =   353.2162   Anisotropy =   808.6819

 The electronic state is 1-A.
 Alpha  occ. eigenvalues -- -101.53590-101.52991 -77.07947 -77.07603 -19.16598
 Alpha  occ. eigenvalues --  -19.16425 -10.33985 -10.33678 -10.25390 -10.20035
 Alpha  occ. eigenvalues --  -10.19827 -10.19628 -10.19292 -10.19238 -10.19017
 Alpha  occ. eigenvalues --  -10.18953 -10.18833 -10.18778 -10.18527 -10.18482
 Alpha  occ. eigenvalues --  -10.18443 -10.18441 -10.18389 -10.18348 -10.18316
 Alpha  occ. eigenvalues --  -10.18288 -10.18216 -10.18215 -10.18200 -10.18196
 Alpha  occ. eigenvalues --  -10.18114 -10.17986 -10.17942  -9.46844  -9.46256
 Alpha  occ. eigenvalues --   -7.22943  -7.22344  -7.22207  -7.22092  -7.21625
 Alpha  occ. eigenvalues --   -7.21507  -6.56337  -6.56020  -4.72566  -4.72383
 Alpha  occ. eigenvalues --   -4.72245  -4.72076  -4.71952  -4.71640  -1.11001
 Alpha  occ. eigenvalues --   -1.10646  -0.87509  -0.87200  -0.86794  -0.86533
 Alpha  occ. eigenvalues --   -0.86286  -0.84897  -0.79876  -0.77424  -0.76501
 Alpha  occ. eigenvalues --   -0.76356  -0.75824  -0.75695  -0.75496  -0.75457
 Alpha  occ. eigenvalues --   -0.75084  -0.65610  -0.65223  -0.62282  -0.62051
 Alpha  occ. eigenvalues --   -0.61613  -0.61317  -0.61007  -0.60799  -0.60553
 Alpha  occ. eigenvalues --   -0.58802  -0.57272  -0.54000  -0.53324  -0.52864
 Alpha  occ. eigenvalues --   -0.52029  -0.51552  -0.50844  -0.48896  -0.48798
 Alpha  occ. eigenvalues --   -0.47531  -0.46945  -0.46752  -0.46460  -0.46377
 Alpha  occ. eigenvalues --   -0.46057  -0.45925  -0.45793  -0.45261  -0.44484
 Alpha  occ. eigenvalues --   -0.43777  -0.43167  -0.43051  -0.42917  -0.42814
 Alpha  occ. eigenvalues --   -0.41731  -0.41381  -0.39478  -0.38738  -0.38343
 Alpha  occ. eigenvalues --   -0.37944  -0.37870  -0.36876  -0.36188  -0.35816
 Alpha  occ. eigenvalues --   -0.35514  -0.35361  -0.34414  -0.34319  -0.34032
 Alpha  occ. eigenvalues --   -0.33639  -0.33382  -0.32633  -0.32394  -0.31681
 Alpha  occ. eigenvalues --   -0.29968  -0.28934  -0.27842  -0.27392  -0.27175
 Alpha  occ. eigenvalues --   -0.26772  -0.26555  -0.26418  -0.26041  -0.23874
 Alpha  occ. eigenvalues --   -0.20421
 Alpha virt. eigenvalues --   -0.07539  -0.06666  -0.04757  -0.03883  -0.03447
 Alpha virt. eigenvalues --   -0.02984  -0.02706  -0.02102  -0.02012  -0.01201
 Alpha virt. eigenvalues --   -0.00717   0.01179   0.02465   0.03502   0.04425

 Mulliken charges:
               1
     1  P    0.159209
     2  P    0.114450
     3  C    0.042249
     4  C    0.008734
     5  C   -0.164040
     6  C   -0.117256
     7  C   -0.096768
     8  C   -0.108027
     9  C   -0.129118
    10  C    0.065636
    11  C   -0.138373
    12  C   -0.162426
    13  C   -0.103146
    14  C   -0.110909
    15  C   -0.209317
    16  C    0.046097
    17  C   -0.160708
    18  C   -0.118366
    19  C   -0.096622
    20  C   -0.136204
    21  C   -0.152887
    22  C   -0.018530
    23  C   -0.188626
    24  C   -0.115656
    25  C   -0.087420
    26  C   -0.121490
    27  C   -0.108626
    28  H    0.143317
    29  H    0.110382
    30  H    0.112157
    31  H    0.111693
    32  H    0.125517
    33  H    0.172481
    34  H    0.109651
    35  H    0.110149
    36  H    0.111841
    37  H    0.131171
    38  H    0.146248
    39  H    0.113802
    40  H    0.112088
    41  H    0.109363
    42  H    0.145526
    43  H    0.185776
    44  H    0.115486
    45  H    0.116463
    46  H    0.114339
    47  H    0.126263
    48  C    0.160538
    49  C    0.142547
    50  O   -0.195180
    51  O   -0.223613
    52  Cl  -0.110261
    53  Cl  -0.089610
 Sum of Mulliken charges =  -0.00000

 Dipole moment (field-independent basis, Debye):
    X=              0.1264    Y=              2.1768    Z=             -0.7825  Tot=              2.3166
 Quadrupole moment (field-independent basis, Debye-Ang):
   XX=           -196.4490   YY=           -200.5280   ZZ=           -226.1775
   XY=              1.8494   XZ=              3.6131   YZ=              3.8196

 Summary of Natural Population Analysis:

                                       Natural Population
                Natural  -----------------------------------------------
    Atom  No    Charge         Core      Valence    Rydberg      Total
 -----------------------------------------------------------------------
      P    1    0.89327      9.99801     4.07606    0.03266    14.10673
      P    2    0.87390      9.99807     4.09583    0.03219    14.12610
      C    3   -0.74021      1.99896     4.69351    0.04774     6.74021
      C    4   -0.36159      1.99897     4.32940    0.03322     6.36159
      C    5   -0.18011      1.99908     4.16120    0.01983     6.18011
      C    6   -0.21082      1.99918     4.19279    0.01885     6.21082
      C    7   -0.18666      1.99919     4.16861    0.01886     6.18666
      C    8   -0.20964      1.99918     4.19135    0.01911     6.20964
      C    9   -0.16893      1.99910     4.14954    0.02029     6.16893
      C   10   -0.34000      1.99896     4.30985    0.03119     6.34000
      C   11   -0.21080      1.99906     4.19092    0.02081     6.21080
      C   12   -0.19233      1.99919     4.17391    0.01924     6.19233
      C   13   -0.20656      1.99919     4.18816    0.01922     6.20656
      C   14   -0.19775      1.99918     4.18012    0.01846     6.19775
      C   15   -0.20351      1.99909     4.18501    0.01941     6.20351
      C   16   -0.35571      1.99897     4.32523    0.03152     6.35571
      C   17   -0.19045      1.99910     4.17113    0.02021     6.19045
      C   18   -0.19820      1.99918     4.18058    0.01844     6.19820
      C   19   -0.19247      1.99919     4.17430    0.01898     6.19247
      C   20   -0.20024      1.99918     4.18261    0.01845     6.20024
      C   21   -0.19121      1.99909     4.17277    0.01936     6.19121
      C   22   -0.36658      1.99896     4.33572    0.03190     6.36658
      C   23   -0.18695      1.99909     4.16662    0.02124     6.18695
      C   24   -0.20900      1.99918     4.19137    0.01845     6.20900
      C   25   -0.18238      1.99919     4.16447    0.01873     6.18238
      C   26   -0.20691      1.99917     4.18930    0.01843     6.20691
      C   27   -0.17454      1.99910     4.15495    0.02049     6.17454
      H   28    0.21933      0.00000     0.77848    0.00219     0.78067
      H   29    0.20945      0.00000     0.78920    0.00135     0.79055
      H   30    0.20915      0.00000     0.78967    0.00118     0.79085
      H   31    0.21145      0.00000     0.78730    0.00125     0.78855
      H   32    0.22570      0.00000     0.77291    0.00140     0.77430
      H   33    0.21237      0.00000     0.78483    0.00280     0.78763
      H   34    0.21157      0.00000     0.78716    0.00126     0.78843
      H   35    0.20948      0.00000     0.78936    0.00115     0.79052
      H   36    0.21064      0.00000     0.78813    0.00123     0.78936
      H   37    0.21642      0.00000     0.78193    0.00165     0.78358
      H   38    0.22374      0.00000     0.77441    0.00185     0.77626
      H   39    0.21251      0.00000     0.78625    0.00124     0.78749
      H   40    0.20978      0.00000     0.78905    0.00117     0.79022
      H   41    0.20929      0.00000     0.78943    0.00128     0.79071
      H   42    0.21423      0.00000     0.78378    0.00199     0.78577
      H   43    0.23119      0.00000     0.76658    0.00224     0.76881
      H   44    0.21218      0.00000     0.78657    0.00125     0.78782
      H   45    0.21102      0.00000     0.78780    0.00118     0.78898
      H   46    0.21395      0.00000     0.78485    0.00120     0.78605
      H   47    0.22250      0.00000     0.77588    0.00161     0.77750
      C   48    0.54885      1.99910     3.39762    0.05444     5.45115
      C   49    0.55357      1.99911     3.39857    0.04875     5.44643
      O   50   -0.48838      1.99972     6.45682    0.03184     8.48838
      O   51   -0.49885      1.99973     6.46676    0.03237     8.49885
     Cl   52   -0.07327      9.99959     7.06117    0.01251    17.07327
     Cl   53   -0.04147      9.99958     7.02699    0.01490    17.04147
 =======================================================================
   * Total *    0.00000     97.97064   163.17681    0.85256   262.00000

 Normal termination of Gaussian 16 at Thu Jan 23 01:35:31 2025.
