 Gaussian 16, Revision B.01,
 Gaussian 16:  ES64L-G16RevB.01 20-Dec-2017

 --------------------------------------------
 # nmr=giao b3lyp/def2TZVP pop=nbo scfcyc=200
 --------------------------------------------

 --------------
 DS-14 SPE NoRh
 --------------
 Symbolic Z-matrix:
 Charge =  0 Multiplicity = 1

                         Standard orientation:
 ---------------------------------------------------------------------
 Center     Atomic      Atomic             Coordinates (Angstroms)
 Number     Number       Type             X           Y           Z
 ---------------------------------------------------------------------
      1         15           0        1.405957    0.448435   -1.221539
      2         15           0       -1.410919    0.476674   -1.212632
      3          7           0        0.011887   -0.258251    2.384589
      4          6           0        2.400381   -1.102751   -1.116609
      5          6           0        2.109722   -2.150236   -1.994801
      6          6           0        2.801911   -3.352641   -1.907722
      7          6           0        3.792626   -3.517475   -0.945244
      8          6           0        4.090180   -2.478109   -0.068934
      9          6           0        3.399037   -1.274394   -0.151990
     10          6           0        2.549467    1.772644   -0.645516
     11          6           0        3.771318    1.941413   -1.310196
     12          6           0        4.628832    2.972934   -0.948986
     13          6           0        4.276639    3.850771    0.073309
     14          6           0        3.064844    3.689060    0.734816
     15          6           0        2.201347    2.657597    0.375888
     16          6           0       -2.416795   -1.067420   -1.132482
     17          6           0       -3.331402   -1.294691   -0.097919
     18          6           0       -4.035504   -2.491900   -0.038948
     19          6           0       -3.836052   -3.469787   -1.009576
     20          6           0       -2.931502   -3.249122   -2.041859
     21          6           0       -2.225433   -2.052366   -2.104425
     22          6           0       -2.543416    1.796049   -0.602969
     23          6           0       -2.134444    2.729569    0.350668
     24          6           0       -2.985920    3.762432    0.731781
     25          6           0       -4.246194    3.878330    0.157549
     26          6           0       -4.659084    2.954261   -0.799142
     27          6           0       -3.813619    1.920122   -1.179768
     28          6           0        0.000227    0.309323   -0.067361
     29          6           0        0.004120   -0.050740    1.213036
     30          6           0        0.013073   -1.414007    3.312662
     31          6           0        0.007135   -2.726783    2.522638
     32          6           0        1.279301   -1.284914    4.168927
     33          6           0       -1.242767   -1.278813    4.181711
     34          1           0        1.340246   -2.022475   -2.746735
     35          1           0        2.572469   -4.157999   -2.595111
     36          1           0        4.337646   -4.451543   -0.881189
     37          1           0        4.865666   -2.600089    0.675827
     38          1           0        3.648418   -0.467421    0.524967
     39          1           0        4.066525    1.258524   -2.098074
     40          1           0        5.573240    3.090893   -1.465085
     41          1           0        4.945931    4.653587    0.353887
     42          1           0        2.787647    4.364532    1.534594
     43          1           0        1.261990    2.539999    0.897764
     44          1           0       -3.507015   -0.533805    0.651857
     45          1           0       -4.746219   -2.657270    0.760894
     46          1           0       -4.391224   -4.398923   -0.964288
     47          1           0       -2.779923   -4.005210   -2.802606
     48          1           0       -1.523670   -1.877466   -2.911753
     49          1           0       -1.155740    2.649204    0.803366
     50          1           0       -2.662031    4.476533    1.479259
     51          1           0       -4.907877    4.682699    0.455114
     52          1           0       -5.641726    3.036433   -1.246434
     53          1           0       -4.154481    1.199890   -1.914622
     54          1           0        0.008992   -3.571001    3.213878
     55          1           0        0.889381   -2.806113    1.886628
     56          1           0       -0.882676   -2.803113    1.896292
     57          1           0        1.304898   -2.092033    4.901314
     58          1           0        1.294158   -0.333698    4.700823
     59          1           0        2.176813   -1.354226    3.552527
     60          1           0       -1.263162   -2.086317    4.916239
     61          1           0       -2.147307   -1.345238    3.576100
     62          1           0       -1.247908   -0.327372    4.713762
 ---------------------------------------------------------------------

 SCF Done:  E(RB3LYP) =  -1898.56623431     A.U. after   15 cycles

      1  P    Isotropic =   224.3437   Anisotropy =   102.8697

      2  P    Isotropic =   222.0020   Anisotropy =   104.6409

      3  N    Isotropic =    58.2823   Anisotropy =   123.4064

      4  C    Isotropic =    29.9135   Anisotropy =   209.6308

      5  C    Isotropic =    42.1834   Anisotropy =   181.6187

      6  C    Isotropic =    50.2901   Anisotropy =   182.5321

      7  C    Isotropic =    49.7768   Anisotropy =   186.2742

      8  C    Isotropic =    49.6942   Anisotropy =   183.5927

      9  C    Isotropic =    43.2906   Anisotropy =   187.5861

     10  C    Isotropic =    33.3084   Anisotropy =   193.2832

     11  C    Isotropic =    48.4744   Anisotropy =   184.1928

     12  C    Isotropic =    50.0962   Anisotropy =   183.7079

     13  C    Isotropic =    52.9257   Anisotropy =   180.2665

     14  C    Isotropic =    50.3561   Anisotropy =   181.8960

     15  C    Isotropic =    47.4063   Anisotropy =   183.5727

     16  C    Isotropic =    30.0908   Anisotropy =   209.8573

     17  C    Isotropic =    42.2162   Anisotropy =   187.2180

     18  C    Isotropic =    49.2497   Anisotropy =   184.0207

     19  C    Isotropic =    49.3907   Anisotropy =   187.0921

     20  C    Isotropic =    50.3862   Anisotropy =   182.5051

     21  C    Isotropic =    41.6615   Anisotropy =   181.0989

     22  C    Isotropic =    32.0681   Anisotropy =   193.5149

     23  C    Isotropic =    48.0732   Anisotropy =   183.6557

     24  C    Isotropic =    50.5139   Anisotropy =   181.3111

     25  C    Isotropic =    53.1424   Anisotropy =   179.4836

     26  C    Isotropic =    50.1770   Anisotropy =   183.3597

     27  C    Isotropic =    49.0902   Anisotropy =   183.9111

     28  C    Isotropic =   143.5889   Anisotropy =    26.9069

     29  C    Isotropic =    24.2524   Anisotropy =   215.5657

     30  C    Isotropic =   116.5820   Anisotropy =    47.6270

     31  C    Isotropic =   152.5742   Anisotropy =    42.8026

     32  C    Isotropic =   151.4814   Anisotropy =    46.6463

     33  C    Isotropic =   151.4793   Anisotropy =    46.4414

     34  H    Isotropic =    23.5149   Anisotropy =     8.3347

     35  H    Isotropic =    24.2760   Anisotropy =     5.5345

     36  H    Isotropic =    24.4367   Anisotropy =     4.1459

     37  H    Isotropic =    24.5254   Anisotropy =     6.1307

     38  H    Isotropic =    24.3325   Anisotropy =    10.5442

     39  H    Isotropic =    24.5415   Anisotropy =    11.2140

     40  H    Isotropic =    24.4213   Anisotropy =     5.3903

     41  H    Isotropic =    24.5130   Anisotropy =     4.2515

     42  H    Isotropic =    24.2312   Anisotropy =     6.7108

     43  H    Isotropic =    23.6553   Anisotropy =    10.2208

     44  H    Isotropic =    24.2131   Anisotropy =    10.0777

     45  H    Isotropic =    24.4555   Anisotropy =     6.1925

     46  H    Isotropic =    24.3695   Anisotropy =     4.1830

     47  H    Isotropic =    24.2078   Anisotropy =     5.3124

     48  H    Isotropic =    23.4170   Anisotropy =     8.3011

     49  H    Isotropic =    23.6859   Anisotropy =    10.2153

     50  H    Isotropic =    24.2666   Anisotropy =     6.7147

     51  H    Isotropic =    24.5482   Anisotropy =     4.2276

     52  H    Isotropic =    24.4666   Anisotropy =     5.5363

     53  H    Isotropic =    24.6625   Anisotropy =    11.5329

     54  H    Isotropic =    31.5255   Anisotropy =     8.4568

     55  H    Isotropic =    31.6844   Anisotropy =     8.4524

     56  H    Isotropic =    31.5686   Anisotropy =     8.1770

     57  H    Isotropic =    31.1587   Anisotropy =     9.4693

     58  H    Isotropic =    30.6429   Anisotropy =     7.4276

     59  H    Isotropic =    30.8928   Anisotropy =     5.9099

     60  H    Isotropic =    31.1003   Anisotropy =     9.4980

     61  H    Isotropic =    30.8518   Anisotropy =     5.9173

     62  H    Isotropic =    30.6224   Anisotropy =     7.3891

 The electronic state is 1-A.
 Alpha  occ. eigenvalues --  -77.04972 -77.04967 -14.34598 -10.25046 -10.24887
 Alpha  occ. eigenvalues --  -10.18202 -10.18163 -10.18087 -10.18011 -10.17981
 Alpha  occ. eigenvalues --  -10.17923 -10.17917 -10.17916 -10.17915 -10.17894
 Alpha  occ. eigenvalues --  -10.17858 -10.17839 -10.17834 -10.17810 -10.17744
 Alpha  occ. eigenvalues --  -10.17665 -10.17624 -10.17287 -10.17278 -10.17219
 Alpha  occ. eigenvalues --  -10.17207 -10.17183 -10.17129 -10.17123 -10.17109
 Alpha  occ. eigenvalues --  -10.17035 -10.17020 -10.16939  -6.53432  -6.53426
 Alpha  occ. eigenvalues --   -4.69601  -4.69595  -4.69528  -4.69522  -4.69096
 Alpha  occ. eigenvalues --   -4.69088  -0.96509  -0.86230  -0.86125  -0.85369
 Alpha  occ. eigenvalues --   -0.85298  -0.83048  -0.78067  -0.76257  -0.75251
 Alpha  occ. eigenvalues --   -0.75165  -0.74746  -0.74462  -0.74278  -0.74229
 Alpha  occ. eigenvalues --   -0.73849  -0.70804  -0.70719  -0.64748  -0.63941
 Alpha  occ. eigenvalues --   -0.61973  -0.61072  -0.60952  -0.60344  -0.60285
 Alpha  occ. eigenvalues --   -0.59822  -0.59731  -0.57245  -0.56117  -0.52330
 Alpha  occ. eigenvalues --   -0.51905  -0.51838  -0.50645  -0.49932  -0.46929
 Alpha  occ. eigenvalues --   -0.46920  -0.46685  -0.45883  -0.45788  -0.45513
 Alpha  occ. eigenvalues --   -0.45359  -0.45153  -0.44930  -0.44534  -0.43133
 Alpha  occ. eigenvalues --   -0.42869  -0.42684  -0.42616  -0.42168  -0.42071
 Alpha  occ. eigenvalues --   -0.41758  -0.41037  -0.40505  -0.40146  -0.39793
 Alpha  occ. eigenvalues --   -0.38442  -0.38071  -0.37869  -0.37741  -0.37130
 Alpha  occ. eigenvalues --   -0.37001  -0.36832  -0.35982  -0.35361  -0.35171
 Alpha  occ. eigenvalues --   -0.34988  -0.34957  -0.34508  -0.34264  -0.32844
 Alpha  occ. eigenvalues --   -0.32214  -0.30630  -0.27628  -0.26887  -0.26684
 Alpha  occ. eigenvalues --   -0.26359  -0.26117  -0.25910  -0.25443  -0.25300
 Alpha  occ. eigenvalues --   -0.23253  -0.21822  -0.18445
 Alpha virt. eigenvalues --   -0.03886  -0.03691  -0.02745  -0.02454  -0.01854
 Alpha virt. eigenvalues --   -0.01587  -0.01241  -0.00597  -0.00112   0.00393
 Alpha virt. eigenvalues --    0.01861   0.04186   0.04380   0.04654   0.05770

 Mulliken charges:
               1
     1  P    0.162486
     2  P    0.168765
     3  N   -0.071435
     4  C    0.033473
     5  C   -0.156719
     6  C   -0.117822
     7  C   -0.094695
     8  C   -0.123875
     9  C   -0.164943
    10  C    0.013723
    11  C   -0.177613
    12  C   -0.107381
    13  C   -0.102985
    14  C   -0.140160
    15  C   -0.125170
    16  C    0.044159
    17  C   -0.178937
    18  C   -0.116366
    19  C   -0.095362
    20  C   -0.113115
    21  C   -0.171121
    22  C    0.005132
    23  C   -0.113650
    24  C   -0.142722
    25  C   -0.099305
    26  C   -0.116166
    27  C   -0.170015
    28  C   -0.299579
    29  C    0.064735
    30  C    0.139831
    31  C   -0.361663
    32  C   -0.319462
    33  C   -0.318379
    34  H    0.114247
    35  H    0.107176
    36  H    0.109461
    37  H    0.107242
    38  H    0.138236
    39  H    0.113432
    40  H    0.106509
    41  H    0.105697
    42  H    0.102519
    43  H    0.137329
    44  H    0.136587
    45  H    0.107337
    46  H    0.110113
    47  H    0.108074
    48  H    0.123104
    49  H    0.122232
    50  H    0.101704
    51  H    0.104856
    52  H    0.105980
    53  H    0.116949
    54  H    0.108804
    55  H    0.145000
    56  H    0.143893
    57  H    0.108122
    58  H    0.117935
    59  H    0.119618
    60  H    0.108171
    61  H    0.117557
    62  H    0.118453
 Sum of Mulliken charges =  -0.00000

 Dipole moment (field-independent basis, Debye):
    X=              0.0081    Y=             -3.1725    Z=              3.6440  Tot=              4.8315
 Quadrupole moment (field-independent basis, Debye-Ang):
   XX=           -199.6872   YY=           -198.0997   ZZ=           -202.7706
   XY=              1.0974   XZ=              0.1836   YZ=              5.1989

 Summary of Natural Population Analysis:

                                       Natural Population
                Natural  -----------------------------------------------
    Atom  No    Charge         Core      Valence    Rydberg      Total
 -----------------------------------------------------------------------
      P    1    0.89016      9.99791     4.07711    0.03482    14.10984
      P    2    0.88905      9.99791     4.07801    0.03502    14.11095
      N    3   -0.40048      1.99902     5.37031    0.03115     7.40048
      C    4   -0.32902      1.99899     4.29732    0.03271     6.32902
      C    5   -0.19124      1.99909     4.17215    0.02000     6.19124
      C    6   -0.20418      1.99918     4.18623    0.01877     6.20418
      C    7   -0.20289      1.99919     4.18443    0.01927     6.20289
      C    8   -0.20705      1.99919     4.18890    0.01896     6.20705
      C    9   -0.20040      1.99908     4.18134    0.01998     6.20040
      C   10   -0.32934      1.99900     4.29784    0.03250     6.32934
      C   11   -0.20463      1.99909     4.18596    0.01958     6.20463
      C   12   -0.19817      1.99919     4.18029    0.01869     6.19817
      C   13   -0.21548      1.99919     4.19676    0.01953     6.21548
      C   14   -0.19762      1.99919     4.17974    0.01870     6.19762
      C   15   -0.21180      1.99908     4.19295    0.01976     6.21180
      C   16   -0.33095      1.99899     4.29871    0.03325     6.33095
      C   17   -0.19883      1.99908     4.17972    0.02003     6.19883
      C   18   -0.20737      1.99919     4.18921    0.01897     6.20737
      C   19   -0.20115      1.99919     4.18275    0.01921     6.20115
      C   20   -0.20549      1.99918     4.18699    0.01931     6.20549
      C   21   -0.19025      1.99910     4.17106    0.02009     6.19025
      C   22   -0.32891      1.99900     4.29740    0.03252     6.32891
      C   23   -0.21161      1.99908     4.19269    0.01984     6.21161
      C   24   -0.19741      1.99918     4.17953    0.01870     6.19741
      C   25   -0.21641      1.99919     4.19763    0.01959     6.21641
      C   26   -0.19802      1.99919     4.18012    0.01871     6.19802
      C   27   -0.20647      1.99909     4.18780    0.01959     6.20647
      C   28   -0.92187      1.99883     4.88753    0.03551     6.92187
      C   29    0.49693      1.99883     3.47958    0.02467     5.50307
      C   30    0.12315      1.99933     3.86157    0.01596     5.87685
      C   31   -0.60548      1.99938     4.59299    0.01312     6.60548
      C   32   -0.58702      1.99937     4.57514    0.01251     6.58702
      C   33   -0.58696      1.99937     4.57506    0.01253     6.58696
      H   34    0.21206      0.00000     0.78565    0.00229     0.78794
      H   35    0.20877      0.00000     0.78996    0.00127     0.79123
      H   36    0.20779      0.00000     0.79103    0.00117     0.79221
      H   37    0.20693      0.00000     0.79173    0.00133     0.79307
      H   38    0.21389      0.00000     0.78371    0.00240     0.78611
      H   39    0.21071      0.00000     0.78754    0.00175     0.78929
      H   40    0.20752      0.00000     0.79120    0.00128     0.79248
      H   41    0.20681      0.00000     0.79201    0.00117     0.79319
      H   42    0.20612      0.00000     0.79259    0.00128     0.79388
      H   43    0.20928      0.00000     0.78867    0.00205     0.79072
      H   44    0.21296      0.00000     0.78457    0.00247     0.78704
      H   45    0.20698      0.00000     0.79165    0.00137     0.79302
      H   46    0.20807      0.00000     0.79076    0.00118     0.79193
      H   47    0.20899      0.00000     0.78975    0.00127     0.79101
      H   48    0.21537      0.00000     0.78311    0.00152     0.78463
      H   49    0.20916      0.00000     0.78878    0.00206     0.79084
      H   50    0.20614      0.00000     0.79258    0.00128     0.79386
      H   51    0.20652      0.00000     0.79230    0.00118     0.79348
      H   52    0.20730      0.00000     0.79143    0.00127     0.79270
      H   53    0.21059      0.00000     0.78766    0.00175     0.78941
      H   54    0.20856      0.00000     0.79045    0.00100     0.79144
      H   55    0.21680      0.00000     0.78174    0.00146     0.78320
      H   56    0.21610      0.00000     0.78239    0.00150     0.78390
      H   57    0.20630      0.00000     0.79281    0.00089     0.79370
      H   58    0.21329      0.00000     0.78551    0.00121     0.78671
      H   59    0.21241      0.00000     0.78650    0.00109     0.78759
      H   60    0.20648      0.00000     0.79263    0.00089     0.79352
      H   61    0.21165      0.00000     0.78728    0.00108     0.78835
      H   62    0.21364      0.00000     0.78515    0.00121     0.78636
 =======================================================================
   * Total *   -0.00000     81.96883   163.25594    0.77524   246.00000

 Normal termination of Gaussian 16 at Thu Jan 23 01:34:59 2025.
