 Gaussian 16, Revision B.01,
 Gaussian 16:  ES64L-G16RevB.01 20-Dec-2017

 --------------------------------------------
 # nmr=giao b3lyp/def2TZVP pop=nbo scfcyc=200
 --------------------------------------------

 --------------
 DS-15 SPE NoRh
 --------------
 Symbolic Z-matrix:
 Charge =  0 Multiplicity = 1

                         Standard orientation:
 ---------------------------------------------------------------------
 Center     Atomic      Atomic             Coordinates (Angstroms)
 Number     Number       Type             X           Y           Z
 ---------------------------------------------------------------------
      1         15           0        1.828174   -0.054089   -0.970833
      2         15           0       -0.877384    0.549348   -1.276690
      3          6           0       -0.887679    2.656517    0.617396
      4          6           0       -1.216036    3.933156    1.063782
      5          6           0       -2.026851    4.757687    0.292680
      6          6           0       -2.506165    4.305678   -0.934194
      7          6           0       -2.174738    3.035478   -1.386833
      8          6           0       -1.370266    2.193500   -0.608027
      9          1           0       -0.251675    2.026932    1.225801
     10          1           0       -0.837474    4.279415    2.017038
     11          1           0       -2.283117    5.749616    0.642997
     12          1           0       -3.136748    4.944372   -1.539833
     13          1           0       -2.556875    2.700858   -2.343933
     14          6           0       -3.687759    0.027176   -1.149773
     15          6           0       -4.811671   -0.761757   -1.377886
     16          6           0       -4.679559   -2.022860   -1.947794
     17          6           0       -3.417506   -2.494430   -2.298322
     18          6           0       -2.295378   -1.704431   -2.086135
     19          6           0       -2.420003   -0.439774   -1.499940
     20          1           0       -3.809158    1.001564   -0.697259
     21          1           0       -5.790945   -0.388576   -1.105106
     22          1           0       -5.555456   -2.634914   -2.122279
     23          1           0       -3.309016   -3.474693   -2.745953
     24          1           0       -1.318989   -2.069469   -2.381529
     25          6           0        2.280150   -2.826087   -1.021593
     26          6           0        3.057008   -3.976781   -0.974223
     27          6           0        4.420430   -3.890714   -0.708725
     28          6           0        5.004141   -2.648549   -0.489791
     29          6           0        4.229355   -1.492057   -0.527775
     30          6           0        2.858865   -1.572548   -0.786206
     31          1           0        1.221334   -2.906559   -1.234439
     32          1           0        2.596503   -4.942522   -1.148209
     33          1           0        5.024657   -4.787662   -0.674825
     34          1           0        6.064359   -2.573728   -0.284952
     35          1           0        4.697157   -0.532769   -0.350456
     36          6           0        3.117989    2.434006   -0.799819
     37          6           0        3.796611    3.462593   -0.153130
     38          6           0        4.100474    3.354815    1.198132
     39          6           0        3.724767    2.215556    1.907578
     40          6           0        3.047111    1.187132    1.265689
     41          6           0        2.743856    1.286402   -0.097073
     42          1           0        2.869440    2.524792   -1.849135
     43          1           0        4.082957    4.349280   -0.705982
     44          1           0        4.628996    4.155504    1.700716
     45          1           0        3.957906    2.130263    2.961059
     46          1           0        2.761445    0.307816    1.829820
     47          6           0        0.238227   -0.285789   -0.054918
     48          6           0        0.064321   -1.081254    1.019280
     49          1           0        0.959033   -1.612149    1.344320
     50          6           0       -1.106313   -1.409868    1.825743
     51          6           0       -1.065193   -2.596678    2.578308
     52          6           0       -2.239777   -0.589883    1.935181
     53          6           0       -2.134318   -2.971675    3.377580
     54          1           0       -0.187165   -3.229541    2.524757
     55          6           0       -3.300197   -0.958844    2.749579
     56          1           0       -2.276414    0.355123    1.414118
     57          6           0       -3.256309   -2.152857    3.464748
     58          1           0       -2.088635   -3.893817    3.942294
     59          1           0       -4.162378   -0.309642    2.833967
     60          1           0       -4.087111   -2.435528    4.098727
 ---------------------------------------------------------------------

 SCF Done:  E(RB3LYP) =  -1918.22407170     A.U. after   15 cycles

      1  P    Isotropic =   223.5083   Anisotropy =   102.6433

      2  P    Isotropic =   235.5773   Anisotropy =    63.5479

      3  C    Isotropic =    46.4619   Anisotropy =   184.4800

      4  C    Isotropic =    49.3976   Anisotropy =   185.4597

      5  C    Isotropic =    51.9666   Anisotropy =   183.4037

      6  C    Isotropic =    50.4327   Anisotropy =   183.7913

      7  C    Isotropic =    46.6877   Anisotropy =   186.4695

      8  C    Isotropic =    38.8839   Anisotropy =   191.0450

      9  H    Isotropic =    24.6488   Anisotropy =     7.8095

     10  H    Isotropic =    24.7739   Anisotropy =     7.2244

     11  H    Isotropic =    24.5659   Anisotropy =     4.0903

     12  H    Isotropic =    24.2841   Anisotropy =     4.6824

     13  H    Isotropic =    24.1578   Anisotropy =    10.0864

     14  C    Isotropic =    48.6872   Anisotropy =   190.4036

     15  C    Isotropic =    50.2704   Anisotropy =   183.2946

     16  C    Isotropic =    51.3793   Anisotropy =   183.8503

     17  C    Isotropic =    50.2096   Anisotropy =   183.3789

     18  C    Isotropic =    45.1525   Anisotropy =   182.4861

     19  C    Isotropic =    36.3910   Anisotropy =   190.9343

     20  H    Isotropic =    24.2273   Anisotropy =    11.4634

     21  H    Isotropic =    24.6220   Anisotropy =     6.1393

     22  H    Isotropic =    24.7099   Anisotropy =     3.6726

     23  H    Isotropic =    24.5346   Anisotropy =     5.4313

     24  H    Isotropic =    23.9752   Anisotropy =     9.6187

     25  C    Isotropic =    47.8244   Anisotropy =   183.2380

     26  C    Isotropic =    50.5094   Anisotropy =   181.9250

     27  C    Isotropic =    53.6702   Anisotropy =   179.7916

     28  C    Isotropic =    49.5128   Anisotropy =   183.4789

     29  C    Isotropic =    49.0832   Anisotropy =   184.0179

     30  C    Isotropic =    30.2372   Anisotropy =   192.2721

     31  H    Isotropic =    23.8621   Anisotropy =    10.2198

     32  H    Isotropic =    24.2258   Anisotropy =     6.1209

     33  H    Isotropic =    24.5446   Anisotropy =     4.0595

     34  H    Isotropic =    24.4878   Anisotropy =     6.3617

     35  H    Isotropic =    24.9918   Anisotropy =    13.1250

     36  C    Isotropic =    38.9178   Anisotropy =   184.5406

     37  C    Isotropic =    50.0973   Anisotropy =   184.3552

     38  C    Isotropic =    48.3210   Anisotropy =   189.9055

     39  C    Isotropic =    48.9570   Anisotropy =   185.4240

     40  C    Isotropic =    41.2323   Anisotropy =   192.2136

     41  C    Isotropic =    35.9038   Anisotropy =   202.1483

     42  H    Isotropic =    23.8587   Anisotropy =     7.6156

     43  H    Isotropic =    24.3559   Anisotropy =     4.7859

     44  H    Isotropic =    24.2592   Anisotropy =     3.7251

     45  H    Isotropic =    24.2004   Anisotropy =     6.2392

     46  H    Isotropic =    23.7488   Anisotropy =    10.0337

     47  C    Isotropic =    35.1174   Anisotropy =   154.7045

     48  C    Isotropic =    25.2125   Anisotropy =   156.2061

     49  H    Isotropic =    23.6126   Anisotropy =     9.0141

     50  C    Isotropic =    41.5650   Anisotropy =   190.6726

     51  C    Isotropic =    45.4092   Anisotropy =   173.0812

     52  C    Isotropic =    47.9760   Anisotropy =   190.2757

     53  C    Isotropic =    50.9532   Anisotropy =   182.1400

     54  H    Isotropic =    24.5652   Anisotropy =     8.6722

     55  C    Isotropic =    50.3450   Anisotropy =   186.0774

     56  H    Isotropic =    24.3969   Anisotropy =     7.0994

     57  C    Isotropic =    48.4578   Anisotropy =   187.6516

     58  H    Isotropic =    24.5594   Anisotropy =     4.9957

     59  H    Isotropic =    24.8567   Anisotropy =     8.2458

     60  H    Isotropic =    24.6515   Anisotropy =     4.7179

 The electronic state is 1-A.
 Alpha  occ. eigenvalues --  -77.05282 -77.04650 -10.20068 -10.19445 -10.19179
 Alpha  occ. eigenvalues --  -10.18736 -10.18507 -10.18465 -10.18436 -10.18433
 Alpha  occ. eigenvalues --  -10.18274 -10.18242 -10.18239 -10.18231 -10.18156
 Alpha  occ. eigenvalues --  -10.18141 -10.18103 -10.18011 -10.17956 -10.17908
 Alpha  occ. eigenvalues --  -10.17780 -10.17709 -10.17691 -10.17640 -10.17599
 Alpha  occ. eigenvalues --  -10.17586 -10.17548 -10.17537 -10.17484 -10.17480
 Alpha  occ. eigenvalues --  -10.17453 -10.17395 -10.17295 -10.17210  -6.53808
 Alpha  occ. eigenvalues --   -6.53213  -4.69974  -4.69917  -4.69458  -4.69365
 Alpha  occ. eigenvalues --   -4.69331  -4.68854  -0.87141  -0.86375  -0.86174
 Alpha  occ. eigenvalues --   -0.85680  -0.85599  -0.80755  -0.76989  -0.76434
 Alpha  occ. eigenvalues --   -0.75677  -0.75361  -0.75125  -0.74951  -0.74839
 Alpha  occ. eigenvalues --   -0.74504  -0.74474  -0.73652  -0.66703  -0.64100
 Alpha  occ. eigenvalues --   -0.62085  -0.61410  -0.61150  -0.61065  -0.60682
 Alpha  occ. eigenvalues --   -0.60524  -0.59986  -0.59955  -0.58459  -0.56292
 Alpha  occ. eigenvalues --   -0.54350  -0.52258  -0.52119  -0.52051  -0.50228
 Alpha  occ. eigenvalues --   -0.49500  -0.47615  -0.46658  -0.45913  -0.45897
 Alpha  occ. eigenvalues --   -0.45736  -0.45613  -0.45278  -0.45210  -0.44865
 Alpha  occ. eigenvalues --   -0.44541  -0.43409  -0.43123  -0.42889  -0.42647
 Alpha  occ. eigenvalues --   -0.42497  -0.42407  -0.42090  -0.41147  -0.40697
 Alpha  occ. eigenvalues --   -0.38742  -0.38268  -0.37844  -0.37458  -0.37367
 Alpha  occ. eigenvalues --   -0.37079  -0.36371  -0.36015  -0.35263  -0.35186
 Alpha  occ. eigenvalues --   -0.35003  -0.34893  -0.34698  -0.33620  -0.32441
 Alpha  occ. eigenvalues --   -0.31129  -0.30929  -0.28350  -0.27150  -0.26842
 Alpha  occ. eigenvalues --   -0.26534  -0.26384  -0.26099  -0.25790  -0.25670
 Alpha  occ. eigenvalues --   -0.25468  -0.24608  -0.21698  -0.18278
 Alpha virt. eigenvalues --   -0.07458  -0.03497  -0.02801  -0.02562  -0.02070
 Alpha virt. eigenvalues --   -0.01966  -0.01730  -0.01321  -0.01126  -0.00813
 Alpha virt. eigenvalues --    0.01345   0.03412   0.04285   0.04547   0.04886

 Mulliken charges:
               1
     1  P    0.163794
     2  P    0.175969
     3  C   -0.182000
     4  C   -0.119698
     5  C   -0.112454
     6  C   -0.092975
     7  C   -0.236599
     8  C    0.079687
     9  H    0.162358
    10  H    0.107438
    11  H    0.108213
    12  H    0.109758
    13  H    0.120689
    14  C   -0.179541
    15  C   -0.122319
    16  C   -0.098805
    17  C   -0.114289
    18  C   -0.175278
    19  C    0.038944
    20  H    0.147199
    21  H    0.104796
    22  H    0.107082
    23  H    0.106413
    24  H    0.114539
    25  C   -0.197905
    26  C   -0.110402
    27  C   -0.109804
    28  C   -0.122423
    29  C   -0.176376
    30  C    0.041218
    31  H    0.124728
    32  H    0.105408
    33  H    0.106210
    34  H    0.106157
    35  H    0.140062
    36  C   -0.143836
    37  C   -0.107655
    38  C   -0.097269
    39  C   -0.095453
    40  C   -0.179415
    41  C    0.033442
    42  H    0.118346
    43  H    0.110806
    44  H    0.111737
    45  H    0.109545
    46  H    0.113074
    47  C   -0.151632
    48  C   -0.259748
    49  H    0.141530
    50  C    0.240144
    51  C   -0.182689
    52  C   -0.145638
    53  C   -0.119970
    54  H    0.113112
    55  C   -0.124641
    56  H    0.164794
    57  C   -0.097341
    58  H    0.109977
    59  H    0.107463
    60  H    0.111521
 Sum of Mulliken charges =  -0.00000

 Dipole moment (field-independent basis, Debye):
    X=             -0.9325    Y=             -0.1142    Z=              2.7907  Tot=              2.9445
 Quadrupole moment (field-independent basis, Debye-Ang):
   XX=           -198.6621   YY=           -193.6625   ZZ=           -214.3947
   XY=              2.4763   XZ=              3.1241   YZ=             -0.0105

 Summary of Natural Population Analysis:

                                       Natural Population
                Natural  -----------------------------------------------
    Atom  No    Charge         Core      Valence    Rydberg      Total
 -----------------------------------------------------------------------
      P    1    0.83641      9.99786     4.13140    0.03433    14.16359
      P    2    0.84852      9.99778     4.12053    0.03318    14.15148
      C    3   -0.21314      1.99907     4.19376    0.02030     6.21314
      C    4   -0.19654      1.99918     4.17852    0.01883     6.19654
      C    5   -0.21056      1.99919     4.19207    0.01930     6.21056
      C    6   -0.19986      1.99918     4.18214    0.01854     6.19986
      C    7   -0.20660      1.99909     4.18773    0.01979     6.20660
      C    8   -0.32661      1.99898     4.29725    0.03039     6.32661
      H    9    0.21786      0.00000     0.77973    0.00240     0.78214
      H   10    0.20891      0.00000     0.78982    0.00127     0.79109
      H   11    0.20788      0.00000     0.79095    0.00117     0.79212
      H   12    0.20910      0.00000     0.78963    0.00127     0.79090
      H   13    0.21298      0.00000     0.78526    0.00176     0.78702
      C   14   -0.20722      1.99907     4.18881    0.01934     6.20722
      C   15   -0.19886      1.99918     4.18094    0.01873     6.19886
      C   16   -0.20734      1.99919     4.18879    0.01937     6.20734
      C   17   -0.19856      1.99918     4.18082    0.01856     6.19856
      C   18   -0.19841      1.99909     4.17975    0.01958     6.19841
      C   19   -0.31744      1.99896     4.28682    0.03165     6.31744
      H   20    0.21324      0.00000     0.78453    0.00223     0.78676
      H   21    0.20639      0.00000     0.79230    0.00132     0.79361
      H   22    0.20747      0.00000     0.79136    0.00118     0.79253
      H   23    0.20837      0.00000     0.79036    0.00127     0.79163
      H   24    0.20816      0.00000     0.79013    0.00171     0.79184
      C   25   -0.21269      1.99909     4.19373    0.01986     6.21269
      C   26   -0.19860      1.99918     4.18066    0.01875     6.19860
      C   27   -0.21691      1.99919     4.19814    0.01959     6.21691
      C   28   -0.19593      1.99919     4.17801    0.01872     6.19593
      C   29   -0.21166      1.99909     4.19287    0.01970     6.21166
      C   30   -0.32330      1.99899     4.29224    0.03207     6.32330
      H   31    0.20728      0.00000     0.79089    0.00182     0.79272
      H   32    0.20725      0.00000     0.79148    0.00127     0.79275
      H   33    0.20714      0.00000     0.79169    0.00117     0.79286
      H   34    0.20723      0.00000     0.79150    0.00128     0.79277
      H   35    0.21493      0.00000     0.78332    0.00175     0.78507
      C   36   -0.18454      1.99910     4.16525    0.02019     6.18454
      C   37   -0.20529      1.99918     4.18673    0.01939     6.20529
      C   38   -0.19531      1.99919     4.17713    0.01899     6.19531
      C   39   -0.20706      1.99919     4.18900    0.01887     6.20706
      C   40   -0.19352      1.99908     4.17449    0.01995     6.19352
      C   41   -0.32985      1.99899     4.29693    0.03393     6.32985
      H   42    0.22085      0.00000     0.77761    0.00153     0.77915
      H   43    0.21064      0.00000     0.78810    0.00126     0.78936
      H   44    0.20874      0.00000     0.79009    0.00118     0.79126
      H   45    0.20823      0.00000     0.79040    0.00137     0.79177
      H   46    0.20875      0.00000     0.78903    0.00221     0.79125
      C   47   -0.61883      1.99900     4.58095    0.03888     6.61883
      C   48   -0.13755      1.99897     4.11580    0.02278     6.13755
      H   49    0.20342      0.00000     0.79300    0.00358     0.79658
      C   50   -0.09999      1.99904     4.07901    0.02194     6.09999
      C   51   -0.16785      1.99914     4.15041    0.01830     6.16785
      C   52   -0.16783      1.99908     4.14939    0.01936     6.16783
      C   53   -0.20815      1.99919     4.18999    0.01897     6.20815
      H   54    0.20772      0.00000     0.79090    0.00138     0.79228
      C   55   -0.20042      1.99919     4.18240    0.01883     6.20042
      H   56    0.21898      0.00000     0.77835    0.00268     0.78102
      C   57   -0.18926      1.99920     4.17108    0.01899     6.18926
      H   58    0.21020      0.00000     0.78863    0.00117     0.78980
      H   59    0.21033      0.00000     0.78838    0.00129     0.78967
      H   60    0.20873      0.00000     0.79013    0.00115     0.79127
 =======================================================================
   * Total *    0.00000     83.96726   163.23109    0.80165   248.00000

 Normal termination of Gaussian 16 at Thu Jan 23 01:37:48 2025.
