 Gaussian 16, Revision B.01,
 Gaussian 16:  ES64L-G16RevB.01 20-Dec-2017

 --------------------------------------------
 # nmr=giao b3lyp/def2TZVP pop=nbo scfcyc=200
 --------------------------------------------

 --------------
 DS-12 SPE NoRh
 --------------
 Symbolic Z-matrix:
 Charge =  0 Multiplicity = 1

                         Standard orientation:
 ---------------------------------------------------------------------
 Center     Atomic      Atomic             Coordinates (Angstroms)
 Number     Number       Type             X           Y           Z
 ---------------------------------------------------------------------
      1         15           0        1.405155   -0.100406   -0.926650
      2         15           0       -1.410553   -0.072016   -0.921330
      3          6           0       -2.378175    1.807086    0.963602
      4          6           0       -2.798079    3.072041    1.355528
      5          6           0       -2.812994    4.120607    0.438567
      6          6           0       -2.403954    3.905306   -0.872162
      7          6           0       -1.977910    2.642836   -1.269199
      8          6           0       -1.967964    1.585200   -0.357140
      9          1           0       -2.385697    1.000782    1.685555
     10          1           0       -3.116956    3.236776    2.376887
     11          1           0       -3.142492    5.103919    0.748753
     12          1           0       -2.412557    4.720001   -1.585539
     13          1           0       -1.645088    2.481554   -2.286606
     14          6           0       -4.102875   -0.798636   -0.432304
     15          6           0       -5.146264   -1.715665   -0.344111
     16          6           0       -4.903158   -3.072120   -0.518854
     17          6           0       -3.613411   -3.518121   -0.795363
     18          6           0       -2.570741   -2.608728   -0.898891
     19          6           0       -2.807283   -1.241978   -0.700890
     20          1           0       -4.305034    0.253411   -0.284569
     21          1           0       -6.148322   -1.364548   -0.130870
     22          1           0       -5.716456   -3.783030   -0.439862
     23          1           0       -3.421533   -4.575156   -0.932830
     24          1           0       -1.573384   -2.963291   -1.126693
     25          6           0        2.548279   -2.646066   -0.847274
     26          6           0        3.583540   -3.559736   -0.715220
     27          6           0        4.873353   -3.117175   -0.430912
     28          6           0        5.121918   -1.758122   -0.278218
     29          6           0        4.086410   -0.836519   -0.396343
     30          6           0        2.790440   -1.277700   -0.673290
     31          1           0        1.550073   -3.000889   -1.076511
     32          1           0        3.386859   -4.617738   -0.833542
     33          1           0        5.679982   -3.830868   -0.328564
     34          1           0        6.123260   -1.410190   -0.057564
     35          1           0        4.291723    0.216299   -0.263716
     36          6           0        2.087449    2.575130   -1.345908
     37          6           0        2.539261    3.838011   -0.974885
     38          6           0        2.875505    4.094487    0.349019
     39          6           0        2.764852    3.088009    1.305618
     40          6           0        2.318888    1.824470    0.941105
     41          6           0        1.979761    1.560319   -0.390972
     42          1           0        1.813066    2.381178   -2.374936
     43          1           0        2.624105    4.619149   -1.719688
     44          1           0        3.225685    5.077934    0.638375
     45          1           0        3.027221    3.285932    2.336623
     46          1           0        2.251916    1.049491    1.694132
     47          6           0       -0.005054   -0.527493    0.217685
     48          6           0       -0.010816   -1.172871    1.408151
     49          6           0       -1.217948   -1.505973    2.104545
     50          6           0        1.187468   -1.519562    2.112451
     51          7           0       -2.172023   -1.753918    2.702800
     52          7           0        2.133679   -1.777025    2.719321
 ---------------------------------------------------------------------

 SCF Done:  E(RB3LYP) =  -1871.62785180     A.U. after   15 cycles

      1  P    Isotropic =   221.9010   Anisotropy =   115.9478

      2  P    Isotropic =   224.0147   Anisotropy =   112.9245

      3  C    Isotropic =    38.4354   Anisotropy =   189.9433

      4  C    Isotropic =    48.4147   Anisotropy =   188.0687

      5  C    Isotropic =    46.7045   Anisotropy =   194.5541

      6  C    Isotropic =    49.6557   Anisotropy =   186.0152

      7  C    Isotropic =    39.9130   Anisotropy =   183.8424

      8  C    Isotropic =    42.0328   Anisotropy =   182.6498

      9  H    Isotropic =    23.5820   Anisotropy =     9.1333

     10  H    Isotropic =    24.3263   Anisotropy =     5.8097

     11  H    Isotropic =    24.3613   Anisotropy =     3.9246

     12  H    Isotropic =    24.4036   Anisotropy =     5.0289

     13  H    Isotropic =    23.9212   Anisotropy =     7.4168

     14  C    Isotropic =    48.4109   Anisotropy =   187.0966

     15  C    Isotropic =    48.6331   Anisotropy =   185.9900

     16  C    Isotropic =    50.2141   Anisotropy =   185.3418

     17  C    Isotropic =    49.3688   Anisotropy =   184.9642

     18  C    Isotropic =    47.7247   Anisotropy =   181.6689

     19  C    Isotropic =    37.3836   Anisotropy =   183.6908

     20  H    Isotropic =    24.9999   Anisotropy =    12.7863

     21  H    Isotropic =    24.4621   Anisotropy =     6.4939

     22  H    Isotropic =    24.4096   Anisotropy =     4.2423

     23  H    Isotropic =    24.1622   Anisotropy =     5.7878

     24  H    Isotropic =    23.9417   Anisotropy =     9.4376

     25  C    Isotropic =    47.7070   Anisotropy =   181.6985

     26  C    Isotropic =    49.3379   Anisotropy =   185.1322

     27  C    Isotropic =    50.0650   Anisotropy =   185.7235

     28  C    Isotropic =    48.5853   Anisotropy =   186.2135

     29  C    Isotropic =    48.2919   Anisotropy =   187.1190

     30  C    Isotropic =    36.9399   Anisotropy =   184.5391

     31  H    Isotropic =    23.9521   Anisotropy =     9.4245

     32  H    Isotropic =    24.1739   Anisotropy =     5.7845

     33  H    Isotropic =    24.4300   Anisotropy =     4.2563

     34  H    Isotropic =    24.4899   Anisotropy =     6.5511

     35  H    Isotropic =    25.1284   Anisotropy =    12.9490

     36  C    Isotropic =    39.7547   Anisotropy =   183.9898

     37  C    Isotropic =    49.4785   Anisotropy =   186.0570

     38  C    Isotropic =    46.7056   Anisotropy =   194.4793

     39  C    Isotropic =    48.5156   Anisotropy =   188.2634

     40  C    Isotropic =    38.6620   Anisotropy =   190.1176

     41  C    Isotropic =    42.5412   Anisotropy =   182.5797

     42  H    Isotropic =    23.8488   Anisotropy =     7.5996

     43  H    Isotropic =    24.3290   Anisotropy =     4.9388

     44  H    Isotropic =    24.3345   Anisotropy =     3.8385

     45  H    Isotropic =    24.3648   Anisotropy =     5.7873

     46  H    Isotropic =    23.7170   Anisotropy =     9.0416

     47  C    Isotropic =   -20.3014   Anisotropy =   254.9477

     48  C    Isotropic =    81.9888   Anisotropy =    93.8916

     49  C    Isotropic =    66.7262   Anisotropy =   329.6587

     50  C    Isotropic =    66.9250   Anisotropy =   329.6594

     51  N    Isotropic =   -57.0449   Anisotropy =   406.2956

     52  N    Isotropic =   -57.7495   Anisotropy =   405.5335

 The electronic state is 1-A.
 Alpha  occ. eigenvalues --  -77.07334 -77.07253 -14.33436 -14.33426 -10.27401
 Alpha  occ. eigenvalues --  -10.24358 -10.23058 -10.23038 -10.20329 -10.20237
 Alpha  occ. eigenvalues --  -10.19644 -10.19553 -10.19478 -10.19441 -10.19432
 Alpha  occ. eigenvalues --  -10.19414 -10.19398 -10.19360 -10.19237 -10.19160
 Alpha  occ. eigenvalues --  -10.19125 -10.19067 -10.18601 -10.18601 -10.18244
 Alpha  occ. eigenvalues --  -10.18240 -10.18229 -10.18218 -10.18095 -10.18088
 Alpha  occ. eigenvalues --  -10.18024 -10.18023  -6.55874  -6.55802  -4.72068
 Alpha  occ. eigenvalues --   -4.71995  -4.71951  -4.71880  -4.71515  -4.71439
 Alpha  occ. eigenvalues --   -0.93754  -0.92366  -0.87806  -0.87627  -0.86593
 Alpha  occ. eigenvalues --   -0.86507  -0.85228  -0.78276  -0.77792  -0.76676
 Alpha  occ. eigenvalues --   -0.76603  -0.75798  -0.75750  -0.75485  -0.75469
 Alpha  occ. eigenvalues --   -0.71718  -0.65837  -0.63675  -0.62470  -0.62406
 Alpha  occ. eigenvalues --   -0.61821  -0.61533  -0.61077  -0.61035  -0.60449
 Alpha  occ. eigenvalues --   -0.58118  -0.57095  -0.53541  -0.53250  -0.53070
 Alpha  occ. eigenvalues --   -0.51092  -0.47991  -0.47315  -0.47239  -0.46995
 Alpha  occ. eigenvalues --   -0.46882  -0.46196  -0.46186  -0.45665  -0.44657
 Alpha  occ. eigenvalues --   -0.44354  -0.44106  -0.43666  -0.43237  -0.43204
 Alpha  occ. eigenvalues --   -0.41948  -0.41704  -0.40234  -0.39091  -0.38986
 Alpha  occ. eigenvalues --   -0.38957  -0.38518  -0.38220  -0.38081  -0.37443
 Alpha  occ. eigenvalues --   -0.36767  -0.36681  -0.36137  -0.36079  -0.35674
 Alpha  occ. eigenvalues --   -0.35650  -0.35209  -0.34844  -0.34016  -0.33636
 Alpha  occ. eigenvalues --   -0.30775  -0.29031  -0.28107  -0.27929  -0.27631
 Alpha  occ. eigenvalues --   -0.27342  -0.26796  -0.26464  -0.26438  -0.24083
 Alpha  occ. eigenvalues --   -0.20552
 Alpha virt. eigenvalues --   -0.11673  -0.05396  -0.04272  -0.03657  -0.03562
 Alpha virt. eigenvalues --   -0.02874  -0.02291  -0.02082  -0.01776  -0.00651
 Alpha virt. eigenvalues --    0.01423   0.02239   0.02872   0.03428   0.04050

 Mulliken charges:
               1
     1  P    0.140337
     2  P    0.138103
     3  C   -0.181103
     4  C   -0.104631
     5  C   -0.090574
     6  C   -0.110996
     7  C   -0.137662
     8  C    0.028596
     9  H    0.162672
    10  H    0.118178
    11  H    0.116862
    12  H    0.113662
    13  H    0.120682
    14  C   -0.138563
    15  C   -0.124515
    16  C   -0.094500
    17  C   -0.111012
    18  C   -0.166001
    19  C    0.026804
    20  H    0.142294
    21  H    0.109229
    22  H    0.110935
    23  H    0.109261
    24  H    0.124227
    25  C   -0.166698
    26  C   -0.110179
    27  C   -0.094344
    28  C   -0.124970
    29  C   -0.136771
    30  C    0.028176
    31  H    0.123459
    32  H    0.109369
    33  H    0.111149
    34  H    0.109032
    35  H    0.141607
    36  C   -0.138221
    37  C   -0.113731
    38  C   -0.088326
    39  C   -0.106458
    40  C   -0.166907
    41  C    0.021958
    42  H    0.122086
    43  H    0.114342
    44  H    0.117149
    45  H    0.118383
    46  H    0.154742
    47  C   -0.109965
    48  C    0.130743
    49  C   -0.213508
    50  C   -0.213758
    51  N    0.038064
    52  N    0.041291
 Sum of Mulliken charges =  -0.00000

 Dipole moment (field-independent basis, Debye):
    X=              0.0836    Y=              3.8505    Z=             -2.3999  Tot=              4.5379
 Quadrupole moment (field-independent basis, Debye-Ang):
   XX=           -191.1396   YY=           -174.2539   ZZ=           -214.7831
   XY=              0.4305   XZ=             -0.3141   YZ=              9.3827

 Summary of Natural Population Analysis:

                                       Natural Population
                Natural  -----------------------------------------------
    Atom  No    Charge         Core      Valence    Rydberg      Total
 -----------------------------------------------------------------------
      P    1    0.85485      9.99778     4.11397    0.03340    14.14515
      P    2    0.85051      9.99779     4.11834    0.03336    14.14949
      C    3   -0.19005      1.99907     4.17023    0.02074     6.19005
      C    4   -0.20127      1.99919     4.18333    0.01875     6.20127
      C    5   -0.18568      1.99919     4.16784    0.01865     6.18568
      C    6   -0.20465      1.99918     4.18625    0.01922     6.20465
      C    7   -0.18121      1.99910     4.16203    0.02009     6.18121
      C    8   -0.33738      1.99897     4.30555    0.03286     6.33738
      H    9    0.22082      0.00000     0.77687    0.00232     0.77918
      H   10    0.21357      0.00000     0.78512    0.00130     0.78643
      H   11    0.21128      0.00000     0.78757    0.00116     0.78872
      H   12    0.21239      0.00000     0.78636    0.00124     0.78761
      H   13    0.21978      0.00000     0.77872    0.00150     0.78022
      C   14   -0.19978      1.99908     4.18122    0.01949     6.19978
      C   15   -0.18975      1.99918     4.17205    0.01851     6.18975
      C   16   -0.19977      1.99919     4.18146    0.01912     6.19977
      C   17   -0.19181      1.99918     4.17417    0.01846     6.19181
      C   18   -0.20077      1.99908     4.18200    0.01969     6.20077
      C   19   -0.33423      1.99898     4.30242    0.03284     6.33423
      H   20    0.21536      0.00000     0.78288    0.00176     0.78464
      H   21    0.20986      0.00000     0.78887    0.00127     0.79014
      H   22    0.20993      0.00000     0.78891    0.00116     0.79007
      H   23    0.21066      0.00000     0.78809    0.00125     0.78934
      H   24    0.20422      0.00000     0.79409    0.00170     0.79578
      C   25   -0.20103      1.99908     4.18218    0.01977     6.20103
      C   26   -0.19167      1.99918     4.17403    0.01846     6.19167
      C   27   -0.19903      1.99919     4.18077    0.01907     6.19903
      C   28   -0.18986      1.99919     4.17219    0.01849     6.18986
      C   29   -0.19920      1.99908     4.18062    0.01951     6.19920
      C   30   -0.33551      1.99898     4.30358    0.03294     6.33551
      H   31    0.20422      0.00000     0.79407    0.00171     0.79578
      H   32    0.21058      0.00000     0.78816    0.00125     0.78942
      H   33    0.20989      0.00000     0.78895    0.00116     0.79011
      H   34    0.20968      0.00000     0.78904    0.00128     0.79032
      H   35    0.21511      0.00000     0.78313    0.00176     0.78489
      C   36   -0.18216      1.99910     4.16302    0.02003     6.18216
      C   37   -0.20473      1.99918     4.18635    0.01920     6.20473
      C   38   -0.18586      1.99919     4.16800    0.01867     6.18586
      C   39   -0.20049      1.99919     4.18255    0.01875     6.20049
      C   40   -0.18864      1.99907     4.16882    0.02075     6.18864
      C   41   -0.33703      1.99897     4.30510    0.03295     6.33703
      H   42    0.21986      0.00000     0.77865    0.00150     0.78014
      H   43    0.21252      0.00000     0.78623    0.00124     0.78748
      H   44    0.21150      0.00000     0.78734    0.00116     0.78850
      H   45    0.21375      0.00000     0.78494    0.00130     0.78625
      H   46    0.21942      0.00000     0.77827    0.00231     0.78058
      C   47   -0.44186      1.99902     4.40132    0.04151     6.44186
      C   48   -0.29131      1.99837     4.26360    0.02934     6.29131
      C   49    0.26754      1.99919     3.70256    0.03071     5.73246
      C   50    0.26650      1.99919     3.70359    0.03072     5.73350
      N   51   -0.26526      1.99961     5.23835    0.02729     7.26526
      N   52   -0.26378      1.99961     5.23686    0.02731     7.26378
 =======================================================================
   * Total *    0.00000     79.96937   151.23064    0.79998   232.00000

 Normal termination of Gaussian 16 at Thu Jan 23 01:28:56 2025.
