 Gaussian 16, Revision B.01,
 Gaussian 16:  ES64L-G16RevB.01 20-Dec-2017

 --------------------------------------------
 # nmr=giao b3lyp/def2TZVP pop=nbo scfcyc=200
 --------------------------------------------

 --------------
 DS-25 SPE NoRh
 --------------
 Symbolic Z-matrix:
 Charge =  0 Multiplicity = 1

                         Standard orientation:
 ---------------------------------------------------------------------
 Center     Atomic      Atomic             Coordinates (Angstroms)
 Number     Number       Type             X           Y           Z
 ---------------------------------------------------------------------
      1         15           0       -2.372210    0.442988    0.318665
      2         15           0       -0.057905    1.872730    0.872521
      3          6           0        0.851854    2.435498   -1.748838
      4          6           0        1.476808    3.215449   -2.716720
      5          6           0        2.130656    4.388206   -2.356784
      6          6           0        2.157029    4.782636   -1.021482
      7          6           0        1.533756    4.006111   -0.052040
      8          6           0        0.881592    2.818524   -0.406856
      9          1           0        0.335399    1.530148   -2.040320
     10          1           0        1.452746    2.904992   -3.753711
     11          1           0        2.617606    4.994465   -3.111136
     12          1           0        2.662575    5.696536   -0.734462
     13          1           0        1.567402    4.326116    0.982501
     14          6           0        2.528046    1.696660    2.112750
     15          6           0        3.372472    1.431543    3.187787
     16          6           0        2.841260    1.072988    4.422011
     17          6           0        1.461830    0.981451    4.581113
     18          6           0        0.616197    1.249642    3.510883
     19          6           0        1.140468    1.603701    2.262601
     20          1           0        2.959673    1.995733    1.164540
     21          1           0        4.444534    1.513043    3.059463
     22          1           0        3.499820    0.872874    5.258381
     23          1           0        1.042693    0.711607    5.542691
     24          1           0       -0.457972    1.190435    3.643148
     25          6           0       -2.313361   -1.641016    2.228844
     26          6           0       -2.890895   -2.585685    3.072185
     27          6           0       -4.262521   -2.812177    3.034698
     28          6           0       -5.057100   -2.089334    2.150556
     29          6           0       -4.483665   -1.145594    1.304699
     30          6           0       -3.102310   -0.920274    1.329149
     31          1           0       -1.246089   -1.467572    2.272312
     32          1           0       -2.266204   -3.143429    3.758789
     33          1           0       -4.710470   -3.548748    3.690956
     34          1           0       -6.125630   -2.260141    2.116113
     35          1           0       -5.117353   -0.596252    0.619960
     36          6           0       -3.203574    1.481337   -2.130973
     37          6           0       -3.727868    1.449452   -3.418430
     38          6           0       -4.212694    0.256561   -3.943811
     39          6           0       -4.169713   -0.904661   -3.178635
     40          6           0       -3.639126   -0.877161   -1.893452
     41          6           0       -3.148282    0.316676   -1.356762
     42          1           0       -2.837503    2.415122   -1.719409
     43          1           0       -3.765803    2.358230   -4.006353
     44          1           0       -4.628913    0.232426   -4.943594
     45          1           0       -4.552231   -1.834012   -3.580934
     46          1           0       -3.622020   -1.789340   -1.310873
     47          6           0       -0.565138    0.258100    0.194430
     48          6           0        0.204234   -0.788790   -0.276682
     49          6           0       -0.419358   -2.022230   -0.868612
     50          1           0        0.207741   -2.896352   -0.705045
     51          1           0       -1.395145   -2.203101   -0.426405
     52          1           0       -0.559384   -1.905883   -1.945053
     53          7           0        1.554968   -0.746992   -0.211648
     54          1           0        1.959949    0.005938    0.325747
     55          6           0        2.494436   -1.696216   -0.724141
     56          6           0        2.541886   -2.007957   -2.081504
     57          6           0        3.421974   -2.267511    0.144128
     58          6           0        3.491202   -2.906159   -2.552574
     59          1           0        1.854269   -1.535431   -2.770822
     60          6           0        4.377622   -3.150116   -0.343023
     61          1           0        3.391777   -2.024035    1.198883
     62          6           0        4.425407   -3.494680   -1.695960
     63          1           0        3.516550   -3.138413   -3.610728
     64          1           0        5.095440   -3.583516    0.343840
     65          6           0        5.438111   -4.482644   -2.212523
     66          1           0        5.039270   -5.501087   -2.178486
     67          1           0        5.707471   -4.272518   -3.248219
     68          1           0        6.349347   -4.468643   -1.614203
 ---------------------------------------------------------------------

 SCF Done:  E(RB3LYP) =  -2052.26756521     A.U. after   15 cycles

      1  P    Isotropic =   236.4981   Anisotropy =    63.7895

      2  P    Isotropic =   254.0319   Anisotropy =    44.7750

      3  C    Isotropic =    49.0175   Anisotropy =   184.9593

      4  C    Isotropic =    50.2051   Anisotropy =   182.1803

      5  C    Isotropic =    53.2903   Anisotropy =   179.5024

      6  C    Isotropic =    49.9128   Anisotropy =   183.0434

      7  C    Isotropic =    48.0949   Anisotropy =   184.8209

      8  C    Isotropic =    37.5288   Anisotropy =   191.6924

      9  H    Isotropic =    24.3380   Anisotropy =     8.9340

     10  H    Isotropic =    24.4825   Anisotropy =     6.8823

     11  H    Isotropic =    24.5659   Anisotropy =     4.1041

     12  H    Isotropic =    24.3382   Anisotropy =     5.1116

     13  H    Isotropic =    24.2478   Anisotropy =    10.9325

     14  C    Isotropic =    48.2732   Anisotropy =   184.1372

     15  C    Isotropic =    49.9140   Anisotropy =   182.8730

     16  C    Isotropic =    50.9256   Anisotropy =   184.0493

     17  C    Isotropic =    48.4921   Anisotropy =   184.7114

     18  C    Isotropic =    41.1032   Anisotropy =   184.9922

     19  C    Isotropic =    32.3684   Anisotropy =   206.8914

     20  H    Isotropic =    23.9509   Anisotropy =    11.3070

     21  H    Isotropic =    24.4079   Anisotropy =     6.1534

     22  H    Isotropic =    24.3389   Anisotropy =     3.9097

     23  H    Isotropic =    24.1209   Anisotropy =     5.7683

     24  H    Isotropic =    23.6401   Anisotropy =     9.1807

     25  C    Isotropic =    50.2917   Anisotropy =   183.7859

     26  C    Isotropic =    50.0976   Anisotropy =   181.8404

     27  C    Isotropic =    54.2708   Anisotropy =   177.9660

     28  C    Isotropic =    49.9654   Anisotropy =   182.2141

     29  C    Isotropic =    49.2043   Anisotropy =   183.2425

     30  C    Isotropic =    33.2274   Anisotropy =   192.8990

     31  H    Isotropic =    24.2476   Anisotropy =     9.5282

     32  H    Isotropic =    24.4217   Anisotropy =     7.0448

     33  H    Isotropic =    24.5742   Anisotropy =     4.1340

     34  H    Isotropic =    24.3859   Anisotropy =     5.3980

     35  H    Isotropic =    24.3070   Anisotropy =    11.5365

     36  C    Isotropic =    40.2562   Anisotropy =   184.7910

     37  C    Isotropic =    49.6441   Anisotropy =   183.4259

     38  C    Isotropic =    50.7312   Anisotropy =   184.6010

     39  C    Isotropic =    50.7620   Anisotropy =   180.7718

     40  C    Isotropic =    45.1872   Anisotropy =   188.2383

     41  C    Isotropic =    32.2118   Anisotropy =   205.7656

     42  H    Isotropic =    23.7877   Anisotropy =     8.9245

     43  H    Isotropic =    24.2435   Anisotropy =     5.8283

     44  H    Isotropic =    24.3628   Anisotropy =     3.9435

     45  H    Isotropic =    24.4126   Anisotropy =     6.1434

     46  H    Isotropic =    23.9051   Anisotropy =    11.1289

     47  C    Isotropic =    93.0908   Anisotropy =    59.0647

     48  C    Isotropic =    13.2717   Anisotropy =   165.7500

     49  C    Isotropic =   161.8909   Anisotropy =    15.0211

     50  H    Isotropic =    30.6427   Anisotropy =     6.6003

     51  H    Isotropic =    29.7207   Anisotropy =     8.2649

     52  H    Isotropic =    30.2560   Anisotropy =     6.5862

     53  N    Isotropic =   115.9040   Anisotropy =    50.8647

     54  H    Isotropic =    25.2626   Anisotropy =    11.2139

     55  C    Isotropic =    39.1519   Anisotropy =   143.8314

     56  C    Isotropic =    51.2631   Anisotropy =   165.5573

     57  C    Isotropic =    53.8579   Anisotropy =   159.1841

     58  C    Isotropic =    48.6688   Anisotropy =   164.9725

     59  H    Isotropic =    24.9433   Anisotropy =     9.9247

     60  C    Isotropic =    48.2016   Anisotropy =   164.8160

     61  H    Isotropic =    25.3039   Anisotropy =     9.3386

     62  C    Isotropic =    39.0561   Anisotropy =   198.5741

     63  H    Isotropic =    24.6643   Anisotropy =     8.1408

     64  H    Isotropic =    24.6914   Anisotropy =     7.8319

     65  C    Isotropic =   160.7208   Anisotropy =    41.8938

     66  H    Isotropic =    29.4156   Anisotropy =     8.7964

     67  H    Isotropic =    29.7394   Anisotropy =     7.6798

     68  H    Isotropic =    29.7454   Anisotropy =     7.8197

 The electronic state is 1-A.
 Alpha  occ. eigenvalues --  -77.04190 -77.03903 -14.35872 -10.24702 -10.22928
 Alpha  occ. eigenvalues --  -10.19734 -10.19050 -10.18973 -10.18782 -10.18772
 Alpha  occ. eigenvalues --  -10.18389 -10.17978 -10.17970 -10.17910 -10.17893
 Alpha  occ. eigenvalues --  -10.17874 -10.17852 -10.17829 -10.17756 -10.17733
 Alpha  occ. eigenvalues --  -10.17733 -10.17402 -10.17317 -10.17289 -10.17250
 Alpha  occ. eigenvalues --  -10.17231 -10.17225 -10.17162 -10.17152 -10.17005
 Alpha  occ. eigenvalues --  -10.16995 -10.16979 -10.16964 -10.16884 -10.16798
 Alpha  occ. eigenvalues --  -10.16721 -10.16522  -6.52695  -6.52403  -4.68840
 Alpha  occ. eigenvalues --   -4.68820  -4.68546  -4.68535  -4.68359  -4.68066
 Alpha  occ. eigenvalues --   -0.97194  -0.87349  -0.86136  -0.85614  -0.85315
 Alpha  occ. eigenvalues --   -0.85057  -0.80497  -0.77238  -0.76602  -0.76238
 Alpha  occ. eigenvalues --   -0.75488  -0.75185  -0.74634  -0.74491  -0.74257
 Alpha  occ. eigenvalues --   -0.74224  -0.73880  -0.71564  -0.69566  -0.63999
 Alpha  occ. eigenvalues --   -0.63461  -0.63065  -0.61152  -0.60710  -0.60432
 Alpha  occ. eigenvalues --   -0.60261  -0.59940  -0.59722  -0.59343  -0.58762
 Alpha  occ. eigenvalues --   -0.56012  -0.55877  -0.54058  -0.52020  -0.51560
 Alpha  occ. eigenvalues --   -0.51352  -0.49731  -0.48905  -0.48211  -0.46725
 Alpha  occ. eigenvalues --   -0.45756  -0.45375  -0.45350  -0.45243  -0.45067
 Alpha  occ. eigenvalues --   -0.44929  -0.44818  -0.44514  -0.44100  -0.43744
 Alpha  occ. eigenvalues --   -0.43625  -0.43388  -0.42715  -0.42301  -0.42006
 Alpha  occ. eigenvalues --   -0.41822  -0.41346  -0.40839  -0.40452  -0.40291
 Alpha  occ. eigenvalues --   -0.40003  -0.38308  -0.38146  -0.37431  -0.37174
 Alpha  occ. eigenvalues --   -0.36995  -0.36760  -0.36739  -0.36310  -0.35573
 Alpha  occ. eigenvalues --   -0.35023  -0.34557  -0.34449  -0.34211  -0.34171
 Alpha  occ. eigenvalues --   -0.32436  -0.31839  -0.31339  -0.27952  -0.27354
 Alpha  occ. eigenvalues --   -0.26653  -0.26467  -0.26310  -0.26152  -0.25752
 Alpha  occ. eigenvalues --   -0.25691  -0.25344  -0.25165  -0.21781  -0.21087
 Alpha  occ. eigenvalues --   -0.17282
 Alpha virt. eigenvalues --   -0.04371  -0.03252  -0.02911  -0.02495  -0.02260
 Alpha virt. eigenvalues --   -0.01651  -0.01499  -0.01404  -0.00845  -0.00512
 Alpha virt. eigenvalues --    0.00028   0.02482   0.03693   0.04414   0.05073

 Mulliken charges:
               1
     1  P    0.169724
     2  P    0.156164
     3  C   -0.154351
     4  C   -0.121583
     5  C   -0.112931
     6  C   -0.099581
     7  C   -0.228226
     8  C    0.046160
     9  H    0.137842
    10  H    0.101667
    11  H    0.104800
    12  H    0.106705
    13  H    0.121163
    14  C   -0.207651
    15  C   -0.121749
    16  C   -0.107492
    17  C   -0.102772
    18  C   -0.221053
    19  C    0.048492
    20  H    0.163712
    21  H    0.109212
    22  H    0.109137
    23  H    0.111216
    24  H    0.132578
    25  C   -0.182746
    26  C   -0.115349
    27  C   -0.115781
    28  C   -0.102169
    29  C   -0.232080
    30  C    0.025011
    31  H    0.152464
    32  H    0.101875
    33  H    0.103679
    34  H    0.105608
    35  H    0.127228
    36  C   -0.198890
    37  C   -0.107600
    38  C   -0.104732
    39  C   -0.116854
    40  C   -0.190057
    41  C    0.071116
    42  H    0.126165
    43  H    0.108655
    44  H    0.107022
    45  H    0.105480
    46  H    0.138954
    47  C   -0.219542
    48  C    0.067406
    49  C   -0.368974
    50  H    0.150229
    51  H    0.154466
    52  H    0.134671
    53  N   -0.187800
    54  H    0.205913
    55  C    0.207102
    56  C   -0.191473
    57  C   -0.228468
    58  C   -0.145331
    59  H    0.120492
    60  C   -0.146163
    61  H    0.135486
    62  C    0.148634
    63  H    0.107679
    64  H    0.106975
    65  C   -0.362766
    66  H    0.125261
    67  H    0.119392
    68  H    0.118631
 Sum of Mulliken charges =  -0.00000

 Dipole moment (field-independent basis, Debye):
    X=              3.9930    Y=             -3.7032    Z=             -1.6796  Tot=              5.6990
 Quadrupole moment (field-independent basis, Debye-Ang):
   XX=           -221.7897   YY=           -227.6438   ZZ=           -217.1950
   XY=             -0.7461   XZ=              5.1291   YZ=             -1.5401

 Summary of Natural Population Analysis:

                                       Natural Population
                Natural  -----------------------------------------------
    Atom  No    Charge         Core      Valence    Rydberg      Total
 -----------------------------------------------------------------------
      P    1    0.86268      9.99783     4.10578    0.03371    14.13732
      P    2    0.85314      9.99786     4.11445    0.03456    14.14686
      C    3   -0.21758      1.99908     4.19812    0.02037     6.21758
      C    4   -0.19863      1.99918     4.18069    0.01876     6.19863
      C    5   -0.21854      1.99919     4.19970    0.01965     6.21854
      C    6   -0.19942      1.99918     4.18157    0.01867     6.19942
      C    7   -0.21187      1.99909     4.19288    0.01990     6.21187
      C    8   -0.32712      1.99899     4.29534    0.03279     6.32712
      H    9    0.21290      0.00000     0.78498    0.00213     0.78710
      H   10    0.20551      0.00000     0.79319    0.00130     0.79449
      H   11    0.20641      0.00000     0.79241    0.00118     0.79359
      H   12    0.20734      0.00000     0.79139    0.00127     0.79266
      H   13    0.21124      0.00000     0.78700    0.00175     0.78876
      C   14   -0.23658      1.99908     4.21730    0.02020     6.23658
      C   15   -0.20266      1.99918     4.18439    0.01909     6.20266
      C   16   -0.20996      1.99919     4.19136    0.01942     6.20996
      C   17   -0.19804      1.99918     4.18025    0.01861     6.19804
      C   18   -0.19875      1.99909     4.17954    0.02012     6.19875
      C   19   -0.32288      1.99898     4.29062    0.03328     6.32288
      H   20    0.21475      0.00000     0.78296    0.00229     0.78525
      H   21    0.20762      0.00000     0.79105    0.00133     0.79238
      H   22    0.20814      0.00000     0.79068    0.00118     0.79186
      H   23    0.20987      0.00000     0.78887    0.00126     0.79013
      H   24    0.21769      0.00000     0.78049    0.00182     0.78231
      C   25   -0.22529      1.99908     4.20608    0.02013     6.22529
      C   26   -0.19820      1.99919     4.18023    0.01878     6.19820
      C   27   -0.22217      1.99919     4.20321    0.01978     6.22217
      C   28   -0.19745      1.99919     4.17960    0.01867     6.19745
      C   29   -0.21319      1.99909     4.19433    0.01977     6.21319
      C   30   -0.32543      1.99898     4.29443    0.03201     6.32543
      H   31    0.21178      0.00000     0.78616    0.00206     0.78822
      H   32    0.20524      0.00000     0.79346    0.00130     0.79476
      H   33    0.20606      0.00000     0.79276    0.00119     0.79394
      H   34    0.20684      0.00000     0.79189    0.00128     0.79316
      H   35    0.21245      0.00000     0.78578    0.00177     0.78755
      C   36   -0.19521      1.99910     4.17617    0.01994     6.19521
      C   37   -0.20451      1.99918     4.18663    0.01870     6.20451
      C   38   -0.20674      1.99919     4.18818    0.01938     6.20674
      C   39   -0.20795      1.99918     4.18970    0.01906     6.20795
      C   40   -0.20599      1.99908     4.18717    0.01974     6.20599
      C   41   -0.32399      1.99897     4.29255    0.03247     6.32399
      H   42    0.21738      0.00000     0.78084    0.00178     0.78262
      H   43    0.20882      0.00000     0.78991    0.00127     0.79118
      H   44    0.20679      0.00000     0.79203    0.00118     0.79321
      H   45    0.20589      0.00000     0.79277    0.00134     0.79411
      H   46    0.20993      0.00000     0.78773    0.00234     0.79007
      C   47   -0.80969      1.99900     4.77389    0.03681     6.80969
      C   48    0.29318      1.99892     3.68699    0.02092     5.70682
      C   49   -0.65349      1.99935     4.64007    0.01407     6.65349
      H   50    0.22521      0.00000     0.77361    0.00119     0.77479
      H   51    0.23993      0.00000     0.75848    0.00159     0.76007
      H   52    0.23189      0.00000     0.76682    0.00129     0.76811
      N   53   -0.55351      1.99936     5.52976    0.02439     7.55351
      H   54    0.41452      0.00000     0.58264    0.00284     0.58548
      C   55    0.11419      1.99887     3.86767    0.01927     5.88581
      C   56   -0.20725      1.99905     4.18983    0.01836     6.20725
      C   57   -0.20972      1.99906     4.19183    0.01883     6.20972
      C   58   -0.19305      1.99911     4.17644    0.01751     6.19305
      H   59    0.21452      0.00000     0.78383    0.00165     0.78548
      C   60   -0.19144      1.99910     4.17496    0.01738     6.19144
      H   61    0.21688      0.00000     0.78140    0.00172     0.78312
      C   62   -0.02026      1.99912     4.00215    0.01899     6.02026
      H   63    0.20758      0.00000     0.79105    0.00137     0.79242
      H   64    0.20766      0.00000     0.79099    0.00135     0.79234
      C   65   -0.60989      1.99941     4.59868    0.01180     6.60989
      H   66    0.21684      0.00000     0.78189    0.00127     0.78316
      H   67    0.21294      0.00000     0.78596    0.00110     0.78706
      H   68    0.21267      0.00000     0.78624    0.00109     0.78733
 =======================================================================
   * Total *    0.00000     89.96487   181.18177    0.85336   272.00000

 Normal termination of Gaussian 16 at Thu Jan 23 02:45:43 2025.
