 Gaussian 16, Revision B.01,
 Gaussian 16:  ES64L-G16RevB.01 20-Dec-2017

 --------------------------------------------
 # nmr=giao b3lyp/def2TZVP pop=nbo scfcyc=200
 --------------------------------------------

 --------------
 DS-29 SPE NoRh
 --------------
 Symbolic Z-matrix:
 Charge =  0 Multiplicity = 1

                         Standard orientation:
 ---------------------------------------------------------------------
 Center     Atomic      Atomic             Coordinates (Angstroms)
 Number     Number       Type             X           Y           Z
 ---------------------------------------------------------------------
      1         15           0       -2.347061   -0.560476    0.928322
      2         15           0       -0.222824    1.194646    1.440950
      3          6           0       -0.953670    2.884968   -0.724930
      4          6           0       -1.210777    4.125839   -1.298384
      5          6           0       -1.001722    5.292400   -0.571609
      6          6           0       -0.535445    5.217433    0.737761
      7          6           0       -0.287711    3.980389    1.318392
      8          6           0       -0.487084    2.802618    0.586970
      9          1           0       -1.110086    1.987905   -1.307215
     10          1           0       -1.568752    4.178332   -2.318865
     11          1           0       -1.197294    6.256463   -1.023936
     12          1           0       -0.367010    6.122118    1.308407
     13          1           0        0.078187    3.941180    2.337538
     14          6           0        2.502026    2.035786    1.478641
     15          6           0        3.829000    1.920777    1.883293
     16          6           0        4.221241    0.874955    2.711904
     17          6           0        3.283611   -0.060252    3.142367
     18          6           0        1.955697    0.056478    2.750759
     19          6           0        1.556407    1.101986    1.908649
     20          1           0        2.212935    2.846675    0.825054
     21          1           0        4.555354    2.650153    1.547939
     22          1           0        5.254977    0.789677    3.024821
     23          1           0        3.584273   -0.873992    3.790570
     24          1           0        1.226391   -0.663883    3.102113
     25          6           0       -1.779662   -3.248140    1.475148
     26          6           0       -2.019044   -4.615319    1.472794
     27          6           0       -3.150281   -5.124661    0.839235
     28          6           0       -4.036489   -4.261527    0.206590
     29          6           0       -3.794927   -2.890174    0.196745
     30          6           0       -2.659099   -2.373797    0.824186
     31          1           0       -0.901473   -2.862614    1.979402
     32          1           0       -1.326240   -5.283900    1.968261
     33          1           0       -3.338747   -6.190798    0.840783
     34          1           0       -4.919385   -4.652161   -0.283530
     35          1           0       -4.494017   -2.231907   -0.301572
     36          6           0       -4.497028    1.098014    0.223724
     37          6           0       -5.388229    1.702741   -0.656929
     38          6           0       -5.298955    1.449326   -2.021199
     39          6           0       -4.313804    0.591504   -2.506822
     40          6           0       -3.422545   -0.014188   -1.630177
     41          6           0       -3.513050    0.232052   -0.255467
     42          1           0       -4.559069    1.309179    1.284207
     43          1           0       -6.148921    2.372693   -0.277782
     44          1           0       -5.991388    1.920670   -2.706963
     45          1           0       -4.240654    0.395103   -3.569449
     46          1           0       -2.661280   -0.677513   -2.020890
     47          6           0       -0.639608   -0.206507    0.292345
     48          6           0        0.094407   -1.067421   -0.431433
     49          1           0       -0.398970   -1.992403   -0.721986
     50          6           0        1.500470   -1.023214   -0.847561
     51          6           0        2.234900   -2.216586   -0.864650
     52          6           0        2.154252    0.112136   -1.328543
     53          6           0        3.548113   -2.277498   -1.298746
     54          6           0        3.465911    0.078247   -1.774901
     55          6           0        4.168500   -1.120054   -1.755839
     56          9           0        4.052389    1.186050   -2.225282
     57          9           0        5.428449   -1.159678   -2.169134
     58          9           0        4.217845   -3.426966   -1.272699
     59          9           0        1.658634   -3.344287   -0.426548
     60          9           0        1.499020    1.277835   -1.407433
 ---------------------------------------------------------------------

 SCF Done:  E(RB3LYP) =  -2414.59553085     A.U. after   14 cycles

      1  P    Isotropic =   222.6717   Anisotropy =   102.1103

      2  P    Isotropic =   224.2866   Anisotropy =    83.9660

      3  C    Isotropic =    44.1948   Anisotropy =   189.0758

      4  C    Isotropic =    49.8450   Anisotropy =   185.0382

      5  C    Isotropic =    51.5145   Anisotropy =   184.1992

      6  C    Isotropic =    50.8169   Anisotropy =   183.0680

      7  C    Isotropic =    46.6924   Anisotropy =   187.1775

      8  C    Isotropic =    40.9843   Anisotropy =   184.8122

      9  H    Isotropic =    24.7608   Anisotropy =     6.6283

     10  H    Isotropic =    24.8423   Anisotropy =     7.3532

     11  H    Isotropic =    24.5886   Anisotropy =     4.2272

     12  H    Isotropic =    24.3759   Anisotropy =     4.6845

     13  H    Isotropic =    24.3061   Anisotropy =    10.3442

     14  C    Isotropic =    46.4979   Anisotropy =   193.6588

     15  C    Isotropic =    49.5596   Anisotropy =   186.3799

     16  C    Isotropic =    50.6647   Anisotropy =   186.6146

     17  C    Isotropic =    50.2589   Anisotropy =   184.9803

     18  C    Isotropic =    44.2867   Anisotropy =   185.3393

     19  C    Isotropic =    36.5006   Anisotropy =   193.3315

     20  H    Isotropic =    24.3999   Anisotropy =    11.0931

     21  H    Isotropic =    24.6067   Anisotropy =     5.9701

     22  H    Isotropic =    24.6473   Anisotropy =     3.4040

     23  H    Isotropic =    24.4870   Anisotropy =     5.0317

     24  H    Isotropic =    24.0031   Anisotropy =     9.2969

     25  C    Isotropic =    46.2625   Anisotropy =   185.5978

     26  C    Isotropic =    49.9348   Anisotropy =   183.8058

     27  C    Isotropic =    52.1093   Anisotropy =   182.2792

     28  C    Isotropic =    49.5041   Anisotropy =   183.2753

     29  C    Isotropic =    48.1563   Anisotropy =   185.4813

     30  C    Isotropic =    33.8572   Anisotropy =   189.6463

     31  H    Isotropic =    23.8255   Anisotropy =     9.8844

     32  H    Isotropic =    24.1637   Anisotropy =     6.1129

     33  H    Isotropic =    24.4857   Anisotropy =     4.2217

     34  H    Isotropic =    24.4902   Anisotropy =     6.5524

     35  H    Isotropic =    25.0485   Anisotropy =    13.4073

     36  C    Isotropic =    39.0447   Anisotropy =   185.3195

     37  C    Isotropic =    49.3429   Anisotropy =   186.0496

     38  C    Isotropic =    47.7381   Anisotropy =   191.3466

     39  C    Isotropic =    48.9926   Anisotropy =   185.9301

     40  C    Isotropic =    40.6218   Anisotropy =   193.4945

     41  C    Isotropic =    39.0220   Anisotropy =   199.9232

     42  H    Isotropic =    23.9189   Anisotropy =     7.5701

     43  H    Isotropic =    24.3279   Anisotropy =     4.6799

     44  H    Isotropic =    24.1809   Anisotropy =     3.6418

     45  H    Isotropic =    24.0920   Anisotropy =     6.1606

     46  H    Isotropic =    23.7614   Anisotropy =    10.1989

     47  C    Isotropic =    18.2051   Anisotropy =   182.3362

     48  C    Isotropic =    47.2988   Anisotropy =   160.5803

     49  H    Isotropic =    24.1824   Anisotropy =     8.3643

     50  C    Isotropic =    65.9454   Anisotropy =   129.1443

     51  C    Isotropic =    28.1416   Anisotropy =    90.3942

     52  C    Isotropic =    29.7017   Anisotropy =    94.1695

     53  C    Isotropic =    37.3404   Anisotropy =    86.9589

     54  C    Isotropic =    37.0501   Anisotropy =    88.6721

     55  C    Isotropic =    32.8656   Anisotropy =    93.8239

     56  F    Isotropic =   342.6814   Anisotropy =   169.0733

     57  F    Isotropic =   333.1937   Anisotropy =   195.6143

     58  F    Isotropic =   345.2558   Anisotropy =   167.3120

     59  F    Isotropic =   317.1814   Anisotropy =   183.1586

     60  F    Isotropic =   306.4989   Anisotropy =   187.9041

 The electronic state is 1-A.
 Alpha  occ. eigenvalues --  -77.06072 -77.05525 -24.73366 -24.72888 -24.72774
 Alpha  occ. eigenvalues --  -24.72631 -24.72267 -10.30349 -10.29792 -10.29762
 Alpha  occ. eigenvalues --  -10.29700 -10.29626 -10.23021 -10.21458 -10.20756
 Alpha  occ. eigenvalues --  -10.19101 -10.19043 -10.19017 -10.18809 -10.18765
 Alpha  occ. eigenvalues --  -10.18726 -10.18665 -10.18549 -10.18469 -10.18458
 Alpha  occ. eigenvalues --  -10.18279 -10.18206 -10.18120 -10.18113 -10.18071
 Alpha  occ. eigenvalues --  -10.18057 -10.17910 -10.17875 -10.17856 -10.17802
 Alpha  occ. eigenvalues --  -10.17796 -10.17757 -10.17718 -10.17693  -6.54598
 Alpha  occ. eigenvalues --   -6.54087  -4.70773  -4.70695  -4.70251  -4.70245
 Alpha  occ. eigenvalues --   -4.70197  -4.69730  -1.28026  -1.27082  -1.26539
 Alpha  occ. eigenvalues --   -1.25663  -1.25366  -0.91515  -0.86961  -0.86630
 Alpha  occ. eigenvalues --   -0.86112  -0.86070  -0.83370  -0.79150  -0.78727
 Alpha  occ. eigenvalues --   -0.76917  -0.75958  -0.75901  -0.75568  -0.75266
 Alpha  occ. eigenvalues --   -0.75152  -0.74958  -0.74910  -0.69820  -0.67707
 Alpha  occ. eigenvalues --   -0.65760  -0.64628  -0.61827  -0.61690  -0.61451
 Alpha  occ. eigenvalues --   -0.61192  -0.60949  -0.60896  -0.60480  -0.60436
 Alpha  occ. eigenvalues --   -0.60118  -0.58589  -0.56813  -0.56189  -0.55722
 Alpha  occ. eigenvalues --   -0.54504  -0.54035  -0.53365  -0.52737  -0.52484
 Alpha  occ. eigenvalues --   -0.51235  -0.50809  -0.50626  -0.50090  -0.48402
 Alpha  occ. eigenvalues --   -0.48137  -0.47578  -0.46637  -0.46473  -0.46258
 Alpha  occ. eigenvalues --   -0.46173  -0.45944  -0.45763  -0.45668  -0.45597
 Alpha  occ. eigenvalues --   -0.45482  -0.44973  -0.43531  -0.43416  -0.43115
 Alpha  occ. eigenvalues --   -0.42919  -0.42775  -0.42737  -0.41746  -0.41613
 Alpha  occ. eigenvalues --   -0.41143  -0.40066  -0.38763  -0.38337  -0.37971
 Alpha  occ. eigenvalues --   -0.37848  -0.37603  -0.37246  -0.36443  -0.35781
 Alpha  occ. eigenvalues --   -0.35464  -0.35239  -0.35113  -0.34183  -0.33013
 Alpha  occ. eigenvalues --   -0.31970  -0.31853  -0.28969  -0.27529  -0.27284
 Alpha  occ. eigenvalues --   -0.27102  -0.26938  -0.26534  -0.26409  -0.26294
 Alpha  occ. eigenvalues --   -0.26032  -0.25858  -0.22493  -0.19109
 Alpha virt. eigenvalues --   -0.08179  -0.04320  -0.03597  -0.02999  -0.02963
 Alpha virt. eigenvalues --   -0.02566  -0.02231  -0.01925  -0.01835  -0.01403
 Alpha virt. eigenvalues --   -0.01203   0.00002   0.02827   0.03689   0.04455

 Mulliken charges:
               1
     1  P    0.152630
     2  P    0.169317
     3  C   -0.143318
     4  C   -0.121750
     5  C   -0.108579
     6  C   -0.096018
     7  C   -0.221750
     8  C    0.099775
     9  H    0.130246
    10  H    0.106018
    11  H    0.108447
    12  H    0.110072
    13  H    0.115860
    14  C   -0.150429
    15  C   -0.134613
    16  C   -0.094641
    17  C   -0.113114
    18  C   -0.186037
    19  C    0.017974
    20  H    0.148939
    21  H    0.111723
    22  H    0.111925
    23  H    0.110935
    24  H    0.117332
    25  C   -0.192285
    26  C   -0.099926
    27  C   -0.108158
    28  C   -0.124112
    29  C   -0.167166
    30  C    0.034134
    31  H    0.120314
    32  H    0.108926
    33  H    0.108893
    34  H    0.107717
    35  H    0.144624
    36  C   -0.133504
    37  C   -0.108055
    38  C   -0.098115
    39  C   -0.087228
    40  C   -0.203583
    41  C    0.036550
    42  H    0.119252
    43  H    0.112930
    44  H    0.114139
    45  H    0.111891
    46  H    0.121339
    47  C   -0.120749
    48  C   -0.195121
    49  H    0.160488
    50  C   -0.042627
    51  C    0.232324
    52  C    0.212490
    53  C    0.135949
    54  C    0.177734
    55  C    0.182291
    56  F   -0.178508
    57  F   -0.169369
    58  F   -0.174682
    59  F   -0.186856
    60  F   -0.192881
 Sum of Mulliken charges =  -0.00000

 Dipole moment (field-independent basis, Debye):
    X=             -1.0801    Y=              0.5168    Z=             -1.3006  Tot=              1.7679
 Quadrupole moment (field-independent basis, Debye-Ang):
   XX=           -230.6620   YY=           -226.3690   ZZ=           -233.3338
   XY=             -0.4990   XZ=             16.6071   YZ=             -2.4764

 Summary of Natural Population Analysis:

                                       Natural Population
                Natural  -----------------------------------------------
    Atom  No    Charge         Core      Valence    Rydberg      Total
 -----------------------------------------------------------------------
      P    1    0.84039      9.99785     4.12793    0.03384    14.15961
      P    2    0.85726      9.99775     4.11147    0.03352    14.14274
      C    3   -0.19696      1.99907     4.17715    0.02074     6.19696
      C    4   -0.19700      1.99918     4.17901    0.01881     6.19700
      C    5   -0.20650      1.99919     4.18817    0.01914     6.20650
      C    6   -0.20143      1.99918     4.18372    0.01852     6.20143
      C    7   -0.20334      1.99909     4.18475    0.01950     6.20334
      C    8   -0.32495      1.99896     4.29478    0.03121     6.32495
      H    9    0.21711      0.00000     0.78047    0.00243     0.78289
      H   10    0.20891      0.00000     0.78982    0.00127     0.79109
      H   11    0.20810      0.00000     0.79073    0.00117     0.79190
      H   12    0.20953      0.00000     0.78921    0.00126     0.79047
      H   13    0.21243      0.00000     0.78585    0.00172     0.78757
      C   14   -0.20376      1.99908     4.18496    0.01973     6.20376
      C   15   -0.20189      1.99918     4.18392    0.01879     6.20189
      C   16   -0.20533      1.99919     4.18680    0.01934     6.20533
      C   17   -0.20212      1.99918     4.18433    0.01860     6.20212
      C   18   -0.19843      1.99909     4.17977    0.01958     6.19843
      C   19   -0.33145      1.99897     4.30041    0.03207     6.33145
      H   20    0.22127      0.00000     0.77661    0.00212     0.77873
      H   21    0.21041      0.00000     0.78829    0.00130     0.78959
      H   22    0.20960      0.00000     0.78924    0.00117     0.79040
      H   23    0.21047      0.00000     0.78827    0.00126     0.78953
      H   24    0.21046      0.00000     0.78784    0.00169     0.78954
      C   25   -0.20541      1.99909     4.18667    0.01965     6.20541
      C   26   -0.19664      1.99918     4.17887    0.01859     6.19664
      C   27   -0.20991      1.99919     4.19137    0.01936     6.20991
      C   28   -0.19713      1.99919     4.17923    0.01871     6.19713
      C   29   -0.20896      1.99909     4.19019    0.01968     6.20896
      C   30   -0.32994      1.99899     4.29907    0.03188     6.32994
      H   31    0.20802      0.00000     0.79022    0.00176     0.79198
      H   32    0.20980      0.00000     0.78894    0.00126     0.79020
      H   33    0.20842      0.00000     0.79041    0.00117     0.79158
      H   34    0.20817      0.00000     0.79056    0.00128     0.79183
      H   35    0.21589      0.00000     0.78233    0.00178     0.78411
      C   36   -0.18272      1.99910     4.16341    0.02021     6.18272
      C   37   -0.20293      1.99918     4.18444    0.01931     6.20293
      C   38   -0.19304      1.99919     4.17496    0.01889     6.19304
      C   39   -0.20678      1.99919     4.18875    0.01884     6.20678
      C   40   -0.19642      1.99908     4.17730    0.02004     6.19642
      C   41   -0.33264      1.99899     4.29968    0.03398     6.33264
      H   42    0.22121      0.00000     0.77726    0.00153     0.77879
      H   43    0.21175      0.00000     0.78700    0.00125     0.78825
      H   44    0.20985      0.00000     0.78898    0.00117     0.79015
      H   45    0.20933      0.00000     0.78930    0.00137     0.79067
      H   46    0.21003      0.00000     0.78781    0.00215     0.78997
      C   47   -0.57538      1.99896     4.53549    0.04093     6.57538
      C   48   -0.19134      1.99893     4.16855    0.02386     6.19134
      H   49    0.22424      0.00000     0.77234    0.00342     0.77576
      C   50   -0.17702      1.99884     4.15770    0.02048     6.17702
      C   51    0.35238      1.99836     3.62246    0.02680     5.64762
      C   52    0.35678      1.99832     3.61390    0.03099     5.64322
      C   53    0.25734      1.99826     3.71505    0.02936     5.74266
      C   54    0.26175      1.99826     3.71157    0.02841     5.73825
      C   55    0.28708      1.99833     3.68543    0.02916     5.71292
      F   56   -0.27402      1.99993     7.26716    0.00693     9.27402
      F   57   -0.26857      1.99993     7.26155    0.00710     9.26857
      F   58   -0.27328      1.99993     7.26651    0.00685     9.27328
      F   59   -0.28647      1.99993     7.27961    0.00693     9.28647
      F   60   -0.28620      1.99994     7.27773    0.00853     9.28620
 =======================================================================
   * Total *    0.00000     93.96234   193.15530    0.88236   288.00000

 Normal termination of Gaussian 16 at Thu Jan 23 03:09:07 2025.
