 Gaussian 16, Revision B.01,
 Gaussian 16:  ES64L-G16RevB.01 20-Dec-2017

 --------------------------------------------
 # nmr=giao b3lyp/def2TZVP pop=nbo scfcyc=200
 --------------------------------------------

 -------------
 DS-3 SPE NoRh
 -------------
 Symbolic Z-matrix:
 Charge =  0 Multiplicity = 1

                         Standard orientation:
 ---------------------------------------------------------------------
 Center     Atomic      Atomic             Coordinates (Angstroms)
 Number     Number       Type             X           Y           Z
 ---------------------------------------------------------------------
      1         15           0        0.612885   -0.179634   -0.631443
      2         15           0       -2.216658   -0.204940   -0.487231
      3          6           0        1.331665    1.486001   -0.303927
      4          6           0        1.559957    1.931235    1.002049
      5          1           0        1.297688    1.308571    1.847847
      6          6           0        2.122490    3.182343    1.227556
      7          1           0        2.294983    3.518060    2.242064
      8          6           0        2.461002    4.000336    0.152822
      9          1           0        2.897801    4.975016    0.331081
     10          6           0        2.232925    3.566350   -1.148312
     11          1           0        2.490734    4.201727   -1.986269
     12          6           0        1.666807    2.315811   -1.376016
     13          1           0        1.476894    1.992523   -2.390741
     14          6           0        1.952764   -1.391080   -0.263194
     15          6           0        1.652633   -2.757021   -0.343051
     16          1           0        0.648669   -3.079921   -0.594446
     17          6           0        2.636385   -3.705223   -0.100651
     18          1           0        2.393625   -4.759508   -0.157329
     19          6           0        3.934075   -3.303129    0.207766
     20          1           0        4.702253   -4.044082    0.391355
     21          6           0        4.241563   -1.949815    0.273255
     22          1           0        5.248756   -1.631851    0.508091
     23          6           0        3.256341   -0.993305    0.039506
     24          1           0        3.509564    0.056584    0.096635
     25          6           0       -3.456248   -1.526330    0.037250
     26          1           0       -3.581972   -1.393970    1.115053
     27          6           0       -2.907947   -2.933594   -0.217690
     28          1           0       -3.622491   -3.675497    0.147573
     29          1           0       -1.962639   -3.107205    0.296485
     30          1           0       -2.754220   -3.115782   -1.282188
     31          6           0       -4.820168   -1.321887   -0.635293
     32          1           0       -4.751261   -1.377418   -1.723825
     33          1           0       -5.280742   -0.369389   -0.372868
     34          1           0       -5.501987   -2.111947   -0.314516
     35          6           0       -3.047350    1.438416   -0.076304
     36          1           0       -3.932747    1.425580   -0.719728
     37          6           0       -3.495880    1.546173    1.383845
     38          1           0       -2.641635    1.525137    2.062936
     39          1           0       -4.187357    0.755676    1.676118
     40          1           0       -4.009638    2.497913    1.535763
     41          6           0       -2.181128    2.631126   -0.489734
     42          1           0       -2.755345    3.552706   -0.377629
     43          1           0       -1.854817    2.560306   -1.528362
     44          1           0       -1.292639    2.719206    0.136755
     45          6           0       -0.738787   -0.414609    0.614773
     46          6           0       -0.656882   -0.879907    1.858364
     47          1           0       -1.537237   -1.078981    2.460126
     48          1           0        0.297058   -1.106184    2.322044
 ---------------------------------------------------------------------

 SCF Done:  E(RB3LYP) =  -1460.79226303     A.U. after   20 cycles

      1  P    Isotropic =   238.9461   Anisotropy =   100.9842

      2  P    Isotropic =   219.1043   Anisotropy =    93.6237

      3  C    Isotropic =    40.8376   Anisotropy =   200.8502

      4  C    Isotropic =    40.4743   Anisotropy =   196.3640

      5  H    Isotropic =    23.8890   Anisotropy =    10.0455

      6  C    Isotropic =    49.2486   Anisotropy =   184.9731

      7  H    Isotropic =    24.1954   Anisotropy =     5.8452

      8  C    Isotropic =    48.5833   Anisotropy =   188.8940

      9  H    Isotropic =    24.2292   Anisotropy =     4.1005

     10  C    Isotropic =    49.6322   Anisotropy =   183.9582

     11  H    Isotropic =    24.1952   Anisotropy =     4.9768

     12  C    Isotropic =    39.9047   Anisotropy =   184.2052

     13  H    Isotropic =    23.8745   Anisotropy =     7.9424

     14  C    Isotropic =    31.3224   Anisotropy =   194.2717

     15  C    Isotropic =    46.4443   Anisotropy =   182.2429

     16  H    Isotropic =    24.1335   Anisotropy =     9.7791

     17  C    Isotropic =    50.4914   Anisotropy =   182.2121

     18  H    Isotropic =    24.4021   Anisotropy =     6.0428

     19  C    Isotropic =    52.6685   Anisotropy =   181.1898

     20  H    Isotropic =    24.6163   Anisotropy =     4.2337

     21  C    Isotropic =    50.1876   Anisotropy =   182.4997

     22  H    Isotropic =    24.6522   Anisotropy =     6.6416

     23  C    Isotropic =    48.0128   Anisotropy =   184.3240

     24  H    Isotropic =    25.2813   Anisotropy =    13.5325

     25  C    Isotropic =   153.1060   Anisotropy =    17.2600

     26  H    Isotropic =    29.6920   Anisotropy =     3.8611

     27  C    Isotropic =   163.4379   Anisotropy =    33.6912

     28  H    Isotropic =    30.8204   Anisotropy =    10.4454

     29  H    Isotropic =    30.3900   Anisotropy =     7.7441

     30  H    Isotropic =    30.8370   Anisotropy =     7.3465

     31  C    Isotropic =   165.0846   Anisotropy =    31.4573

     32  H    Isotropic =    31.0838   Anisotropy =     8.1331

     33  H    Isotropic =    30.9688   Anisotropy =     8.0735

     34  H    Isotropic =    30.8809   Anisotropy =    10.7039

     35  C    Isotropic =   149.4902   Anisotropy =    16.1360

     36  H    Isotropic =    30.2888   Anisotropy =     7.0265

     37  C    Isotropic =   167.2296   Anisotropy =    27.3337

     38  H    Isotropic =    31.2364   Anisotropy =     5.2377

     39  H    Isotropic =    30.6685   Anisotropy =     7.6030

     40  H    Isotropic =    31.1445   Anisotropy =    10.9348

     41  C    Isotropic =   161.4965   Anisotropy =    32.5856

     42  H    Isotropic =    31.2896   Anisotropy =     9.5485

     43  H    Isotropic =    30.9258   Anisotropy =     6.9533

     44  H    Isotropic =    32.2653   Anisotropy =    12.2770

     45  C    Isotropic =    20.6120   Anisotropy =   190.8326

     46  C    Isotropic =    43.3313   Anisotropy =   179.6414

     47  H    Isotropic =    25.4554   Anisotropy =     5.9487

     48  H    Isotropic =    25.3473   Anisotropy =     5.6595

 The electronic state is 1-A.
 Alpha  occ. eigenvalues --  -77.04652 -77.03410 -10.18939 -10.18786 -10.18642
 Alpha  occ. eigenvalues --  -10.18361 -10.18264 -10.18231 -10.18146 -10.18146
 Alpha  occ. eigenvalues --  -10.18138 -10.18047 -10.17943 -10.17537 -10.17454
 Alpha  occ. eigenvalues --  -10.17364 -10.17289 -10.17264 -10.16411 -10.16095
 Alpha  occ. eigenvalues --  -10.16052 -10.15740  -6.53218  -6.52012  -4.69370
 Alpha  occ. eigenvalues --   -4.69337  -4.68855  -4.68190  -4.68088  -4.67643
 Alpha  occ. eigenvalues --   -0.86517  -0.85594  -0.80734  -0.78211  -0.78172
 Alpha  occ. eigenvalues --   -0.75858  -0.75493  -0.74748  -0.74490  -0.68872
 Alpha  occ. eigenvalues --   -0.68480  -0.65833  -0.63665  -0.61269  -0.60758
 Alpha  occ. eigenvalues --   -0.60017  -0.58963  -0.58206  -0.55153  -0.52313
 Alpha  occ. eigenvalues --   -0.51069  -0.49521  -0.46803  -0.46169  -0.46033
 Alpha  occ. eigenvalues --   -0.45794  -0.45386  -0.45153  -0.44664  -0.43561
 Alpha  occ. eigenvalues --   -0.43363  -0.42951  -0.42345  -0.41246  -0.40882
 Alpha  occ. eigenvalues --   -0.39958  -0.39323  -0.38796  -0.38647  -0.37528
 Alpha  occ. eigenvalues --   -0.37335  -0.36189  -0.35401  -0.35117  -0.34888
 Alpha  occ. eigenvalues --   -0.34722  -0.34655  -0.33889  -0.33226  -0.30756
 Alpha  occ. eigenvalues --   -0.29588  -0.28112  -0.27315  -0.26566  -0.26004
 Alpha  occ. eigenvalues --   -0.25630  -0.22182  -0.18510
 Alpha virt. eigenvalues --   -0.05436  -0.03291  -0.02131  -0.01517  -0.00943
 Alpha virt. eigenvalues --    0.02407   0.03953   0.04264   0.04880   0.05244
 Alpha virt. eigenvalues --    0.05998   0.06640   0.06971   0.07122   0.07421

 Mulliken charges:
               1
     1  P    0.142360
     2  P    0.120841
     3  C   -0.019426
     4  C   -0.141482
     5  H    0.112901
     6  C   -0.107427
     7  H    0.109865
     8  C   -0.092187
     9  H    0.112496
    10  C   -0.117037
    11  H    0.111582
    12  C   -0.121434
    13  H    0.116054
    14  C    0.013086
    15  C   -0.174797
    16  H    0.126183
    17  C   -0.116166
    18  H    0.105917
    19  C   -0.101796
    20  H    0.106718
    21  C   -0.132490
    22  H    0.105354
    23  C   -0.140012
    24  H    0.143441
    25  C   -0.060923
    26  H    0.068128
    27  C   -0.362868
    28  H    0.107568
    29  H    0.121964
    30  H    0.113956
    31  C   -0.361827
    32  H    0.115108
    33  H    0.117807
    34  H    0.110114
    35  C   -0.042923
    36  H    0.082229
    37  C   -0.362905
    38  H    0.116615
    39  H    0.114711
    40  H    0.103636
    41  C   -0.371454
    42  H    0.108432
    43  H    0.119137
    44  H    0.130904
    45  C   -0.125440
    46  C   -0.270121
    47  H    0.130040
    48  H    0.135568
 Sum of Mulliken charges =  -0.00000

 Dipole moment (field-independent basis, Debye):
    X=             -0.2426    Y=              0.7454    Z=              2.0794  Tot=              2.2223
 Quadrupole moment (field-independent basis, Debye-Ang):
   XX=           -142.3571   YY=           -139.6452   ZZ=           -150.9409
   XY=              3.7974   XZ=             -0.0054   YZ=             -2.5091

 Summary of Natural Population Analysis:

                                       Natural Population
                Natural  -----------------------------------------------
    Atom  No    Charge         Core      Valence    Rydberg      Total
 -----------------------------------------------------------------------
      P    1    0.82808      9.99782     4.13994    0.03417    14.17192
      P    2    0.77921      9.99825     4.18906    0.03347    14.22079
      C    3   -0.32734      1.99898     4.29447    0.03388     6.32734
      C    4   -0.19788      1.99907     4.17849    0.02031     6.19788
      H    5    0.21056      0.00000     0.78708    0.00236     0.78944
      C    6   -0.20613      1.99919     4.18805    0.01889     6.20613
      H    7    0.20855      0.00000     0.79006    0.00138     0.79145
      C    8   -0.19722      1.99919     4.17898    0.01905     6.19722
      H    9    0.20917      0.00000     0.78966    0.00117     0.79083
      C   10   -0.20554      1.99918     4.18691    0.01945     6.20554
      H   11    0.21060      0.00000     0.78813    0.00126     0.78940
      C   12   -0.18935      1.99910     4.16982    0.02043     6.18935
      H   13    0.21895      0.00000     0.77946    0.00159     0.78105
      C   14   -0.32203      1.99899     4.29021    0.03283     6.32203
      C   15   -0.20351      1.99909     4.18439    0.02004     6.20351
      H   16    0.20807      0.00000     0.78957    0.00237     0.79193
      C   17   -0.19980      1.99918     4.18192    0.01869     6.19980
      H   18    0.20776      0.00000     0.79097    0.00127     0.79224
      C   19   -0.21249      1.99919     4.19383    0.01948     6.21249
      H   20    0.20711      0.00000     0.79171    0.00118     0.79289
      C   21   -0.19870      1.99919     4.18070    0.01882     6.19870
      H   22    0.20670      0.00000     0.79201    0.00130     0.79330
      C   23   -0.21035      1.99908     4.19145    0.01982     6.21035
      H   24    0.21478      0.00000     0.78339    0.00183     0.78522
      C   25   -0.47349      1.99945     4.45096    0.02308     6.47349
      H   26    0.18954      0.00000     0.80655    0.00390     0.81046
      C   27   -0.59484      1.99943     4.58435    0.01107     6.59484
      H   28    0.20214      0.00000     0.79630    0.00156     0.79786
      H   29    0.20764      0.00000     0.79115    0.00121     0.79236
      H   30    0.20483      0.00000     0.79352    0.00165     0.79517
      C   31   -0.59596      1.99943     4.58512    0.01141     6.59596
      H   32    0.20500      0.00000     0.79317    0.00183     0.79500
      H   33    0.20290      0.00000     0.79585    0.00125     0.79710
      H   34    0.20529      0.00000     0.79311    0.00161     0.79471
      C   35   -0.46234      1.99943     4.44031    0.02260     6.46234
      H   36    0.21189      0.00000     0.78633    0.00178     0.78811
      C   37   -0.60358      1.99943     4.59201    0.01214     6.60358
      H   38    0.20254      0.00000     0.79591    0.00155     0.79746
      H   39    0.19949      0.00000     0.79917    0.00135     0.80051
      H   40    0.20027      0.00000     0.79786    0.00187     0.79973
      C   41   -0.59622      1.99942     4.58454    0.01226     6.59622
      H   42    0.20153      0.00000     0.79684    0.00164     0.79847
      H   43    0.21438      0.00000     0.78432    0.00130     0.78562
      H   44    0.20537      0.00000     0.79290    0.00173     0.79463
      C   45   -0.61829      1.99910     4.57702    0.04217     6.61829
      C   46   -0.33525      1.99902     4.31593    0.02030     6.33525
      H   47    0.19195      0.00000     0.80527    0.00278     0.80805
      H   48    0.19604      0.00000     0.80071    0.00324     0.80396
 =======================================================================
   * Total *    0.00000     59.98022   115.48948    0.53030   176.00000

 Normal termination of Gaussian 16 at Thu Jan 23 00:17:28 2025.
