 Gaussian 16, Revision B.01,
 Gaussian 16:  ES64L-G16RevB.01 20-Dec-2017

 --------------------------------------------
 # nmr=giao b3lyp/def2TZVP pop=nbo scfcyc=200
 --------------------------------------------

 --------------
 DS-37 SPE NoRh
 --------------
 Symbolic Z-matrix:
 Charge =  0 Multiplicity = 1

                         Standard orientation:
 ---------------------------------------------------------------------
 Center     Atomic      Atomic             Coordinates (Angstroms)
 Number     Number       Type             X           Y           Z
 ---------------------------------------------------------------------
      1         15           0       -1.212675    0.563640   -1.215282
      2         15           0        1.563059    0.419409   -1.122432
      3          6           0        0.112941   -0.644350   -0.459514
      4          6           0       -2.755072    2.727023   -0.144245
      5          6           0       -3.245625    3.488292    1.089387
      6          6           0       -3.649642   -1.042249   -0.883526
      7          6           0       -4.839838   -1.688695   -1.596635
      8          6           0        3.298642    2.375901    0.014165
      9          6           0        3.704492    3.208124    1.232066
     10          6           0        3.670629   -1.423447   -0.339861
     11          6           0        4.794226   -2.350140   -0.811177
     12          1           0       -3.618833    2.351287   -0.701587
     13          1           0       -2.228771    3.415123   -0.811214
     14          1           0       -3.901400    4.311833    0.804093
     15          1           0       -2.408917    3.908041    1.652735
     16          1           0       -3.806265    2.834234    1.761660
     17          1           0       -4.019647   -0.325075   -0.145922
     18          1           0       -3.106288   -1.807414   -0.325093
     19          1           0       -5.499551   -2.183111   -0.881810
     20          1           0       -5.431232   -0.944657   -2.134215
     21          1           0       -4.510318   -2.439045   -2.318930
     22          1           0        3.032067    3.044172   -0.809305
     23          1           0        4.158923    1.792279   -0.324242
     24          1           0        4.544475    3.861550    0.994184
     25          1           0        2.879963    3.837518    1.574911
     26          1           0        4.004714    2.568987    2.066032
     27          1           0        2.925966   -2.000577    0.213667
     28          1           0        4.075578   -0.695281    0.365935
     29          1           0        5.264101   -2.851223    0.036206
     30          1           0        4.417903   -3.120520   -1.487946
     31          1           0        5.572111   -1.792710   -1.339922
     32          6           0       -2.708449   -0.341849   -1.868240
     33          1           0       -2.333712   -1.047520   -2.613212
     34          1           0       -3.263167    0.416016   -2.431526
     35          6           0       -1.822647    1.567883    0.229236
     36          1           0       -0.939396    1.946440    0.745139
     37          1           0       -2.318012    0.888775    0.926040
     38          6           0        2.118049    1.446561    0.325655
     39          1           0        2.353194    0.768080    1.145978
     40          1           0        1.257799    2.035817    0.643561
     41          6           0        3.004039   -0.693409   -1.513006
     42          1           0        3.734850   -0.059123   -2.025286
     43          1           0        2.652190   -1.406448   -2.262466
     44          6           0        0.061573   -1.997980   -1.172570
     45          1           0        0.888268   -2.631482   -0.847669
     46          1           0       -0.867228   -2.527936   -0.963328
     47          1           0        0.133418   -1.870514   -2.253420
     48          6           0       -0.425065   -1.453853    3.136191
     49          1           0        0.634766   -1.623244    3.342458
     50          1           0       -0.635919   -0.414464    3.402104
     51          6           0       -0.664844   -1.638687    1.648851
     52          1           0       -0.439790   -2.668650    1.353843
     53          1           0       -1.712572   -1.436688    1.400833
     54          8           0        0.191520   -0.723683    0.940350
     55          6           0       -1.281892   -2.399567    3.977909
     56          1           0       -1.067878   -3.445704    3.749366
     57          1           0       -1.089743   -2.249956    5.041452
     58          1           0       -2.348653   -2.232448    3.811690
 ---------------------------------------------------------------------

 SCF Done:  E(RB3LYP) =  -1428.94145527     A.U. after   14 cycles

      1  P    Isotropic =   231.7555   Anisotropy =   187.7572

      2  P    Isotropic =   226.6488   Anisotropy =   185.3039

      3  C    Isotropic =    93.3396   Anisotropy =    56.1468

      4  C    Isotropic =   159.1125   Anisotropy =    17.2212

      5  C    Isotropic =   164.5731   Anisotropy =    31.7188

      6  C    Isotropic =   158.1836   Anisotropy =    17.7152

      7  C    Isotropic =   165.0849   Anisotropy =    32.5677

      8  C    Isotropic =   160.1293   Anisotropy =    15.7541

      9  C    Isotropic =   164.6401   Anisotropy =    31.7481

     10  C    Isotropic =   160.7823   Anisotropy =    15.9049

     11  C    Isotropic =   165.0596   Anisotropy =    32.7285

     12  H    Isotropic =    30.8048   Anisotropy =     6.2233

     13  H    Isotropic =    30.4791   Anisotropy =     7.0309

     14  H    Isotropic =    30.6845   Anisotropy =    11.5047

     15  H    Isotropic =    30.9826   Anisotropy =     7.6331

     16  H    Isotropic =    31.0364   Anisotropy =     7.4748

     17  H    Isotropic =    30.2984   Anisotropy =     5.5473

     18  H    Isotropic =    30.6996   Anisotropy =     7.2443

     19  H    Isotropic =    30.7096   Anisotropy =    10.9044

     20  H    Isotropic =    31.1596   Anisotropy =     8.9770

     21  H    Isotropic =    31.0591   Anisotropy =     8.3200

     22  H    Isotropic =    30.4452   Anisotropy =     7.1791

     23  H    Isotropic =    30.8237   Anisotropy =     6.4470

     24  H    Isotropic =    30.6835   Anisotropy =    11.4804

     25  H    Isotropic =    30.9883   Anisotropy =     7.7457

     26  H    Isotropic =    30.9503   Anisotropy =     7.5098

     27  H    Isotropic =    30.5664   Anisotropy =     7.4310

     28  H    Isotropic =    30.4267   Anisotropy =     5.8966

     29  H    Isotropic =    30.7972   Anisotropy =    10.9911

     30  H    Isotropic =    31.1587   Anisotropy =     8.0522

     31  H    Isotropic =    31.2353   Anisotropy =     8.9905

     32  C    Isotropic =   150.9107   Anisotropy =    44.6480

     33  H    Isotropic =    30.2500   Anisotropy =     4.1599

     34  H    Isotropic =    30.4588   Anisotropy =     6.3726

     35  C    Isotropic =   156.7672   Anisotropy =    39.9530

     36  H    Isotropic =    30.4649   Anisotropy =     8.3876

     37  H    Isotropic =    30.0406   Anisotropy =     3.9710

     38  C    Isotropic =   157.6354   Anisotropy =    39.8528

     39  H    Isotropic =    29.7527   Anisotropy =     3.3735

     40  H    Isotropic =    30.6077   Anisotropy =     8.9990

     41  C    Isotropic =   149.6123   Anisotropy =    48.2344

     42  H    Isotropic =    30.5997   Anisotropy =     6.2476

     43  H    Isotropic =    30.2330   Anisotropy =     3.2840

     44  C    Isotropic =   166.8454   Anisotropy =    18.3934

     45  H    Isotropic =    30.7042   Anisotropy =     8.1505

     46  H    Isotropic =    30.3491   Anisotropy =     6.3072

     47  H    Isotropic =    30.3249   Anisotropy =     6.9197

     48  C    Isotropic =   155.8454   Anisotropy =    20.1519

     49  H    Isotropic =    30.2551   Anisotropy =     5.6848

     50  H    Isotropic =    30.2165   Anisotropy =     4.7203

     51  C    Isotropic =   108.9818   Anisotropy =    69.7863

     52  H    Isotropic =    28.3999   Anisotropy =     6.4166

     53  H    Isotropic =    28.7969   Anisotropy =     3.6519

     54  O    Isotropic =   253.3136   Anisotropy =    40.4774

     55  C    Isotropic =   171.8762   Anisotropy =    23.1454

     56  H    Isotropic =    31.1619   Anisotropy =     8.9229

     57  H    Isotropic =    30.7400   Anisotropy =    10.9190

     58  H    Isotropic =    31.1619   Anisotropy =     8.1445

 The electronic state is 1-A.
 Alpha  occ. eigenvalues --  -77.02587 -77.02462 -19.13324 -10.23598 -10.21951
 Alpha  occ. eigenvalues --  -10.17388 -10.17184 -10.17012 -10.16892 -10.16774
 Alpha  occ. eigenvalues --  -10.16747 -10.16656 -10.16567 -10.16413 -10.16267
 Alpha  occ. eigenvalues --  -10.16130 -10.16047 -10.15875 -10.15643 -10.15638
 Alpha  occ. eigenvalues --   -6.51215  -6.51093  -4.67366  -4.67325  -4.67258
 Alpha  occ. eigenvalues --   -4.67192  -4.66829  -4.66704  -1.03588  -0.80270
 Alpha  occ. eigenvalues --   -0.79364  -0.78947  -0.78197  -0.77793  -0.75732
 Alpha  occ. eigenvalues --   -0.70608  -0.70423  -0.69105  -0.67727  -0.67323
 Alpha  occ. eigenvalues --   -0.62803  -0.60144  -0.59710  -0.59431  -0.58887
 Alpha  occ. eigenvalues --   -0.58187  -0.52972  -0.52394  -0.48907  -0.47780
 Alpha  occ. eigenvalues --   -0.47445  -0.46937  -0.46091  -0.45922  -0.45334
 Alpha  occ. eigenvalues --   -0.43653  -0.42995  -0.42573  -0.42034  -0.41392
 Alpha  occ. eigenvalues --   -0.41156  -0.40960  -0.40358  -0.39739  -0.39627
 Alpha  occ. eigenvalues --   -0.38916  -0.38650  -0.38103  -0.38078  -0.37557
 Alpha  occ. eigenvalues --   -0.37174  -0.36410  -0.35654  -0.35024  -0.34681
 Alpha  occ. eigenvalues --   -0.34519  -0.34362  -0.34005  -0.33786  -0.33482
 Alpha  occ. eigenvalues --   -0.33300  -0.33050  -0.32577  -0.30680  -0.30155
 Alpha  occ. eigenvalues --   -0.29170  -0.24624  -0.21637  -0.16747
 Alpha virt. eigenvalues --    0.01271   0.01373   0.02749   0.03122   0.04852
 Alpha virt. eigenvalues --    0.04948   0.05072   0.05346   0.05626   0.06296
 Alpha virt. eigenvalues --    0.06609   0.06898   0.07178   0.07703   0.07970

 Mulliken charges:
               1
     1  P    0.125588
     2  P    0.138461
     3  C    0.216323
     4  C   -0.145599
     5  C   -0.326420
     6  C   -0.175170
     7  C   -0.321264
     8  C   -0.159125
     9  C   -0.324851
    10  C   -0.173640
    11  C   -0.319083
    12  H    0.088550
    13  H    0.098305
    14  H    0.111072
    15  H    0.102347
    16  H    0.098963
    17  H    0.093672
    18  H    0.083036
    19  H    0.107824
    20  H    0.104118
    21  H    0.102089
    22  H    0.097115
    23  H    0.091052
    24  H    0.110002
    25  H    0.101199
    26  H    0.100369
    27  H    0.091628
    28  H    0.092115
    29  H    0.106831
    30  H    0.099812
    31  H    0.100353
    32  C   -0.282505
    33  H    0.110191
    34  H    0.118638
    35  C   -0.289309
    36  H    0.114810
    37  H    0.092634
    38  C   -0.279402
    39  H    0.119702
    40  H    0.096717
    41  C   -0.289020
    42  H    0.117005
    43  H    0.109379
    44  C   -0.488568
    45  H    0.132581
    46  H    0.134752
    47  H    0.146193
    48  C   -0.146451
    49  H    0.093310
    50  H    0.097913
    51  C   -0.049703
    52  H    0.094805
    53  H    0.078091
    54  O   -0.331172
    55  C   -0.342161
    56  H    0.103417
    57  H    0.117325
    58  H    0.105156
 Sum of Mulliken charges =  -0.00000

 Dipole moment (field-independent basis, Debye):
    X=             -0.8404    Y=             -1.7844    Z=              1.6716  Tot=              2.5855
 Quadrupole moment (field-independent basis, Debye-Ang):
   XX=           -144.1639   YY=           -145.2402   ZZ=           -151.2372
   XY=              0.2699   XZ=              0.1521   YZ=              2.6253

 Summary of Natural Population Analysis:

                                       Natural Population
                Natural  -----------------------------------------------
    Atom  No    Charge         Core      Valence    Rydberg      Total
 -----------------------------------------------------------------------
      P    1    0.73964      9.99854     4.22856    0.03326    14.26036
      P    2    0.78744      9.99854     4.17953    0.03448    14.21256
      C    3   -0.19446      1.99939     4.14948    0.04560     6.19446
      C    4   -0.38444      1.99945     4.37010    0.01490     6.38444
      C    5   -0.58245      1.99947     4.57650    0.00648     6.58245
      C    6   -0.39137      1.99945     4.37786    0.01405     6.39137
      C    7   -0.58538      1.99947     4.57900    0.00691     6.58538
      C    8   -0.38521      1.99945     4.37110    0.01466     6.38521
      C    9   -0.58153      1.99947     4.57558    0.00648     6.58153
      C   10   -0.39161      1.99946     4.37778    0.01438     6.39161
      C   11   -0.58577      1.99947     4.57960    0.00669     6.58577
      H   12    0.18653      0.00000     0.81140    0.00207     0.81347
      H   13    0.20154      0.00000     0.79641    0.00205     0.79846
      H   14    0.20263      0.00000     0.79618    0.00119     0.79737
      H   15    0.19541      0.00000     0.80303    0.00156     0.80459
      H   16    0.19385      0.00000     0.80467    0.00148     0.80615
      H   17    0.18835      0.00000     0.80966    0.00199     0.81165
      H   18    0.18440      0.00000     0.81354    0.00207     0.81560
      H   19    0.20064      0.00000     0.79804    0.00133     0.79936
      H   20    0.19588      0.00000     0.80257    0.00155     0.80412
      H   21    0.19446      0.00000     0.80398    0.00156     0.80554
      H   22    0.19997      0.00000     0.79790    0.00213     0.80003
      H   23    0.18715      0.00000     0.81078    0.00207     0.81285
      H   24    0.20168      0.00000     0.79711    0.00120     0.79832
      H   25    0.19486      0.00000     0.80358    0.00156     0.80514
      H   26    0.19487      0.00000     0.80365    0.00149     0.80513
      H   27    0.18933      0.00000     0.80804    0.00263     0.81067
      H   28    0.18920      0.00000     0.80889    0.00192     0.81080
      H   29    0.19993      0.00000     0.79873    0.00134     0.80007
      H   30    0.19287      0.00000     0.80556    0.00157     0.80713
      H   31    0.19459      0.00000     0.80385    0.00156     0.80541
      C   32   -0.69418      1.99940     4.67249    0.02229     6.69418
      H   33    0.21932      0.00000     0.77914    0.00155     0.78068
      H   34    0.22407      0.00000     0.77438    0.00154     0.77593
      C   35   -0.68906      1.99940     4.66502    0.02464     6.68906
      H   36    0.22211      0.00000     0.77573    0.00217     0.77789
      H   37    0.19511      0.00000     0.80130    0.00359     0.80489
      C   38   -0.68731      1.99939     4.66356    0.02436     6.68731
      H   39    0.20957      0.00000     0.78650    0.00394     0.79043
      H   40    0.21712      0.00000     0.78082    0.00206     0.78288
      C   41   -0.69788      1.99941     4.67603    0.02244     6.69788
      H   42    0.22315      0.00000     0.77538    0.00147     0.77685
      H   43    0.21772      0.00000     0.78071    0.00157     0.78228
      C   44   -0.65613      1.99935     4.64035    0.01642     6.65613
      H   45    0.21118      0.00000     0.78682    0.00200     0.78882
      H   46    0.20829      0.00000     0.79000    0.00171     0.79171
      H   47    0.22471      0.00000     0.77407    0.00122     0.77529
      C   48   -0.39650      1.99944     4.38198    0.01509     6.39650
      H   49    0.20028      0.00000     0.79807    0.00165     0.79972
      H   50    0.20064      0.00000     0.79771    0.00166     0.79936
      C   51   -0.05954      1.99921     4.04022    0.02011     6.05954
      H   52    0.15591      0.00000     0.84113    0.00296     0.84409
      H   53    0.15778      0.00000     0.83907    0.00314     0.84222
      O   54   -0.55239      1.99976     6.52950    0.02313     8.55239
      C   55   -0.58872      1.99946     4.58306    0.00620     6.58872
      H   56    0.19655      0.00000     0.80199    0.00146     0.80345
      H   57    0.20836      0.00000     0.79059    0.00106     0.79164
      H   58    0.19682      0.00000     0.80175    0.00143     0.80318
 =======================================================================
   * Total *   -0.00000     55.98699   121.56997    0.44304   178.00000

 Normal termination of Gaussian 16 at Thu Jan 23 03:05:34 2025.
