 Gaussian 16, Revision B.01,
 Gaussian 16:  ES64L-G16RevB.01 20-Dec-2017

 --------------------------------------------
 # nmr=giao b3lyp/def2TZVP pop=nbo scfcyc=200
 --------------------------------------------

 --------------
 DS-36 SPE NoRh
 --------------
 Symbolic Z-matrix:
 Charge =  0 Multiplicity = 1

                         Standard orientation:
 ---------------------------------------------------------------------
 Center     Atomic      Atomic             Coordinates (Angstroms)
 Number     Number       Type             X           Y           Z
 ---------------------------------------------------------------------
      1         15           0       -1.336861    0.110991   -1.038171
      2         15           0        1.443914    0.053072   -1.056085
      3          6           0        0.062490   -0.805975   -0.042571
      4          6           0       -2.911215    2.450808   -0.543308
      5          6           0       -3.369003    3.524291    0.446636
      6          6           0       -3.696991   -1.386388   -0.134349
      7          6           0       -4.897310   -2.231164   -0.570400
      8          6           0        3.160838    2.287385   -0.617502
      9          6           0        3.592512    3.441378    0.290124
     10          6           0        3.643639   -1.445170    0.112492
     11          6           0        4.776137   -2.445537   -0.130012
     12          1           0       -3.784997    1.910956   -0.917066
     13          1           0       -2.445976    2.929266   -1.408569
     14          1           0       -4.070266    4.214594   -0.024494
     15          1           0       -2.523260    4.109434    0.815662
     16          1           0       -3.869009    3.080825    1.310993
     17          1           0       -4.055952   -0.498472    0.392008
     18          1           0       -3.102152   -1.953088    0.585795
     19          1           0       -5.505437   -2.515088    0.289239
     20          1           0       -5.538218   -1.679823   -1.262621
     21          1           0       -4.577821   -3.148720   -1.070065
     22          1           0        2.838106    2.686419   -1.582287
     23          1           0        4.025180    1.647641   -0.818077
     24          1           0        4.400966    4.014786   -0.167101
     25          1           0        2.763946    4.127241    0.479650
     26          1           0        3.949627    3.075127    1.254640
     27          1           0        2.943138   -1.851234    0.844516
     28          1           0        4.055291   -0.536688    0.558108
     29          1           0        5.297897   -2.673000    0.800577
     30          1           0        4.396298   -3.385730   -0.537649
     31          1           0        5.511129   -2.049646   -0.834543
     32          6           0       -2.827504   -0.974710   -1.327044
     33          1           0       -2.463580   -1.854350   -1.861074
     34          1           0       -3.434639   -0.419657   -2.049457
     35          6           0       -1.916095    1.471129    0.092213
     36          1           0       -1.025382    2.003588    0.428027
     37          1           0       -2.350580    1.009419    0.981612
     38          6           0        2.026991    1.464083    0.006154
     39          1           0        2.318929    1.056077    0.974970
     40          1           0        1.161473    2.104668    0.184982
     41          6           0        2.903939   -1.095242   -1.185865
     42          1           0        3.590973   -0.619889   -1.893832
     43          1           0        2.544802   -1.999915   -1.681767
     44          6           0        0.026210   -2.306319   -0.341106
     45          1           0        0.890584   -2.804530    0.102290
     46          1           0       -0.872032   -2.774610    0.059606
     47          1           0        0.041400   -2.488548   -1.416602
     48          6           0       -0.284195   -0.565289    3.649579
     49          1           0       -0.862437   -1.073830    4.423127
     50          1           0        0.774247   -0.666597    3.893304
     51          1           0       -0.543383    0.493817    3.667934
     52          6           0       -0.584390   -1.176012    2.297635
     53          1           0       -0.335715   -2.241202    2.294328
     54          1           0       -1.647915   -1.075746    2.054191
     55          8           0        0.207830   -0.482256    1.315928
 ---------------------------------------------------------------------

 SCF Done:  E(RB3LYP) =  -1389.61380185     A.U. after   14 cycles

      1  P    Isotropic =   231.7300   Anisotropy =   187.3743

      2  P    Isotropic =   227.1645   Anisotropy =   184.4868

      3  C    Isotropic =    93.1060   Anisotropy =    56.1379

      4  C    Isotropic =   159.3099   Anisotropy =    17.3285

      5  C    Isotropic =   164.6507   Anisotropy =    31.7338

      6  C    Isotropic =   158.1419   Anisotropy =    17.9635

      7  C    Isotropic =   164.9949   Anisotropy =    32.6455

      8  C    Isotropic =   160.1697   Anisotropy =    15.6094

      9  C    Isotropic =   164.6237   Anisotropy =    31.8475

     10  C    Isotropic =   160.8678   Anisotropy =    15.9091

     11  C    Isotropic =   165.0717   Anisotropy =    32.7660

     12  H    Isotropic =    30.8419   Anisotropy =     6.2445

     13  H    Isotropic =    30.4931   Anisotropy =     6.9298

     14  H    Isotropic =    30.6826   Anisotropy =    11.4613

     15  H    Isotropic =    30.9778   Anisotropy =     7.6825

     16  H    Isotropic =    31.0374   Anisotropy =     7.5954

     17  H    Isotropic =    30.3176   Anisotropy =     5.6693

     18  H    Isotropic =    30.7296   Anisotropy =     6.9292

     19  H    Isotropic =    30.7210   Anisotropy =    11.0116

     20  H    Isotropic =    31.1431   Anisotropy =     8.9013

     21  H    Isotropic =    31.0541   Anisotropy =     8.3241

     22  H    Isotropic =    30.4523   Anisotropy =     7.1425

     23  H    Isotropic =    30.8094   Anisotropy =     6.4626

     24  H    Isotropic =    30.6570   Anisotropy =    11.4308

     25  H    Isotropic =    30.9870   Anisotropy =     7.8040

     26  H    Isotropic =    30.9602   Anisotropy =     7.5602

     27  H    Isotropic =    30.5818   Anisotropy =     7.2467

     28  H    Isotropic =    30.4188   Anisotropy =     5.9756

     29  H    Isotropic =    30.7942   Anisotropy =    11.0314

     30  H    Isotropic =    31.1482   Anisotropy =     8.0758

     31  H    Isotropic =    31.2531   Anisotropy =     8.9231

     32  C    Isotropic =   151.0068   Anisotropy =    44.6215

     33  H    Isotropic =    30.2719   Anisotropy =     4.1324

     34  H    Isotropic =    30.4751   Anisotropy =     6.2757

     35  C    Isotropic =   156.8729   Anisotropy =    39.8847

     36  H    Isotropic =    30.4556   Anisotropy =     8.5285

     37  H    Isotropic =    30.0356   Anisotropy =     3.6552

     38  C    Isotropic =   157.4463   Anisotropy =    39.7064

     39  H    Isotropic =    29.7205   Anisotropy =     3.1823

     40  H    Isotropic =    30.5622   Anisotropy =     9.0203

     41  C    Isotropic =   149.5998   Anisotropy =    48.2553

     42  H    Isotropic =    30.5927   Anisotropy =     6.1520

     43  H    Isotropic =    30.2437   Anisotropy =     3.2915

     44  C    Isotropic =   166.7737   Anisotropy =    18.6146

     45  H    Isotropic =    30.6882   Anisotropy =     8.2620

     46  H    Isotropic =    30.3641   Anisotropy =     6.5094

     47  H    Isotropic =    30.3196   Anisotropy =     6.8137

     48  C    Isotropic =   167.1507   Anisotropy =    26.0431

     49  H    Isotropic =    30.9268   Anisotropy =    10.7061

     50  H    Isotropic =    30.6479   Anisotropy =     7.6676

     51  H    Isotropic =    30.6374   Anisotropy =     6.3016

     52  C    Isotropic =   116.0855   Anisotropy =    67.0305

     53  H    Isotropic =    28.2474   Anisotropy =     6.2432

     54  H    Isotropic =    28.6489   Anisotropy =     4.8009

     55  O    Isotropic =   251.4513   Anisotropy =    36.4820

 The electronic state is 1-A.
 Alpha  occ. eigenvalues --  -77.02618 -77.02480 -19.13376 -10.23613 -10.22236
 Alpha  occ. eigenvalues --  -10.17421 -10.17046 -10.16897 -10.16794 -10.16667
 Alpha  occ. eigenvalues --  -10.16647 -10.16591 -10.16411 -10.16275 -10.16165
 Alpha  occ. eigenvalues --  -10.16074 -10.15885 -10.15644 -10.15641  -6.51246
 Alpha  occ. eigenvalues --   -6.51111  -4.67398  -4.67355  -4.67276  -4.67210
 Alpha  occ. eigenvalues --   -4.66860  -4.66721  -1.03660  -0.79955  -0.79274
 Alpha  occ. eigenvalues --   -0.78212  -0.77919  -0.77748  -0.74379  -0.70606
 Alpha  occ. eigenvalues --   -0.70332  -0.67800  -0.67385  -0.64920  -0.61057
 Alpha  occ. eigenvalues --   -0.60037  -0.59482  -0.58949  -0.58173  -0.53114
 Alpha  occ. eigenvalues --   -0.52613  -0.48316  -0.47742  -0.47385  -0.46947
 Alpha  occ. eigenvalues --   -0.46088  -0.45872  -0.44646  -0.43237  -0.42937
 Alpha  occ. eigenvalues --   -0.42432  -0.41415  -0.41069  -0.40551  -0.40401
 Alpha  occ. eigenvalues --   -0.39812  -0.39503  -0.39152  -0.38739  -0.38527
 Alpha  occ. eigenvalues --   -0.38049  -0.37776  -0.37546  -0.37206  -0.35411
 Alpha  occ. eigenvalues --   -0.35179  -0.34586  -0.34515  -0.34029  -0.33851
 Alpha  occ. eigenvalues --   -0.33562  -0.33405  -0.33084  -0.32796  -0.30711
 Alpha  occ. eigenvalues --   -0.30177  -0.29217  -0.24657  -0.21666  -0.16779
 Alpha virt. eigenvalues --    0.01300   0.01401   0.02815   0.03697   0.04924
 Alpha virt. eigenvalues --    0.05094   0.05129   0.05550   0.05780   0.06468
 Alpha virt. eigenvalues --    0.06914   0.07090   0.07712   0.07959   0.08088

 Mulliken charges:
               1
     1  P    0.125717
     2  P    0.139046
     3  C    0.216844
     4  C   -0.145763
     5  C   -0.326888
     6  C   -0.175834
     7  C   -0.321680
     8  C   -0.159763
     9  C   -0.325106
    10  C   -0.173525
    11  C   -0.318977
    12  H    0.088903
    13  H    0.098286
    14  H    0.111044
    15  H    0.102518
    16  H    0.099250
    17  H    0.094458
    18  H    0.082484
    19  H    0.108010
    20  H    0.104035
    21  H    0.102174
    22  H    0.097321
    23  H    0.090884
    24  H    0.109897
    25  H    0.101225
    26  H    0.100696
    27  H    0.091824
    28  H    0.091964
    29  H    0.106874
    30  H    0.099602
    31  H    0.100519
    32  C   -0.281898
    33  H    0.110570
    34  H    0.118757
    35  C   -0.290146
    36  H    0.114610
    37  H    0.093396
    38  C   -0.278246
    39  H    0.118879
    40  H    0.096581
    41  C   -0.289679
    42  H    0.117086
    43  H    0.109615
    44  C   -0.488460
    45  H    0.133112
    46  H    0.134200
    47  H    0.145982
    48  C   -0.325453
    49  H    0.104970
    50  H    0.112120
    51  H    0.115330
    52  C   -0.036076
    53  H    0.098216
    54  H    0.083911
    55  O   -0.333418
 Sum of Mulliken charges =  -0.00000

 Dipole moment (field-independent basis, Debye):
    X=             -0.7560    Y=             -1.3015    Z=              2.0668  Tot=              2.5568
 Quadrupole moment (field-independent basis, Debye-Ang):
   XX=           -137.2199   YY=           -137.2425   ZZ=           -145.0291
   XY=              0.7190   XZ=             -0.9477   YZ=             -0.2303

 Summary of Natural Population Analysis:

                                       Natural Population
                Natural  -----------------------------------------------
    Atom  No    Charge         Core      Valence    Rydberg      Total
 -----------------------------------------------------------------------
      P    1    0.73994      9.99854     4.22819    0.03333    14.26006
      P    2    0.78768      9.99854     4.17926    0.03452    14.21232
      C    3   -0.19437      1.99939     4.14944    0.04554     6.19437
      C    4   -0.38454      1.99945     4.37021    0.01488     6.38454
      C    5   -0.58246      1.99947     4.57652    0.00647     6.58246
      C    6   -0.39125      1.99945     4.37771    0.01409     6.39125
      C    7   -0.58552      1.99947     4.57915    0.00690     6.58552
      C    8   -0.38525      1.99945     4.37113    0.01467     6.38525
      C    9   -0.58149      1.99947     4.57555    0.00647     6.58149
      C   10   -0.39165      1.99946     4.37783    0.01437     6.39165
      C   11   -0.58575      1.99947     4.57959    0.00669     6.58575
      H   12    0.18663      0.00000     0.81130    0.00208     0.81337
      H   13    0.20151      0.00000     0.79644    0.00206     0.79849
      H   14    0.20261      0.00000     0.79620    0.00118     0.79739
      H   15    0.19546      0.00000     0.80298    0.00156     0.80454
      H   16    0.19395      0.00000     0.80458    0.00147     0.80605
      H   17    0.18852      0.00000     0.80949    0.00199     0.81148
      H   18    0.18382      0.00000     0.81397    0.00221     0.81618
      H   19    0.20069      0.00000     0.79798    0.00132     0.79931
      H   20    0.19586      0.00000     0.80259    0.00155     0.80414
      H   21    0.19450      0.00000     0.80394    0.00155     0.80550
      H   22    0.20007      0.00000     0.79781    0.00212     0.79993
      H   23    0.18711      0.00000     0.81083    0.00207     0.81289
      H   24    0.20168      0.00000     0.79712    0.00120     0.79832
      H   25    0.19485      0.00000     0.80359    0.00156     0.80515
      H   26    0.19495      0.00000     0.80356    0.00148     0.80505
      H   27    0.18942      0.00000     0.80791    0.00267     0.81058
      H   28    0.18912      0.00000     0.80896    0.00192     0.81088
      H   29    0.19996      0.00000     0.79870    0.00134     0.80004
      H   30    0.19276      0.00000     0.80567    0.00157     0.80724
      H   31    0.19468      0.00000     0.80376    0.00156     0.80532
      C   32   -0.69411      1.99940     4.67243    0.02228     6.69411
      H   33    0.21932      0.00000     0.77914    0.00154     0.78068
      H   34    0.22405      0.00000     0.77440    0.00155     0.77595
      C   35   -0.68953      1.99940     4.66554    0.02459     6.68953
      H   36    0.22216      0.00000     0.77569    0.00215     0.77784
      H   37    0.19520      0.00000     0.80128    0.00353     0.80480
      C   38   -0.68785      1.99940     4.66409    0.02436     6.68785
      H   39    0.20980      0.00000     0.78637    0.00384     0.79020
      H   40    0.21715      0.00000     0.78079    0.00206     0.78285
      C   41   -0.69799      1.99941     4.67615    0.02243     6.69799
      H   42    0.22322      0.00000     0.77531    0.00147     0.77678
      H   43    0.21764      0.00000     0.78080    0.00157     0.78236
      C   44   -0.65663      1.99935     4.64068    0.01659     6.65663
      H   45    0.21121      0.00000     0.78679    0.00200     0.78879
      H   46    0.20803      0.00000     0.79019    0.00178     0.79197
      H   47    0.22494      0.00000     0.77385    0.00121     0.77506
      C   48   -0.60053      1.99946     4.59006    0.01101     6.60053
      H   49    0.20588      0.00000     0.79325    0.00087     0.79412
      H   50    0.20737      0.00000     0.79137    0.00126     0.79263
      H   51    0.20769      0.00000     0.79102    0.00129     0.79231
      C   52   -0.06278      1.99927     4.04515    0.01835     6.06278
      H   53    0.15735      0.00000     0.84046    0.00219     0.84265
      H   54    0.15960      0.00000     0.83814    0.00227     0.84040
      O   55   -0.55466      1.99976     6.53098    0.02392     8.55466
 =======================================================================
   * Total *   -0.00000     53.98761   115.58589    0.42650   170.00000

 Normal termination of Gaussian 16 at Thu Jan 23 03:00:41 2025.
