 Gaussian 16, Revision B.01,
 Gaussian 16:  ES64L-G16RevB.01 20-Dec-2017

 --------------------------------------------
 # nmr=giao b3lyp/def2TZVP pop=nbo scfcyc=200
 --------------------------------------------

 --------------
 DS-45 SPE NoRh
 --------------
 Symbolic Z-matrix:
 Charge =  0 Multiplicity = 1

                         Standard orientation:
 ---------------------------------------------------------------------
 Center     Atomic      Atomic             Coordinates (Angstroms)
 Number     Number       Type             X           Y           Z
 ---------------------------------------------------------------------
      1         15           0        1.339024   -0.508090   -0.909168
      2         15           0       -1.388154   -0.317359   -1.008911
      3          6           0       -0.091227   -0.590929    0.389838
      4          6           0        5.022280   -0.948019    0.791369
      5          6           0        4.819132   -2.154494   -2.050429
      6          6           0        2.786892    3.553150    0.119880
      7          6           0        4.149829    2.114948   -2.273788
      8          6           0       -4.305996    2.533862   -1.605259
      9          6           0       -2.056357    3.909603    0.037081
     10          1           0        6.066622   -1.263890    0.853883
     11          1           0        5.005303    0.074352    0.408666
     12          1           0        4.616988   -0.936963    1.804176
     13          1           0        5.866600   -2.461473   -1.987511
     14          1           0        4.312890   -2.865293   -2.706349
     15          1           0        4.798876   -1.170800   -2.524216
     16          1           0        3.152440    4.528361   -0.209295
     17          1           0        1.850129    3.710155    0.656667
     18          1           0        3.516311    3.143289    0.820763
     19          1           0        4.522168    3.053467   -2.691893
     20          1           0        4.925603    1.718757   -1.616060
     21          1           0        4.020457    1.418228   -3.105792
     22          1           0       -4.819730    1.595363   -1.823204
     23          1           0       -5.061567    3.258323   -1.291355
     24          1           0       -3.861041    2.901618   -2.532350
     25          1           0       -2.717210    4.666082    0.467778
     26          1           0       -1.231737    3.748106    0.732986
     27          1           0       -1.650912    4.316476   -0.890816
     28          6           0       -3.743994    1.629308    1.316526
     29          1           0       -4.279911    0.696750    1.136929
     30          1           0       -2.972755    1.439455    2.064359
     31          1           0       -4.452526    2.347480    1.738955
     32          6           0        1.194487    3.029836   -2.509364
     33          1           0        1.051165    2.343381   -3.345499
     34          1           0        0.241649    3.128766   -1.988289
     35          1           0        1.465517    4.007308   -2.916824
     36          6           0        3.938395   -3.844015    0.407840
     37          1           0        3.480827   -3.822181    1.399794
     38          1           0        3.339256   -4.500402   -0.226933
     39          1           0        4.929749   -4.291948    0.509709
     40         14           0        2.537299    2.415060   -1.349159
     41         14           0        4.069905   -2.121353   -0.323689
     42         14           0       -3.003479    2.317972   -0.266765
     43          6           0       -5.068963   -1.870248   -2.107813
     44          1           0       -5.580237   -0.952237   -1.810358
     45          1           0       -4.594284   -1.693441   -3.074517
     46          1           0       -5.833091   -2.638845   -2.251752
     47          6           0       -4.671676   -2.619597    0.880231
     48          1           0       -5.188918   -1.708554    1.184154
     49          1           0       -5.411259   -3.423904    0.839677
     50          1           0       -3.948728   -2.873882    1.657416
     51          6           0       -2.930459   -3.986222   -1.295539
     52          1           0       -2.347204   -3.849184   -2.207227
     53          1           0       -2.253450   -4.325459   -0.508480
     54          1           0       -3.647799   -4.789716   -1.478900
     55         14           0       -3.842278   -2.419382   -0.791072
     56          8           0       -2.702241   -1.153849   -0.582172
     57          8           0       -1.841029    1.216152   -0.903109
     58          8           0        2.041733    0.918607   -0.665763
     59          8           0        2.440250   -1.585228   -0.440355
     60         14           0        0.294088    0.474098    3.024677
     61          6           0        2.079716   -0.063131    3.292886
     62          1           0        2.760495    0.519708    2.670873
     63          1           0        2.360181    0.096920    4.336876
     64          1           0        2.233559   -1.121179    3.073222
     65          6           0        0.075905    2.295035    3.431283
     66          1           0       -0.953146    2.622379    3.272781
     67          1           0        0.323774    2.480882    4.479019
     68          1           0        0.730383    2.917155    2.818974
     69          6           0       -0.879078   -0.583489    4.058497
     70          1           0       -0.734462   -0.356030    5.117949
     71          1           0       -1.924295   -0.375744    3.818376
     72          1           0       -0.704639   -1.652736    3.928339
     73          6           0       -0.206085   -2.025086    0.907649
     74          1           0       -1.129896   -2.142507    1.473350
     75          1           0       -0.209493   -2.746207    0.088585
     76          1           0        0.641412   -2.267369    1.548755
     77          8           0       -0.116391    0.387606    1.365720
 ---------------------------------------------------------------------

 SCF Done:  E(RB3LYP) =  -3184.13310076     A.U. after   15 cycles

      1  P    Isotropic =   101.0016   Anisotropy =   210.2287

      2  P    Isotropic =    99.4377   Anisotropy =   220.6990

      3  C    Isotropic =    90.0373   Anisotropy =    37.0318

      4  C    Isotropic =   180.1819   Anisotropy =     8.8924

      5  C    Isotropic =   182.5776   Anisotropy =    10.7626

      6  C    Isotropic =   181.3662   Anisotropy =    10.0373

      7  C    Isotropic =   181.5078   Anisotropy =    11.2588

      8  C    Isotropic =   181.2949   Anisotropy =    12.6805

      9  C    Isotropic =   181.6882   Anisotropy =     9.3993

     10  H    Isotropic =    32.0172   Anisotropy =    10.4157

     11  H    Isotropic =    31.5228   Anisotropy =     7.6329

     12  H    Isotropic =    31.4048   Anisotropy =     7.9940

     13  H    Isotropic =    32.1177   Anisotropy =     9.9018

     14  H    Isotropic =    31.5569   Anisotropy =     8.3229

     15  H    Isotropic =    31.4588   Anisotropy =     8.3621

     16  H    Isotropic =    32.0289   Anisotropy =    10.3519

     17  H    Isotropic =    31.4525   Anisotropy =     8.2974

     18  H    Isotropic =    31.5902   Anisotropy =     6.3227

     19  H    Isotropic =    31.9655   Anisotropy =    10.2279

     20  H    Isotropic =    31.5828   Anisotropy =     7.1395

     21  H    Isotropic =    31.4376   Anisotropy =     6.8966

     22  H    Isotropic =    31.5584   Anisotropy =     8.7428

     23  H    Isotropic =    32.0441   Anisotropy =    10.0294

     24  H    Isotropic =    31.5335   Anisotropy =     7.8033

     25  H    Isotropic =    32.0799   Anisotropy =     9.9204

     26  H    Isotropic =    31.4341   Anisotropy =     8.6783

     27  H    Isotropic =    31.5595   Anisotropy =     7.4905

     28  C    Isotropic =   180.0744   Anisotropy =     8.5117

     29  H    Isotropic =    31.4470   Anisotropy =     8.6586

     30  H    Isotropic =    31.3042   Anisotropy =     9.1483

     31  H    Isotropic =    31.9421   Anisotropy =    10.1196

     32  C    Isotropic =   182.4060   Anisotropy =     9.4710

     33  H    Isotropic =    31.4543   Anisotropy =     6.5967

     34  H    Isotropic =    31.4124   Anisotropy =    11.7352

     35  H    Isotropic =    32.1461   Anisotropy =     9.8600

     36  C    Isotropic =   181.9558   Anisotropy =    11.9970

     37  H    Isotropic =    31.6002   Anisotropy =     6.6520

     38  H    Isotropic =    31.6096   Anisotropy =     7.6243

     39  H    Isotropic =    32.0695   Anisotropy =    10.4341

     40  Si   Isotropic =   293.9100   Anisotropy =    20.1481

     41  Si   Isotropic =   295.8415   Anisotropy =    25.0136

     42  Si   Isotropic =   293.2639   Anisotropy =    21.7257

     43  C    Isotropic =   182.1041   Anisotropy =    11.3019

     44  H    Isotropic =    31.6020   Anisotropy =     7.2432

     45  H    Isotropic =    31.4193   Anisotropy =     7.2037

     46  H    Isotropic =    32.0158   Anisotropy =    10.4517

     47  C    Isotropic =   181.0936   Anisotropy =    10.8184

     48  H    Isotropic =    31.5928   Anisotropy =     6.5714

     49  H    Isotropic =    32.0173   Anisotropy =    10.5947

     50  H    Isotropic =    31.6045   Anisotropy =     6.7942

     51  C    Isotropic =   182.6348   Anisotropy =    10.2043

     52  H    Isotropic =    31.4857   Anisotropy =     7.1487

     53  H    Isotropic =    31.6515   Anisotropy =     6.8015

     54  H    Isotropic =    32.1063   Anisotropy =    10.5124

     55  Si   Isotropic =   296.1160   Anisotropy =    23.2643

     56  O    Isotropic =   210.1451   Anisotropy =   136.0482

     57  O    Isotropic =   206.9205   Anisotropy =   123.2177

     58  O    Isotropic =   198.5330   Anisotropy =   123.4840

     59  O    Isotropic =   208.9519   Anisotropy =   138.1238

     60  Si   Isotropic =   296.9635   Anisotropy =    40.3462

     61  C    Isotropic =   179.4123   Anisotropy =    10.9053

     62  H    Isotropic =    31.5070   Anisotropy =     7.4664

     63  H    Isotropic =    31.9013   Anisotropy =    10.0147

     64  H    Isotropic =    31.7053   Anisotropy =     6.2231

     65  C    Isotropic =   182.1205   Anisotropy =     9.3013

     66  H    Isotropic =    31.5573   Anisotropy =     7.5551

     67  H    Isotropic =    32.1365   Anisotropy =    10.4638

     68  H    Isotropic =    31.4983   Anisotropy =     7.8997

     69  C    Isotropic =   179.8244   Anisotropy =    12.2919

     70  H    Isotropic =    31.9519   Anisotropy =    10.4699

     71  H    Isotropic =    31.5317   Anisotropy =     7.0893

     72  H    Isotropic =    31.6144   Anisotropy =     5.6487

     73  C    Isotropic =   167.0223   Anisotropy =    11.1722

     74  H    Isotropic =    31.0929   Anisotropy =     6.1872

     75  H    Isotropic =    30.6154   Anisotropy =     7.4960

     76  H    Isotropic =    30.9487   Anisotropy =     6.3384

     77  O    Isotropic =   259.5810   Anisotropy =    43.0348

 The electronic state is 1-A.
 Alpha  occ. eigenvalues --  -77.08037 -77.08026 -66.11925 -66.11658 -66.11563
 Alpha  occ. eigenvalues --  -66.11371 -66.11072 -19.10713 -19.10672 -19.10600
 Alpha  occ. eigenvalues --  -19.10552 -19.10465 -10.20889 -10.15966 -10.14874
 Alpha  occ. eigenvalues --  -10.14828 -10.14745 -10.14727 -10.14706 -10.14635
 Alpha  occ. eigenvalues --  -10.14598 -10.14598 -10.14546 -10.14514 -10.14465
 Alpha  occ. eigenvalues --  -10.14454 -10.14449 -10.14446 -10.14046  -6.55596
 Alpha  occ. eigenvalues --   -6.55586  -5.27567  -5.27316  -5.27230  -5.27068
 Alpha  occ. eigenvalues --   -5.26783  -4.71938  -4.71932  -4.71711  -4.71704
 Alpha  occ. eigenvalues --   -4.71159  -4.71139  -3.63602  -3.63348  -3.63276
 Alpha  occ. eigenvalues --   -3.63271  -3.63265  -3.63094  -3.63024  -3.63020
 Alpha  occ. eigenvalues --   -3.62942  -3.62926  -3.62777  -3.62769  -3.62765
 Alpha  occ. eigenvalues --   -3.62517  -3.62505  -1.00685  -0.99977  -0.99023
 Alpha  occ. eigenvalues --   -0.96124  -0.96079  -0.74594  -0.71788  -0.71656
 Alpha  occ. eigenvalues --   -0.71416  -0.71305  -0.71266  -0.68412  -0.68328
 Alpha  occ. eigenvalues --   -0.68315  -0.68248  -0.68130  -0.68090  -0.68036
 Alpha  occ. eigenvalues --   -0.68002  -0.67926  -0.67758  -0.64206  -0.60337
 Alpha  occ. eigenvalues --   -0.57251  -0.52434  -0.52204  -0.50103  -0.45882
 Alpha  occ. eigenvalues --   -0.44978  -0.43716  -0.43696  -0.42950  -0.42752
 Alpha  occ. eigenvalues --   -0.42474  -0.42067  -0.41811  -0.41715  -0.41590
 Alpha  occ. eigenvalues --   -0.41482  -0.41349  -0.41276  -0.41162  -0.41017
 Alpha  occ. eigenvalues --   -0.40831  -0.40664  -0.40461  -0.40376  -0.40145
 Alpha  occ. eigenvalues --   -0.39879  -0.39700  -0.39587  -0.39506  -0.39436
 Alpha  occ. eigenvalues --   -0.39328  -0.39268  -0.39132  -0.39098  -0.38892
 Alpha  occ. eigenvalues --   -0.38757  -0.38648  -0.38606  -0.38425  -0.38306
 Alpha  occ. eigenvalues --   -0.38042  -0.37730  -0.37414  -0.37383  -0.37079
 Alpha  occ. eigenvalues --   -0.35418  -0.35069  -0.34206  -0.33937  -0.33437
 Alpha  occ. eigenvalues --   -0.33242  -0.32138  -0.30795  -0.30382  -0.30261
 Alpha  occ. eigenvalues --   -0.29867  -0.29720  -0.29155  -0.29043  -0.28744
 Alpha  occ. eigenvalues --   -0.28315  -0.28152  -0.25481  -0.20024  -0.15086
 Alpha virt. eigenvalues --    0.00521   0.00890   0.02043   0.03011   0.03372
 Alpha virt. eigenvalues --    0.03683   0.04137   0.04823   0.05303   0.05656
 Alpha virt. eigenvalues --    0.05952   0.06080   0.06375   0.06535   0.06596

 Mulliken charges:
               1
     1  P    0.349647
     2  P    0.364015
     3  C    0.233513
     4  C   -0.455886
     5  C   -0.461877
     6  C   -0.457232
     7  C   -0.472303
     8  C   -0.459079
     9  C   -0.486148
    10  H    0.112302
    11  H    0.116769
    12  H    0.130328
    13  H    0.109868
    14  H    0.122986
    15  H    0.128185
    16  H    0.114324
    17  H    0.122058
    18  H    0.116862
    19  H    0.117092
    20  H    0.118957
    21  H    0.125634
    22  H    0.121499
    23  H    0.108103
    24  H    0.121469
    25  H    0.112899
    26  H    0.135096
    27  H    0.121177
    28  C   -0.441839
    29  H    0.118800
    30  H    0.112300
    31  H    0.109393
    32  C   -0.456399
    33  H    0.128559
    34  H    0.136922
    35  H    0.108194
    36  C   -0.459177
    37  H    0.115675
    38  H    0.121521
    39  H    0.110145
    40  Si   0.544338
    41  Si   0.547482
    42  Si   0.563163
    43  C   -0.464639
    44  H    0.114430
    45  H    0.129853
    46  H    0.113489
    47  C   -0.450070
    48  H    0.118799
    49  H    0.110502
    50  H    0.121383
    51  C   -0.471885
    52  H    0.133390
    53  H    0.122323
    54  H    0.114904
    55  Si   0.553183
    56  O   -0.418304
    57  O   -0.408406
    58  O   -0.413942
    59  O   -0.399475
    60  Si   0.548384
    61  C   -0.482524
    62  H    0.134270
    63  H    0.114181
    64  H    0.112738
    65  C   -0.474794
    66  H    0.124384
    67  H    0.112026
    68  H    0.121165
    69  C   -0.469431
    70  H    0.114724
    71  H    0.129972
    72  H    0.123860
    73  C   -0.451357
    74  H    0.125429
    75  H    0.133506
    76  H    0.118078
    77  O   -0.409482
 Sum of Mulliken charges =  -0.00000

 Dipole moment (field-independent basis, Debye):
    X=              0.0247    Y=              0.0374    Z=              1.7865  Tot=              1.7871
 Quadrupole moment (field-independent basis, Debye-Ang):
   XX=           -218.3460   YY=           -224.6478   ZZ=           -236.2606
   XY=              1.6832   XZ=             -0.3139   YZ=             -1.7181

 Summary of Natural Population Analysis:

                                       Natural Population
                Natural  -----------------------------------------------
    Atom  No    Charge         Core      Valence    Rydberg      Total
 -----------------------------------------------------------------------
      P    1    1.34385      9.99854     3.55579    0.10182    13.65615
      P    2    1.36451      9.99855     3.53555    0.10140    13.63549
      C    3   -0.31245      1.99943     4.26478    0.04824     6.31245
      C    4   -1.12437      1.99942     5.10386    0.02109     7.12437
      C    5   -1.12255      1.99942     5.10265    0.02048     7.12255
      C    6   -1.11950      1.99942     5.09950    0.02058     7.11950
      C    7   -1.12406      1.99942     5.10412    0.02051     7.12406
      C    8   -1.12025      1.99942     5.10058    0.02026     7.12025
      C    9   -1.12047      1.99942     5.10069    0.02037     7.12047
      H   10    0.22615      0.00000     0.77302    0.00083     0.77385
      H   11    0.23400      0.00000     0.76488    0.00112     0.76600
      H   12    0.23602      0.00000     0.76312    0.00086     0.76398
      H   13    0.22593      0.00000     0.77334    0.00073     0.77407
      H   14    0.23588      0.00000     0.76333    0.00079     0.76412
      H   15    0.23548      0.00000     0.76358    0.00094     0.76452
      H   16    0.22620      0.00000     0.77297    0.00083     0.77380
      H   17    0.23489      0.00000     0.76400    0.00112     0.76511
      H   18    0.23277      0.00000     0.76631    0.00092     0.76723
      H   19    0.22870      0.00000     0.77057    0.00073     0.77130
      H   20    0.22912      0.00000     0.76982    0.00106     0.77088
      H   21    0.23524      0.00000     0.76380    0.00097     0.76476
      H   22    0.23282      0.00000     0.76618    0.00100     0.76718
      H   23    0.22549      0.00000     0.77376    0.00075     0.77451
      H   24    0.23591      0.00000     0.76331    0.00078     0.76409
      H   25    0.22631      0.00000     0.77290    0.00079     0.77369
      H   26    0.23861      0.00000     0.76042    0.00097     0.76139
      H   27    0.23278      0.00000     0.76623    0.00099     0.76722
      C   28   -1.12344      1.99941     5.10284    0.02119     7.12344
      H   29    0.23584      0.00000     0.76307    0.00109     0.76416
      H   30    0.23564      0.00000     0.76319    0.00117     0.76436
      H   31    0.22500      0.00000     0.77415    0.00085     0.77500
      C   32   -1.12693      1.99941     5.10644    0.02108     7.12693
      H   33    0.24132      0.00000     0.75777    0.00091     0.75868
      H   34    0.24301      0.00000     0.75600    0.00099     0.75699
      H   35    0.22499      0.00000     0.77426    0.00075     0.77501
      C   36   -1.11835      1.99942     5.09883    0.02010     7.11835
      H   37    0.23214      0.00000     0.76683    0.00103     0.76786
      H   38    0.23605      0.00000     0.76317    0.00079     0.76395
      H   39    0.22635      0.00000     0.77286    0.00079     0.77365
     Si   40    1.92002      9.99797     2.05016    0.03185    12.07998
     Si   41    1.91400      9.99794     2.05679    0.03126    12.08600
     Si   42    1.90531      9.99797     2.06048    0.03624    12.09469
      C   43   -1.12288      1.99942     5.10312    0.02034     7.12288
      H   44    0.23052      0.00000     0.76843    0.00104     0.76948
      H   45    0.23898      0.00000     0.76021    0.00081     0.76102
      H   46    0.22761      0.00000     0.77166    0.00073     0.77239
      C   47   -1.12051      1.99942     5.10059    0.02050     7.12051
      H   48    0.23201      0.00000     0.76696    0.00103     0.76799
      H   49    0.22684      0.00000     0.77230    0.00086     0.77316
      H   50    0.23437      0.00000     0.76470    0.00094     0.76563
      C   51   -1.12622      1.99942     5.10614    0.02066     7.12622
      H   52    0.24053      0.00000     0.75858    0.00089     0.75947
      H   53    0.23261      0.00000     0.76643    0.00096     0.76739
      H   54    0.22801      0.00000     0.77124    0.00075     0.77199
     Si   55    1.92208      9.99795     2.04830    0.03168    12.07792
      O   56   -1.18510      1.99974     7.17431    0.01105     9.18510
      O   57   -1.15064      1.99976     7.13712    0.01376     9.15064
      O   58   -1.16828      1.99974     7.15584    0.01269     9.16828
      O   59   -1.17416      1.99975     7.16254    0.01187     9.17416
     Si   60    1.90038      9.99785     2.06226    0.03951    12.09962
      C   61   -1.13253      1.99942     5.11044    0.02267     7.13253
      H   62    0.23863      0.00000     0.76019    0.00118     0.76137
      H   63    0.22726      0.00000     0.77187    0.00087     0.77274
      H   64    0.22891      0.00000     0.76975    0.00134     0.77109
      C   65   -1.11771      1.99942     5.09726    0.02103     7.11771
      H   66    0.23161      0.00000     0.76738    0.00102     0.76839
      H   67    0.22662      0.00000     0.77257    0.00081     0.77338
      H   68    0.23415      0.00000     0.76471    0.00114     0.76585
      C   69   -1.12978      1.99942     5.10810    0.02226     7.12978
      H   70    0.22806      0.00000     0.77113    0.00080     0.77194
      H   71    0.23371      0.00000     0.76529    0.00100     0.76629
      H   72    0.23131      0.00000     0.76780    0.00089     0.76869
      C   73   -0.64154      1.99937     4.62779    0.01438     6.64154
      H   74    0.20650      0.00000     0.79097    0.00253     0.79350
      H   75    0.22316      0.00000     0.77567    0.00117     0.77684
      H   76    0.20792      0.00000     0.79012    0.00196     0.79208
      O   77   -0.87039      1.99972     6.85239    0.01828     8.87039
 =======================================================================
   * Total *    0.00000    113.97555   175.16005    0.86440   290.00000

 Normal termination of Gaussian 16 at Thu Jan 23 04:13:07 2025.
