 Gaussian 16, Revision B.01,
 Gaussian 16:  ES64L-G16RevB.01 20-Dec-2017

 --------------------------------------------
 # nmr=giao b3lyp/def2TZVP pop=nbo scfcyc=200
 --------------------------------------------

 --------------
 DS-42 SPE NoRh
 --------------
 Symbolic Z-matrix:
 Charge =  0 Multiplicity = 1

                         Standard orientation:
 ---------------------------------------------------------------------
 Center     Atomic      Atomic             Coordinates (Angstroms)
 Number     Number       Type             X           Y           Z
 ---------------------------------------------------------------------
      1         15           0       -0.670814   -0.036584   -0.569133
      2         15           0        2.196528   -0.075072   -0.814831
      3          6           0       -1.563712   -2.684556   -0.032509
      4          1           0       -2.553052   -3.134284    0.023097
      5          6           0       -3.289865   -0.883157   -0.301481
      6          1           0       -3.349541    0.198826   -0.231662
      7          6           0       -1.515322    2.474429   -1.254891
      8          1           0       -1.137326    1.974608   -2.144558
      9          6           0       -1.525255    2.058717    1.230113
     10          1           0       -2.142286    2.938586    1.042771
     11          6           0        3.479899   -1.457385   -0.704647
     12          1           0        4.188261   -1.175684   -1.491459
     13          6           0        2.875017   -2.814474   -1.073638
     14          1           0        3.673515   -3.554138   -1.164450
     15          1           0        2.334080   -2.784801   -2.018763
     16          1           0        2.189762   -3.166575   -0.302570
     17          6           0        4.247706   -1.550306    0.619782
     18          1           0        3.586171   -1.757252    1.463136
     19          1           0        4.818557   -0.652109    0.842991
     20          1           0        4.957229   -2.377960    0.560258
     21          6           0        3.085328    1.551477   -0.425044
     22          1           0        2.345105    2.279922   -0.765541
     23          6           0        4.337939    1.704651   -1.299239
     24          1           0        4.711230    2.728483   -1.221781
     25          1           0        4.144354    1.508225   -2.354652
     26          1           0        5.141791    1.042489   -0.973802
     27          6           0        3.388647    1.843993    1.048665
     28          1           0        4.168954    1.200732    1.450975
     29          1           0        2.509010    1.752134    1.680911
     30          1           0        3.742577    2.873807    1.137715
     31          7           0       -1.850002   -1.214662   -0.068274
     32          7           0       -1.295831    1.497700   -0.141747
     33          6           0       -4.198261   -1.457177    0.795616
     34          1           0       -5.179085   -0.981139    0.735282
     35          1           0       -4.363314   -2.530306    0.682666
     36          1           0       -3.794547   -1.278504    1.790253
     37          6           0       -3.813112   -1.285389   -1.686828
     38          1           0       -3.232391   -0.825324   -2.488581
     39          1           0       -3.795277   -2.367078   -1.830479
     40          1           0       -4.849043   -0.961926   -1.800323
     41          6           0       -0.836909   -3.140745    1.237151
     42          1           0        0.229923   -2.925117    1.206969
     43          1           0       -1.265104   -2.677355    2.124837
     44          1           0       -0.941064   -4.222029    1.341756
     45          6           0       -0.908022   -3.261312   -1.290572
     46          1           0       -0.739429   -4.331953   -1.156807
     47          1           0       -1.544917   -3.133811   -2.164012
     48          1           0        0.055589   -2.797410   -1.503525
     49          6           0       -2.330798    1.174930    2.179806
     50          1           0       -3.335721    0.987749    1.806723
     51          1           0       -1.848890    0.214838    2.365403
     52          1           0       -2.425608    1.687586    3.138574
     53          6           0       -0.253993    2.559766    1.931629
     54          1           0        0.297967    1.751021    2.408809
     55          1           0        0.411457    3.085832    1.251654
     56          1           0       -0.536795    3.255848    2.724678
     57          6           0       -3.002041    2.778183   -1.477934
     58          1           0       -3.120725    3.460663   -2.321930
     59          1           0       -3.569397    1.873063   -1.698721
     60          1           0       -3.458104    3.259890   -0.609584
     61          6           0       -0.706235    3.768703   -1.118191
     62          1           0       -1.019916    4.374527   -0.266474
     63          1           0        0.360140    3.563916   -1.023198
     64          1           0       -0.850368    4.376401   -2.013723
     65          6           0        0.865188   -0.353043    0.404288
     66          7           0        0.987226   -0.560248    1.681777
     67          7           0        1.056226   -0.757562    2.790263
 ---------------------------------------------------------------------

 SCF Done:  E(RB3LYP) =  -1651.37706725     A.U. after   19 cycles

      1  P    Isotropic =   119.4980   Anisotropy =   136.0960

      2  P    Isotropic =   217.0678   Anisotropy =   125.5970

      3  C    Isotropic =   132.0181   Anisotropy =    39.5180

      4  H    Isotropic =    28.4559   Anisotropy =     4.4605

      5  C    Isotropic =   130.4105   Anisotropy =    43.9157

      6  H    Isotropic =    28.1017   Anisotropy =     7.1824

      7  C    Isotropic =   120.1942   Anisotropy =    56.1947

      8  H    Isotropic =    28.1071   Anisotropy =     2.3765

      9  C    Isotropic =   130.5165   Anisotropy =    39.4340

     10  H    Isotropic =    28.5594   Anisotropy =     3.8607

     11  C    Isotropic =   146.3000   Anisotropy =    18.5042

     12  H    Isotropic =    29.9109   Anisotropy =     6.2444

     13  C    Isotropic =   158.2440   Anisotropy =    32.0786

     14  H    Isotropic =    30.6889   Anisotropy =     9.8226

     15  H    Isotropic =    30.4624   Anisotropy =     7.3412

     16  H    Isotropic =    30.6534   Anisotropy =     6.9419

     17  C    Isotropic =   160.8014   Anisotropy =    28.5122

     18  H    Isotropic =    30.5908   Anisotropy =     4.4152

     19  H    Isotropic =    30.2606   Anisotropy =     6.2030

     20  H    Isotropic =    30.8948   Anisotropy =    10.9771

     21  C    Isotropic =   143.0070   Anisotropy =    20.9787

     22  H    Isotropic =    29.6044   Anisotropy =     7.5418

     23  C    Isotropic =   163.8711   Anisotropy =    31.4929

     24  H    Isotropic =    30.7681   Anisotropy =    10.4962

     25  H    Isotropic =    30.5802   Anisotropy =     8.8158

     26  H    Isotropic =    31.0012   Anisotropy =     6.9614

     27  C    Isotropic =   161.8259   Anisotropy =    26.6212

     28  H    Isotropic =    30.5148   Anisotropy =     5.7742

     29  H    Isotropic =    30.1464   Anisotropy =     8.2834

     30  H    Isotropic =    30.8234   Anisotropy =     9.8277

     31  N    Isotropic =   171.1854   Anisotropy =    57.6148

     32  N    Isotropic =   164.3209   Anisotropy =    29.0435

     33  C    Isotropic =   159.8434   Anisotropy =    37.9736

     34  H    Isotropic =    31.0176   Anisotropy =    10.1512

     35  H    Isotropic =    30.7106   Anisotropy =     6.5192

     36  H    Isotropic =    30.9105   Anisotropy =     5.6717

     37  C    Isotropic =   162.9065   Anisotropy =    30.9268

     38  H    Isotropic =    30.6498   Anisotropy =     6.6161

     39  H    Isotropic =    30.9512   Anisotropy =     6.0750

     40  H    Isotropic =    31.2498   Anisotropy =    10.3802

     41  C    Isotropic =   157.1094   Anisotropy =    35.6301

     42  H    Isotropic =    30.3175   Anisotropy =     5.5807

     43  H    Isotropic =    30.9283   Anisotropy =     5.4759

     44  H    Isotropic =    30.9303   Anisotropy =    10.2272

     45  C    Isotropic =   160.0571   Anisotropy =    31.2210

     46  H    Isotropic =    31.0734   Anisotropy =     9.5685

     47  H    Isotropic =    30.7705   Anisotropy =     6.8976

     48  H    Isotropic =    30.2186   Anisotropy =     8.4318

     49  C    Isotropic =   160.4542   Anisotropy =    28.9529

     50  H    Isotropic =    30.6714   Anisotropy =     7.1671

     51  H    Isotropic =    30.3831   Anisotropy =     4.4626

     52  H    Isotropic =    31.0610   Anisotropy =     9.8622

     53  C    Isotropic =   153.9100   Anisotropy =    40.3525

     54  H    Isotropic =    30.4366   Anisotropy =     5.3007

     55  H    Isotropic =    30.6554   Anisotropy =     5.2198

     56  H    Isotropic =    30.7537   Anisotropy =    10.1331

     57  C    Isotropic =   161.3588   Anisotropy =    36.2376

     58  H    Isotropic =    31.0850   Anisotropy =    10.7318

     59  H    Isotropic =    30.7908   Anisotropy =     7.8354

     60  H    Isotropic =    30.6634   Anisotropy =     5.5793

     61  C    Isotropic =   157.5774   Anisotropy =    32.8195

     62  H    Isotropic =    30.7112   Anisotropy =     5.0871

     63  H    Isotropic =    30.7055   Anisotropy =     7.9691

     64  H    Isotropic =    30.9205   Anisotropy =    10.2367

     65  C    Isotropic =   151.9616   Anisotropy =    62.5105

     66  N    Isotropic =   -40.9285   Anisotropy =   389.4373

     67  N    Isotropic =  -103.7654   Anisotropy =   123.3173

 The electronic state is 1-A.
 Alpha  occ. eigenvalues --  -77.07742 -77.04374 -14.45379 -14.38217 -14.30833
 Alpha  occ. eigenvalues --  -14.29471 -10.20764 -10.20653 -10.20278 -10.20136
 Alpha  occ. eigenvalues --  -10.20102 -10.18242 -10.18110 -10.16653 -10.16225
 Alpha  occ. eigenvalues --  -10.16168 -10.16073 -10.16039 -10.15947 -10.15746
 Alpha  occ. eigenvalues --  -10.15719 -10.15617 -10.15599 -10.15199 -10.15149
 Alpha  occ. eigenvalues --   -6.55526  -6.52821  -4.71719  -4.71663  -4.71204
 Alpha  occ. eigenvalues --   -4.69024  -4.68883  -4.68472  -1.11451  -0.91215
 Alpha  occ. eigenvalues --   -0.88856  -0.84474  -0.79990  -0.78953  -0.78370
 Alpha  occ. eigenvalues --   -0.78272  -0.75549  -0.73243  -0.69488  -0.69022
 Alpha  occ. eigenvalues --   -0.68969  -0.68647  -0.68346  -0.67989  -0.65459
 Alpha  occ. eigenvalues --   -0.63016  -0.60540  -0.59983  -0.58614  -0.56368
 Alpha  occ. eigenvalues --   -0.55840  -0.52332  -0.49834  -0.49644  -0.48927
 Alpha  occ. eigenvalues --   -0.48362  -0.47675  -0.46298  -0.45829  -0.45340
 Alpha  occ. eigenvalues --   -0.45302  -0.44629  -0.43722  -0.43689  -0.43370
 Alpha  occ. eigenvalues --   -0.42960  -0.42816  -0.42304  -0.41058  -0.41025
 Alpha  occ. eigenvalues --   -0.40908  -0.40404  -0.40363  -0.39378  -0.39201
 Alpha  occ. eigenvalues --   -0.38764  -0.38587  -0.38421  -0.38342  -0.38155
 Alpha  occ. eigenvalues --   -0.38016  -0.36965  -0.36438  -0.36172  -0.35733
 Alpha  occ. eigenvalues --   -0.35425  -0.35252  -0.34770  -0.34584  -0.34078
 Alpha  occ. eigenvalues --   -0.33855  -0.33597  -0.33016  -0.32691  -0.32065
 Alpha  occ. eigenvalues --   -0.31106  -0.29872  -0.26928  -0.24143  -0.21951
 Alpha  occ. eigenvalues --   -0.21043  -0.17143
 Alpha virt. eigenvalues --   -0.05012  -0.02088   0.01927   0.02856   0.03463
 Alpha virt. eigenvalues --    0.04174   0.04321   0.05149   0.05661   0.06113
 Alpha virt. eigenvalues --    0.06355   0.06596   0.07005   0.07391   0.07739

 Mulliken charges:
               1
     1  P    0.240682
     2  P    0.104265
     3  C    0.049880
     4  H    0.058636
     5  C    0.000962
     6  H    0.082163
     7  C    0.024957
     8  H    0.078438
     9  C    0.019881
    10  H    0.066315
    11  C   -0.049363
    12  H    0.085865
    13  C   -0.372772
    14  H    0.113091
    15  H    0.126848
    16  H    0.114467
    17  C   -0.349105
    18  H    0.119415
    19  H    0.101309
    20  H    0.101809
    21  C   -0.038613
    22  H    0.065261
    23  C   -0.374007
    24  H    0.113885
    25  H    0.126084
    26  H    0.113350
    27  C   -0.349637
    28  H    0.104534
    29  H    0.130303
    30  H    0.101775
    31  N   -0.205657
    32  N   -0.191098
    33  C   -0.354327
    34  H    0.108769
    35  H    0.104537
    36  H    0.129639
    37  C   -0.348787
    38  H    0.123364
    39  H    0.108073
    40  H    0.105860
    41  C   -0.359671
    42  H    0.111180
    43  H    0.112995
    44  H    0.106472
    45  C   -0.335268
    46  H    0.101302
    47  H    0.108036
    48  H    0.116744
    49  C   -0.341269
    50  H    0.119283
    51  H    0.120229
    52  H    0.109425
    53  C   -0.378058
    54  H    0.114110
    55  H    0.128944
    56  H    0.109264
    57  C   -0.342686
    58  H    0.108939
    59  H    0.127485
    60  H    0.100514
    61  C   -0.350839
    62  H    0.109428
    63  H    0.120461
    64  H    0.110978
    65  C   -0.161164
    66  N    0.137150
    67  N   -0.195031
 Sum of Mulliken charges =  -0.00000

 Dipole moment (field-independent basis, Debye):
    X=             -0.5523    Y=              1.0739    Z=             -0.5170  Tot=              1.3136
 Quadrupole moment (field-independent basis, Debye-Ang):
   XX=           -168.6318   YY=           -170.5491   ZZ=           -186.8030
   XY=             -0.7003   XZ=             -2.1968   YZ=              1.0124

 Summary of Natural Population Analysis:

                                       Natural Population
                Natural  -----------------------------------------------
    Atom  No    Charge         Core      Valence    Rydberg      Total
 -----------------------------------------------------------------------
      P    1    1.24600      9.99781     3.69829    0.05789    13.75400
      P    2    0.83130      9.99833     4.13602    0.03435    14.16870
      C    3   -0.03311      1.99936     4.01491    0.01884     6.03311
      H    4    0.18873      0.00000     0.80839    0.00288     0.81127
      C    5   -0.03893      1.99937     4.02142    0.01814     6.03893
      H    6    0.21071      0.00000     0.78669    0.00260     0.78929
      C    7   -0.02819      1.99936     4.01007    0.01876     6.02819
      H    8    0.21017      0.00000     0.78767    0.00216     0.78983
      C    9   -0.03810      1.99936     4.01916    0.01958     6.03810
      H   10    0.18247      0.00000     0.81459    0.00294     0.81753
      C   11   -0.47906      1.99942     4.45634    0.02330     6.47906
      H   12    0.21158      0.00000     0.78669    0.00173     0.78842
      C   13   -0.59343      1.99942     4.58214    0.01186     6.59343
      H   14    0.20331      0.00000     0.79507    0.00162     0.79669
      H   15    0.21246      0.00000     0.78620    0.00134     0.78754
      H   16    0.20075      0.00000     0.79791    0.00134     0.79925
      C   17   -0.59724      1.99942     4.58564    0.01218     6.59724
      H   18    0.19824      0.00000     0.80005    0.00171     0.80176
      H   19    0.19964      0.00000     0.79876    0.00160     0.80036
      H   20    0.19752      0.00000     0.80047    0.00201     0.80248
      C   21   -0.47276      1.99942     4.45038    0.02296     6.47276
      H   22    0.20922      0.00000     0.78840    0.00238     0.79078
      C   23   -0.59850      1.99942     4.58751    0.01156     6.59850
      H   24    0.20634      0.00000     0.79196    0.00170     0.79366
      H   25    0.21124      0.00000     0.78730    0.00145     0.78876
      H   26    0.19737      0.00000     0.80118    0.00146     0.80263
      C   27   -0.59821      1.99942     4.58639    0.01240     6.59821
      H   28    0.19758      0.00000     0.80094    0.00149     0.80242
      H   29    0.20738      0.00000     0.79114    0.00148     0.79262
      H   30    0.19795      0.00000     0.80011    0.00194     0.80205
      N   31   -0.77939      1.99947     5.74211    0.03781     7.77939
      N   32   -0.76911      1.99948     5.73594    0.03369     7.76911
      C   33   -0.60708      1.99941     4.59489    0.01278     6.60708
      H   34    0.20500      0.00000     0.79394    0.00105     0.79500
      H   35    0.19479      0.00000     0.80395    0.00126     0.80521
      H   36    0.21238      0.00000     0.78653    0.00109     0.78762
      C   37   -0.61474      1.99941     4.60281    0.01252     6.61474
      H   38    0.20991      0.00000     0.78907    0.00102     0.79009
      H   39    0.19628      0.00000     0.80239    0.00133     0.80372
      H   40    0.20297      0.00000     0.79594    0.00108     0.79703
      C   41   -0.59743      1.99941     4.58482    0.01320     6.59743
      H   42    0.19583      0.00000     0.80164    0.00253     0.80417
      H   43    0.20913      0.00000     0.78944    0.00143     0.79087
      H   44    0.20160      0.00000     0.79733    0.00107     0.79840
      C   45   -0.60927      1.99940     4.59780    0.01206     6.60927
      H   46    0.20144      0.00000     0.79749    0.00107     0.79856
      H   47    0.20545      0.00000     0.79350    0.00105     0.79455
      H   48    0.20892      0.00000     0.78973    0.00135     0.79108
      C   49   -0.60026      1.99941     4.58765    0.01320     6.60026
      H   50    0.20464      0.00000     0.79425    0.00111     0.79536
      H   51    0.20726      0.00000     0.79005    0.00269     0.79274
      H   52    0.20607      0.00000     0.79285    0.00108     0.79393
      C   53   -0.60571      1.99941     4.59355    0.01275     6.60571
      H   54    0.19808      0.00000     0.79924    0.00268     0.80192
      H   55    0.20765      0.00000     0.79115    0.00120     0.79235
      H   56    0.20333      0.00000     0.79563    0.00104     0.79667
      C   57   -0.60515      1.99941     4.59474    0.01101     6.60515
      H   58    0.20654      0.00000     0.79250    0.00096     0.79346
      H   59    0.20636      0.00000     0.79263    0.00101     0.79364
      H   60    0.19431      0.00000     0.80437    0.00133     0.80569
      C   61   -0.60446      1.99941     4.59391    0.01114     6.60446
      H   62    0.19631      0.00000     0.80236    0.00133     0.80369
      H   63    0.20472      0.00000     0.79401    0.00128     0.79528
      H   64    0.20836      0.00000     0.79074    0.00090     0.79164
      C   65   -0.74558      1.99901     4.70426    0.04230     6.74558
      N   66    0.05469      1.99941     4.91561    0.03029     6.94531
      N   67   -0.04630      1.99966     5.01195    0.03469     7.04630
 =======================================================================
   * Total *   -0.00000     65.98242   147.41258    0.60500   214.00000

 Normal termination of Gaussian 16 at Thu Jan 23 03:50:16 2025.
