 Gaussian 16, Revision B.01,
 Gaussian 16:  ES64L-G16RevB.01 20-Dec-2017

 --------------------------------------------
 # nmr=giao b3lyp/def2TZVP pop=nbo scfcyc=200
 --------------------------------------------

 --------------
 DS-43 SPE NoRh
 --------------
 Symbolic Z-matrix:
 Charge =  0 Multiplicity = 1

                         Standard orientation:
 ---------------------------------------------------------------------
 Center     Atomic      Atomic             Coordinates (Angstroms)
 Number     Number       Type             X           Y           Z
 ---------------------------------------------------------------------
      1         15           0        1.378275   -0.423751   -0.649541
      2         15           0       -1.327594   -0.145489   -0.612945
      3          6           0        0.005678   -0.679161    0.672517
      4          6           0        5.399965   -1.854827   -0.736822
      5          6           0        3.566640   -3.955701    0.622970
      6          6           0        2.918578    3.485347    0.836639
      7          6           0        4.359890    2.075775   -1.531223
      8          6           0       -4.089713    2.930121   -0.492848
      9          6           0       -1.644954    3.850987    1.186690
     10          1           0        6.298498   -2.274321   -0.276162
     11          1           0        5.262875   -2.346184   -1.701744
     12          1           0        5.583508   -0.794546   -0.918327
     13          1           0        4.419798   -4.440805    1.104448
     14          1           0        2.691738   -4.126048    1.254546
     15          1           0        3.397477   -4.455620   -0.332204
     16          1           0        3.396814    4.440569    0.601906
     17          1           0        1.957040    3.705995    1.304084
     18          1           0        3.545772    2.972628    1.568949
     19          1           0        4.808464    2.994715   -1.919204
     20          1           0        5.064527    1.645289   -0.816673
     21          1           0        4.257440    1.383051   -2.368850
     22          1           0       -4.674546    2.076170   -0.840738
     23          1           0       -4.776166    3.619631    0.005677
     24          1           0       -3.682423    3.441416   -1.367688
     25          1           0       -2.243246    4.596921    1.716261
     26          1           0       -0.841622    3.539008    1.858471
     27          1           0       -1.199789    4.340208    0.318496
     28          6           0       -3.383346    1.468669    2.171779
     29          1           0       -4.046177    0.654109    1.878319
     30          1           0       -2.564239    1.046672    2.756882
     31          1           0       -3.950310    2.148980    2.811921
     32          6           0        1.511674    3.256033   -1.933231
     33          1           0        1.380764    2.640801   -2.824950
     34          1           0        0.530843    3.403541   -1.480351
     35          1           0        1.890271    4.230579   -2.250359
     36          6           0        4.068840   -1.208922    2.010445
     37          1           0        4.180353   -0.133339    1.859180
     38          1           0        3.201926   -1.373293    2.653958
     39          1           0        4.949408   -1.561406    2.554555
     40         14           0        2.706969    2.460559   -0.721195
     41         14           0        3.911986   -2.126121    0.376017
     42         14           0       -2.722073    2.395828    0.681207
     43          6           0       -5.078059   -1.323215   -1.843677
     44          1           0       -5.513095   -0.403207   -1.447414
     45          1           0       -4.588799   -1.084093   -2.789938
     46          1           0       -5.901526   -2.007358   -2.064759
     47          6           0       -4.751781   -2.431659    1.039941
     48          1           0       -5.220901   -1.529291    1.436594
     49          1           0       -5.532896   -3.185313    0.917045
     50          1           0       -4.046974   -2.801984    1.787680
     51          6           0       -3.106839   -3.671910   -1.279029
     52          1           0       -2.506974   -3.478782   -2.170143
     53          1           0       -2.463500   -4.144633   -0.534484
     54          1           0       -3.879317   -4.394934   -1.551046
     55         14           0       -3.903814   -2.107849   -0.601617
     56          8           0       -2.669607   -0.964481   -0.258230
     57          8           0       -1.672731    1.379220   -0.241342
     58          8           0        2.020207    0.983377   -0.157175
     59          8           0        2.547663   -1.512861   -0.481227
     60          7           0        0.039333    0.100785    1.872172
     61          1           0        0.484546   -0.377943    2.645250
     62          1           0        0.479983    1.002872    1.738952
     63          6           0       -0.159291   -2.162502    0.991538
     64          1           0       -1.065958   -2.313730    1.578588
     65          1           0       -0.223147   -2.772920    0.090569
     66          1           0        0.693128   -2.520378    1.572683
 ---------------------------------------------------------------------

 SCF Done:  E(RB3LYP) =  -2755.47110181     A.U. after   14 cycles

      1  P    Isotropic =   100.6791   Anisotropy =   209.4158

      2  P    Isotropic =    95.7376   Anisotropy =   221.6448

      3  C    Isotropic =   113.1192   Anisotropy =    20.3848

      4  C    Isotropic =   182.0180   Anisotropy =    11.2286

      5  C    Isotropic =   181.7561   Anisotropy =    12.1623

      6  C    Isotropic =   181.6838   Anisotropy =    10.7872

      7  C    Isotropic =   181.4969   Anisotropy =    10.7400

      8  C    Isotropic =   181.4328   Anisotropy =    12.0869

      9  C    Isotropic =   181.6837   Anisotropy =    10.8189

     10  H    Isotropic =    32.0699   Anisotropy =    10.1407

     11  H    Isotropic =    31.5697   Anisotropy =     7.9653

     12  H    Isotropic =    31.5602   Anisotropy =     9.0617

     13  H    Isotropic =    32.0876   Anisotropy =    10.2606

     14  H    Isotropic =    31.6077   Anisotropy =     7.1931

     15  H    Isotropic =    31.6102   Anisotropy =     7.8229

     16  H    Isotropic =    31.9584   Anisotropy =    10.2079

     17  H    Isotropic =    31.5502   Anisotropy =     8.4069

     18  H    Isotropic =    31.6015   Anisotropy =     7.0605

     19  H    Isotropic =    31.9198   Anisotropy =    10.1032

     20  H    Isotropic =    31.6120   Anisotropy =     7.3358

     21  H    Isotropic =    31.3861   Anisotropy =     6.6449

     22  H    Isotropic =    31.5903   Anisotropy =     8.6803

     23  H    Isotropic =    32.0272   Anisotropy =    10.0036

     24  H    Isotropic =    31.5474   Anisotropy =     7.6872

     25  H    Isotropic =    32.0412   Anisotropy =    10.1990

     26  H    Isotropic =    31.5702   Anisotropy =     6.8029

     27  H    Isotropic =    31.6056   Anisotropy =     7.4336

     28  C    Isotropic =   180.5077   Anisotropy =     9.9547

     29  H    Isotropic =    31.5338   Anisotropy =     8.9601

     30  H    Isotropic =    30.6347   Anisotropy =     7.2962

     31  H    Isotropic =    32.0524   Anisotropy =    10.4357

     32  C    Isotropic =   183.1514   Anisotropy =     9.5064

     33  H    Isotropic =    31.3778   Anisotropy =     6.9212

     34  H    Isotropic =    31.5478   Anisotropy =    10.4470

     35  H    Isotropic =    32.1498   Anisotropy =     9.9641

     36  C    Isotropic =   180.7313   Anisotropy =     9.0963

     37  H    Isotropic =    31.5369   Anisotropy =     7.5487

     38  H    Isotropic =    31.7308   Anisotropy =     6.2685

     39  H    Isotropic =    31.8974   Anisotropy =    10.6139

     40  Si   Isotropic =   291.2013   Anisotropy =    22.1097

     41  Si   Isotropic =   293.6877   Anisotropy =    22.5407

     42  Si   Isotropic =   291.3861   Anisotropy =    22.1980

     43  C    Isotropic =   182.3535   Anisotropy =    10.9567

     44  H    Isotropic =    31.6030   Anisotropy =     7.5003

     45  H    Isotropic =    31.4006   Anisotropy =     7.2887

     46  H    Isotropic =    32.0297   Anisotropy =    10.2750

     47  C    Isotropic =   180.9423   Anisotropy =    11.0642

     48  H    Isotropic =    31.5430   Anisotropy =     6.9651

     49  H    Isotropic =    32.0388   Anisotropy =    10.3831

     50  H    Isotropic =    31.5680   Anisotropy =     6.4688

     51  C    Isotropic =   182.4632   Anisotropy =    10.1532

     52  H    Isotropic =    31.4871   Anisotropy =     7.1103

     53  H    Isotropic =    31.6496   Anisotropy =     6.8022

     54  H    Isotropic =    32.0980   Anisotropy =    10.3514

     55  Si   Isotropic =   295.6755   Anisotropy =    22.7187

     56  O    Isotropic =   206.9604   Anisotropy =   139.2421

     57  O    Isotropic =   207.6641   Anisotropy =   128.3617

     58  O    Isotropic =   196.8855   Anisotropy =   132.5937

     59  O    Isotropic =   209.2716   Anisotropy =   124.0124

     60  N    Isotropic =   232.3563   Anisotropy =    50.7420

     61  H    Isotropic =    32.0108   Anisotropy =    13.0195

     62  H    Isotropic =    30.4828   Anisotropy =    13.4394

     63  C    Isotropic =   167.0634   Anisotropy =    13.7467

     64  H    Isotropic =    30.9673   Anisotropy =     8.2743

     65  H    Isotropic =    30.6367   Anisotropy =     7.0694

     66  H    Isotropic =    31.5374   Anisotropy =     9.6607

 The electronic state is 1-A.
 Alpha  occ. eigenvalues --  -77.08038 -77.07935 -66.11880 -66.11831 -66.11785
 Alpha  occ. eigenvalues --  -66.11216 -19.11079 -19.10893 -19.10671 -19.10540
 Alpha  occ. eigenvalues --  -14.29142 -10.18593 -10.16347 -10.15142 -10.15011
 Alpha  occ. eigenvalues --  -10.14966 -10.14906 -10.14898 -10.14779 -10.14754
 Alpha  occ. eigenvalues --  -10.14707 -10.14592 -10.14407 -10.14329 -10.13803
 Alpha  occ. eigenvalues --   -6.55586  -6.55525  -5.27523  -5.27511  -5.27493
 Alpha  occ. eigenvalues --   -5.26917  -4.71929  -4.71870  -4.71707  -4.71639
 Alpha  occ. eigenvalues --   -4.71141  -4.71076  -3.63561  -3.63542  -3.63516
 Alpha  occ. eigenvalues --   -3.63231  -3.63224  -3.63221  -3.63208  -3.63205
 Alpha  occ. eigenvalues --   -3.63193  -3.62944  -3.62628  -3.62611  -1.00276
 Alpha  occ. eigenvalues --   -0.99999  -0.96387  -0.96076  -0.88228  -0.73567
 Alpha  occ. eigenvalues --   -0.71953  -0.71701  -0.71597  -0.71163  -0.68631
 Alpha  occ. eigenvalues --   -0.68555  -0.68389  -0.68317  -0.68271  -0.68081
 Alpha  occ. eigenvalues --   -0.67997  -0.67588  -0.64135  -0.60198  -0.55976
 Alpha  occ. eigenvalues --   -0.52515  -0.52216  -0.49681  -0.46872  -0.44990
 Alpha  occ. eigenvalues --   -0.43926  -0.43516  -0.43026  -0.42580  -0.42214
 Alpha  occ. eigenvalues --   -0.41885  -0.41674  -0.41624  -0.41368  -0.41316
 Alpha  occ. eigenvalues --   -0.41183  -0.40808  -0.40784  -0.40609  -0.40469
 Alpha  occ. eigenvalues --   -0.40225  -0.40016  -0.39780  -0.39692  -0.39537
 Alpha  occ. eigenvalues --   -0.39472  -0.39263  -0.39117  -0.38906  -0.38843
 Alpha  occ. eigenvalues --   -0.38697  -0.38546  -0.38278  -0.38004  -0.37752
 Alpha  occ. eigenvalues --   -0.37105  -0.37042  -0.36847  -0.34965  -0.34785
 Alpha  occ. eigenvalues --   -0.34124  -0.33583  -0.33382  -0.32028  -0.30457
 Alpha  occ. eigenvalues --   -0.30244  -0.30200  -0.29711  -0.29579  -0.28741
 Alpha  occ. eigenvalues --   -0.28717  -0.28471  -0.23811  -0.20548  -0.15036
 Alpha virt. eigenvalues --    0.00528   0.00808   0.02115   0.03142   0.03646
 Alpha virt. eigenvalues --    0.04199   0.04285   0.05362   0.05449   0.05810
 Alpha virt. eigenvalues --    0.06154   0.06470   0.06678   0.06869   0.06980

 Mulliken charges:
               1
     1  P    0.368831
     2  P    0.389289
     3  C    0.168216
     4  C   -0.460549
     5  C   -0.455844
     6  C   -0.458503
     7  C   -0.467320
     8  C   -0.459036
     9  C   -0.472638
    10  H    0.109300
    11  H    0.124029
    12  H    0.123933
    13  H    0.109700
    14  H    0.119634
    15  H    0.124301
    16  H    0.112669
    17  H    0.123499
    18  H    0.118626
    19  H    0.118171
    20  H    0.111824
    21  H    0.133318
    22  H    0.119636
    23  H    0.108035
    24  H    0.120654
    25  H    0.113901
    26  H    0.113508
    27  H    0.119960
    28  C   -0.442932
    29  H    0.113286
    30  H    0.139050
    31  H    0.105650
    32  C   -0.454877
    33  H    0.130819
    34  H    0.131886
    35  H    0.109020
    36  C   -0.452236
    37  H    0.126428
    38  H    0.107038
    39  H    0.114249
    40  Si   0.561642
    41  Si   0.546146
    42  Si   0.560270
    43  C   -0.461788
    44  H    0.115294
    45  H    0.130215
    46  H    0.112524
    47  C   -0.448199
    48  H    0.118492
    49  H    0.110882
    50  H    0.121323
    51  C   -0.472074
    52  H    0.133160
    53  H    0.122122
    54  H    0.114986
    55  Si   0.550502
    56  O   -0.416608
    57  O   -0.427150
    58  O   -0.461989
    59  O   -0.400386
    60  N   -0.534665
    61  H    0.190288
    62  H    0.215559
    63  C   -0.431139
    64  H    0.121970
    65  H    0.129886
    66  H    0.094213
 Sum of Mulliken charges =  -0.00000

 Dipole moment (field-independent basis, Debye):
    X=              0.7781    Y=              0.0152    Z=              1.9697  Tot=              2.1178
 Quadrupole moment (field-independent basis, Debye-Ang):
   XX=           -185.1638   YY=           -190.8652   ZZ=           -205.5560
   XY=              2.7809   XZ=              2.9159   YZ=             -1.7162

 Summary of Natural Population Analysis:

                                       Natural Population
                Natural  -----------------------------------------------
    Atom  No    Charge         Core      Valence    Rydberg      Total
 -----------------------------------------------------------------------
      P    1    1.35038      9.99854     3.55934    0.09174    13.64962
      P    2    1.37454      9.99855     3.52586    0.10105    13.62546
      C    3   -0.48226      1.99950     4.43741    0.04534     6.48226
      C    4   -1.12027      1.99942     5.10063    0.02022     7.12027
      C    5   -1.11943      1.99942     5.09994    0.02008     7.11943
      C    6   -1.12140      1.99942     5.10106    0.02093     7.12140
      C    7   -1.12627      1.99942     5.10621    0.02064     7.12627
      C    8   -1.12066      1.99942     5.10096    0.02029     7.12066
      C    9   -1.11792      1.99942     5.09830    0.02019     7.11792
      H   10    0.22679      0.00000     0.77248    0.00073     0.77321
      H   11    0.23779      0.00000     0.76145    0.00075     0.76221
      H   12    0.23439      0.00000     0.76467    0.00094     0.76561
      H   13    0.22641      0.00000     0.77280    0.00079     0.77359
      H   14    0.23193      0.00000     0.76686    0.00121     0.76807
      H   15    0.23742      0.00000     0.76182    0.00076     0.76258
      H   16    0.22804      0.00000     0.77108    0.00089     0.77196
      H   17    0.23375      0.00000     0.76516    0.00109     0.76625
      H   18    0.23266      0.00000     0.76635    0.00099     0.76734
      H   19    0.22958      0.00000     0.76969    0.00073     0.77042
      H   20    0.22840      0.00000     0.77055    0.00104     0.77160
      H   21    0.24016      0.00000     0.75899    0.00085     0.75984
      H   22    0.23252      0.00000     0.76644    0.00104     0.76748
      H   23    0.22574      0.00000     0.77351    0.00075     0.77426
      H   24    0.23526      0.00000     0.76395    0.00079     0.76474
      H   25    0.22687      0.00000     0.77233    0.00080     0.77313
      H   26    0.23012      0.00000     0.76868    0.00120     0.76988
      H   27    0.23185      0.00000     0.76711    0.00104     0.76815
      C   28   -1.13036      1.99941     5.10962    0.02133     7.13036
      H   29    0.23350      0.00000     0.76543    0.00107     0.76650
      H   30    0.25280      0.00000     0.74549    0.00170     0.74720
      H   31    0.22305      0.00000     0.77609    0.00086     0.77695
      C   32   -1.12577      1.99941     5.10542    0.02094     7.12577
      H   33    0.24277      0.00000     0.75632    0.00092     0.75723
      H   34    0.24092      0.00000     0.75810    0.00098     0.75908
      H   35    0.22559      0.00000     0.77367    0.00074     0.77441
      C   36   -1.12638      1.99942     5.10548    0.02148     7.12638
      H   37    0.23727      0.00000     0.76161    0.00112     0.76273
      H   38    0.22811      0.00000     0.76969    0.00220     0.77189
      H   39    0.22763      0.00000     0.77148    0.00089     0.77237
     Si   40    1.91787      9.99800     2.05150    0.03263    12.08213
     Si   41    1.90217      9.99798     2.06903    0.03082    12.09783
     Si   42    1.90349      9.99799     2.06166    0.03687    12.09651
      C   43   -1.12301      1.99942     5.10325    0.02033     7.12301
      H   44    0.23105      0.00000     0.76788    0.00107     0.76895
      H   45    0.23924      0.00000     0.75995    0.00081     0.76076
      H   46    0.22745      0.00000     0.77182    0.00073     0.77255
      C   47   -1.12081      1.99942     5.10074    0.02065     7.12081
      H   48    0.23247      0.00000     0.76649    0.00104     0.76753
      H   49    0.22656      0.00000     0.77258    0.00087     0.77344
      H   50    0.23500      0.00000     0.76382    0.00118     0.76500
      C   51   -1.12600      1.99942     5.10593    0.02065     7.12600
      H   52    0.24024      0.00000     0.75888    0.00088     0.75976
      H   53    0.23249      0.00000     0.76654    0.00097     0.76751
      H   54    0.22802      0.00000     0.77123    0.00075     0.77198
     Si   55    1.92156      9.99794     2.04860    0.03190    12.07844
      O   56   -1.18375      1.99974     7.17271    0.01131     9.18375
      O   57   -1.15481      1.99977     7.14128    0.01377     9.15481
      O   58   -1.18132      1.99976     7.16488    0.01668     9.18132
      O   59   -1.16324      1.99976     7.14773    0.01574     9.16324
      N   60   -0.83915      1.99952     5.80760    0.03202     7.83915
      H   61    0.35207      0.00000     0.64513    0.00281     0.64793
      H   62    0.37122      0.00000     0.62677    0.00201     0.62878
      C   63   -0.61182      1.99937     4.59763    0.01482     6.61182
      H   64    0.21157      0.00000     0.78583    0.00260     0.78843
      H   65    0.21917      0.00000     0.77968    0.00115     0.78083
      H   66    0.19677      0.00000     0.80074    0.00248     0.80323
 =======================================================================
   * Total *   -0.00000     97.97944   151.25190    0.76865   250.00000

 Normal termination of Gaussian 16 at Thu Jan 23 03:47:37 2025.
