 Gaussian 16, Revision B.01,
 Gaussian 16:  ES64L-G16RevB.01 20-Dec-2017

 --------------------------------------------
 # nmr=giao b3lyp/def2TZVP pop=nbo scfcyc=200
 --------------------------------------------

 --------------
 DS-41 SPE NoRh
 --------------
 Symbolic Z-matrix:
 Charge =  0 Multiplicity = 1

                         Standard orientation:
 ---------------------------------------------------------------------
 Center     Atomic      Atomic             Coordinates (Angstroms)
 Number     Number       Type             X           Y           Z
 ---------------------------------------------------------------------
      1         15           0        1.395634   -0.744257   -1.176460
      2         15           0       -1.398965   -0.733598   -1.183635
      3          6           0       -2.957087    0.164200   -0.996920
      4          1           0       -3.145924    1.151680   -1.389807
      5          6           0       -3.853243   -0.604501   -0.345978
      6          6           0       -3.319114   -1.930974    0.095439
      7          6           0       -2.028498   -2.136225   -0.227609
      8          1           0       -1.460503   -3.024314    0.002369
      9          6           0        3.315424   -1.933436    0.109381
     10          6           0        2.024159   -2.138679   -0.207246
     11          1           0        1.452499   -3.020306    0.037317
     12          6           0        3.852989   -0.613745   -0.349124
     13          6           0        2.957704    0.151489   -1.003094
     14          1           0        3.147288    1.132296   -1.409799
     15          6           0        5.267578   -0.212191   -0.070929
     16          1           0        5.466206   -0.201762    1.003767
     17          1           0        5.971954   -0.920923   -0.516447
     18          1           0        5.483941    0.778010   -0.467210
     19          6           0        4.170864   -2.901504    0.866425
     20          1           0        5.051301   -3.190061    0.285851
     21          1           0        4.533808   -2.456620    1.796314
     22          1           0        3.616019   -3.803704    1.117316
     23          6           0       -5.264706   -0.200621   -0.056868
     24          1           0       -5.973630   -0.901530   -0.505919
     25          1           0       -5.457248   -0.201897    1.019368
     26          1           0       -5.478721    0.794557   -0.441894
     27          6           0       -4.174910   -2.905404    0.841528
     28          1           0       -4.534347   -2.470616    1.778080
     29          1           0       -5.056927   -3.184509    0.259883
     30          1           0       -3.622165   -3.813539    1.080203
     31          6           0       -0.000870    0.105380   -0.173272
     32          6           0        0.004193    1.608642   -0.306316
     33          6           0       -0.000185    2.139420    0.977644
     34          6           0        0.012066    2.445979   -1.414833
     35          6           0        0.002046    3.510069    1.206726
     36          6           0        0.015477    3.821953   -1.192911
     37          1           0        0.017197    2.049985   -2.423959
     38          6           0        0.009864    4.350999    0.100872
     39          1           0       -0.001169    3.896235    2.218636
     40          1           0        0.021868    4.495255   -2.041090
     41          1           0        0.012682    5.424188    0.238572
     42          6           0       -0.007509    1.039299    1.957009
     43          8           0       -0.006238   -0.150823    1.214797
     44          8           0       -0.012715    1.035136    3.147744
 ---------------------------------------------------------------------

 SCF Done:  E(RB3LYP) =  -1607.67731471     A.U. after   20 cycles

      1  P    Isotropic =   202.8553   Anisotropy =    76.2257

      2  P    Isotropic =   203.2442   Anisotropy =    76.9173

      3  C    Isotropic =    53.3378   Anisotropy =   141.2435

      4  H    Isotropic =    26.0263   Anisotropy =     7.2747

      5  C    Isotropic =    25.0579   Anisotropy =   159.2979

      6  C    Isotropic =    25.2064   Anisotropy =   158.6788

      7  C    Isotropic =    54.0600   Anisotropy =   141.7447

      8  H    Isotropic =    25.0087   Anisotropy =     5.5652

      9  C    Isotropic =    25.4038   Anisotropy =   157.9947

     10  C    Isotropic =    54.0541   Anisotropy =   141.6548

     11  H    Isotropic =    25.0121   Anisotropy =     5.5771

     12  C    Isotropic =    25.3047   Anisotropy =   158.7512

     13  C    Isotropic =    53.4167   Anisotropy =   141.3134

     14  H    Isotropic =    26.0186   Anisotropy =     7.2445

     15  C    Isotropic =   163.6576   Anisotropy =    30.6058

     16  H    Isotropic =    30.0593   Anisotropy =     7.0711

     17  H    Isotropic =    29.9430   Anisotropy =     8.3934

     18  H    Isotropic =    30.1702   Anisotropy =     6.2322

     19  C    Isotropic =   163.4630   Anisotropy =    30.5484

     20  H    Isotropic =    29.8494   Anisotropy =     8.1781

     21  H    Isotropic =    29.8806   Anisotropy =     7.2298

     22  H    Isotropic =    29.7536   Anisotropy =     6.4180

     23  C    Isotropic =   163.6759   Anisotropy =    30.5183

     24  H    Isotropic =    29.9538   Anisotropy =     8.3896

     25  H    Isotropic =    30.0459   Anisotropy =     7.0645

     26  H    Isotropic =    30.1657   Anisotropy =     6.2228

     27  C    Isotropic =   163.4644   Anisotropy =    30.4237

     28  H    Isotropic =    29.8599   Anisotropy =     7.2322

     29  H    Isotropic =    29.8546   Anisotropy =     8.1801

     30  H    Isotropic =    29.7206   Anisotropy =     6.4141

     31  C    Isotropic =    87.2361   Anisotropy =    43.4682

     32  C    Isotropic =    21.1221   Anisotropy =   193.6675

     33  C    Isotropic =    53.0811   Anisotropy =   163.8750

     34  C    Isotropic =    57.8438   Anisotropy =   176.0734

     35  C    Isotropic =    51.0548   Anisotropy =   192.3153

     36  C    Isotropic =    45.2169   Anisotropy =   191.0275

     37  H    Isotropic =    23.7052   Anisotropy =     8.2743

     38  C    Isotropic =    51.4209   Anisotropy =   185.3439

     39  H    Isotropic =    23.8612   Anisotropy =     5.8757

     40  H    Isotropic =    24.0199   Anisotropy =     5.5053

     41  H    Isotropic =    24.2832   Anisotropy =     4.2337

     42  C    Isotropic =     9.3786   Anisotropy =    92.1941

     43  O    Isotropic =    53.9116   Anisotropy =   145.0707

     44  O    Isotropic =   -62.2174   Anisotropy =   549.8023

 The electronic state is 1-A.
 Alpha  occ. eigenvalues --  -77.05804 -77.05791 -19.17372 -19.11663 -10.30204
 Alpha  occ. eigenvalues --  -10.27101 -10.21468 -10.20227 -10.20185 -10.20060
 Alpha  occ. eigenvalues --  -10.20038 -10.19641 -10.19006 -10.19004 -10.18980
 Alpha  occ. eigenvalues --  -10.18979 -10.17289 -10.17276 -10.17267 -10.17261
 Alpha  occ. eigenvalues --  -10.17044 -10.17041 -10.16748 -10.16735  -6.54382
 Alpha  occ. eigenvalues --   -6.54369  -4.70554  -4.70540  -4.70461  -4.70447
 Alpha  occ. eigenvalues --   -4.70063  -4.70050  -1.10546  -1.03603  -0.88828
 Alpha  occ. eigenvalues --   -0.85245  -0.85092  -0.79561  -0.78366  -0.76062
 Alpha  occ. eigenvalues --   -0.76033  -0.74990  -0.73404  -0.71383  -0.67367
 Alpha  occ. eigenvalues --   -0.67263  -0.65766  -0.63077  -0.61966  -0.61231
 Alpha  occ. eigenvalues --   -0.58510  -0.55918  -0.55210  -0.51708  -0.50414
 Alpha  occ. eigenvalues --   -0.50112  -0.49904  -0.48987  -0.48149  -0.47108
 Alpha  occ. eigenvalues --   -0.46383  -0.45957  -0.44835  -0.44336  -0.43958
 Alpha  occ. eigenvalues --   -0.43943  -0.42590  -0.41003  -0.41000  -0.40508
 Alpha  occ. eigenvalues --   -0.40469  -0.40179  -0.40058  -0.39829  -0.39107
 Alpha  occ. eigenvalues --   -0.38929  -0.38088  -0.37899  -0.36879  -0.35290
 Alpha  occ. eigenvalues --   -0.35206  -0.33818  -0.33679  -0.33040  -0.32251
 Alpha  occ. eigenvalues --   -0.29631  -0.28994  -0.28206  -0.26111  -0.24710
 Alpha  occ. eigenvalues --   -0.23404  -0.23232  -0.20675
 Alpha virt. eigenvalues --   -0.06485  -0.05953  -0.04972  -0.01933  -0.00647
 Alpha virt. eigenvalues --    0.02537   0.03097   0.03755   0.04227   0.04318
 Alpha virt. eigenvalues --    0.05130   0.05496   0.05799   0.06723   0.06745

 Mulliken charges:
               1
     1  P    0.161333
     2  P    0.161023
     3  C   -0.261161
     4  H    0.115508
     5  C    0.077298
     6  C    0.035424
     7  C   -0.210807
     8  H    0.109602
     9  C    0.034832
    10  C   -0.210082
    11  H    0.109626
    12  C    0.078180
    13  C   -0.262076
    14  H    0.115329
    15  C   -0.360869
    16  H    0.122928
    17  H    0.117573
    18  H    0.116564
    19  C   -0.361556
    20  H    0.117129
    21  H    0.124078
    22  H    0.117563
    23  C   -0.360711
    24  H    0.117534
    25  H    0.122945
    26  H    0.116506
    27  C   -0.361715
    28  H    0.124071
    29  H    0.117341
    30  H    0.117445
    31  C    0.354053
    32  C   -0.046359
    33  C   -0.027312
    34  C   -0.230393
    35  C   -0.191242
    36  C   -0.063851
    37  H    0.135468
    38  C   -0.091224
    39  H    0.133946
    40  H    0.121403
    41  H    0.119811
    42  C    0.270690
    43  O   -0.266321
    44  O   -0.259522
 Sum of Mulliken charges =  -0.00000

 Dipole moment (field-independent basis, Debye):
    X=              0.0267    Y=              1.4442    Z=             -1.6421  Tot=              2.1870
 Quadrupole moment (field-independent basis, Debye-Ang):
   XX=           -136.8925   YY=           -136.6009   ZZ=           -171.6740
   XY=              0.0839   XZ=             -0.0096   YZ=             -8.8201

 Summary of Natural Population Analysis:

                                       Natural Population
                Natural  -----------------------------------------------
    Atom  No    Charge         Core      Valence    Rydberg      Total
 -----------------------------------------------------------------------
      P    1    0.81776      9.99823     4.14768    0.03632    14.18224
      P    2    0.81865      9.99823     4.14675    0.03638    14.18135
      C    3   -0.52337      1.99894     4.49824    0.02618     6.52337
      H    4    0.22599      0.00000     0.77225    0.00176     0.77401
      C    5   -0.01166      1.99902     3.99049    0.02215     6.01166
      C    6   -0.01526      1.99901     3.99415    0.02210     6.01526
      C    7   -0.50230      1.99893     4.47712    0.02626     6.50230
      H    8    0.22474      0.00000     0.77343    0.00183     0.77526
      C    9   -0.01536      1.99901     3.99425    0.02211     6.01536
      C   10   -0.50156      1.99892     4.47638    0.02626     6.50156
      H   11    0.22488      0.00000     0.77330    0.00183     0.77512
      C   12   -0.01196      1.99901     3.99080    0.02215     6.01196
      C   13   -0.52196      1.99894     4.49688    0.02614     6.52196
      H   14    0.22581      0.00000     0.77242    0.00176     0.77419
      C   15   -0.62087      1.99939     4.60876    0.01273     6.62087
      H   16    0.21708      0.00000     0.78151    0.00141     0.78292
      H   17    0.21186      0.00000     0.78649    0.00166     0.78814
      H   18    0.21564      0.00000     0.78321    0.00115     0.78436
      C   19   -0.61931      1.99938     4.60729    0.01264     6.61931
      H   20    0.21184      0.00000     0.78654    0.00162     0.78816
      H   21    0.21759      0.00000     0.78101    0.00140     0.78241
      H   22    0.21671      0.00000     0.78216    0.00114     0.78329
      C   23   -0.62096      1.99939     4.60884    0.01274     6.62096
      H   24    0.21184      0.00000     0.78650    0.00166     0.78816
      H   25    0.21710      0.00000     0.78149    0.00141     0.78290
      H   26    0.21568      0.00000     0.78317    0.00115     0.78432
      C   27   -0.61944      1.99938     4.60738    0.01267     6.61944
      H   28    0.21773      0.00000     0.78087    0.00140     0.78227
      H   29    0.21194      0.00000     0.78643    0.00162     0.78806
      H   30    0.21675      0.00000     0.78211    0.00114     0.78325
      C   31   -0.20679      1.99917     4.15899    0.04863     6.20679
      C   32   -0.02285      1.99894     3.99781    0.02610     6.02285
      C   33   -0.17865      1.99882     4.15600    0.02383     6.17865
      C   34   -0.21565      1.99906     4.19783    0.01876     6.21565
      C   35   -0.14504      1.99911     4.12676    0.01918     6.14504
      C   36   -0.17070      1.99923     4.15293    0.01855     6.17070
      H   37    0.22638      0.00000     0.77217    0.00146     0.77362
      C   38   -0.21152      1.99921     4.19366    0.01865     6.21152
      H   39    0.22902      0.00000     0.76948    0.00150     0.77098
      H   40    0.21373      0.00000     0.78516    0.00111     0.78627
      H   41    0.21471      0.00000     0.78418    0.00111     0.78529
      C   42    0.74217      1.99925     3.22254    0.03604     5.25783
      O   43   -0.47992      1.99974     6.45143    0.02875     8.47992
      O   44   -0.53046      1.99973     6.50321    0.02752     8.53046
 =======================================================================
   * Total *   -0.00000     63.97805   121.41003    0.61193   186.00000

 Normal termination of Gaussian 16 at Thu Jan 23 03:30:56 2025.
