 Gaussian 16, Revision B.01,
 Gaussian 16:  ES64L-G16RevB.01 20-Dec-2017

 --------------------------------------------
 # nmr=giao b3lyp/def2TZVP pop=nbo scfcyc=200
 --------------------------------------------

 --------------
 DS-55 SPE NoRh
 --------------
 Symbolic Z-matrix:
 Charge =  0 Multiplicity = 1

                         Standard orientation:
 ---------------------------------------------------------------------
 Center     Atomic      Atomic             Coordinates (Angstroms)
 Number     Number       Type             X           Y           Z
 ---------------------------------------------------------------------
      1         15           0       -1.408158    0.005626   -1.086241
      2         15           0        1.324490   -0.166847   -0.957787
      3          6           0       -0.053758    0.560128    0.220602
      4          6           0       -5.521899    1.272312   -0.862678
      5          6           0       -3.686111    3.733778   -1.070776
      6          6           0       -4.301111   -2.299126    0.973700
      7          6           0       -4.221629   -2.220940   -2.150206
      8          6           0        4.035468   -2.575640   -1.880803
      9          6           0        1.292084   -4.026862   -1.925738
     10          1           0       -6.328966    1.910363   -0.491893
     11          1           0       -5.618330    1.223861   -1.948754
     12          1           0       -5.684095    0.272742   -0.459699
     13          1           0       -4.496367    4.369382   -0.705172
     14          1           0       -2.741756    4.197430   -0.785550
     15          1           0       -3.747317    3.718490   -2.161578
     16          1           0       -5.113071   -3.030683    0.983050
     17          1           0       -3.707302   -2.454083    1.876282
     18          1           0       -4.749946   -1.306660    1.031870
     19          1           0       -5.092921   -2.880864   -2.175023
     20          1           0       -4.583623   -1.195772   -2.238143
     21          1           0       -3.618241   -2.451612   -3.031527
     22          1           0        4.783604   -2.088551   -1.254427
     23          1           0        4.487464   -3.486080   -2.282688
     24          1           0        3.825061   -1.918270   -2.724708
     25          1           0        1.790074   -4.888670   -2.377357
     26          1           0        0.467579   -4.400656   -1.318479
     27          1           0        0.872311   -3.417952   -2.729050
     28          6           0        3.035772   -3.987335    0.650435
     29          1           0        3.697173   -3.390956    1.281490
     30          1           0        2.188668   -4.310131    1.253505
     31          1           0        3.587006   -4.880758    0.344837
     32          6           0       -2.454851   -4.217230   -0.606451
     33          1           0       -1.853018   -4.354622   -1.505387
     34          1           0       -1.823175   -4.391758    0.265848
     35          1           0       -3.234580   -4.983047   -0.610607
     36          6           0       -3.630405    1.981027    1.507622
     37          1           0       -3.622944    0.963825    1.902693
     38          1           0       -2.704394    2.480189    1.802041
     39          1           0       -4.453060    2.514308    1.991907
     40         14           0       -3.247905   -2.518510   -0.566626
     41         14           0       -3.867418    2.007476   -0.358019
     42         14           0        2.510714   -3.046637   -0.883235
     43          6           0        5.559873    0.694184   -0.897145
     44          1           0        5.669802   -0.094724   -0.150080
     45          1           0        5.566138    0.237507   -1.887060
     46          1           0        6.440507    1.338021   -0.823965
     47          6           0        4.024104    2.420563    1.143885
     48          1           0        4.029731    1.620440    1.886916
     49          1           0        4.931484    3.012369    1.290409
     50          1           0        3.170800    3.068494    1.344102
     51          6           0        3.857974    3.070274   -1.902412
     52          1           0        3.902106    2.659391   -2.912943
     53          1           0        2.926832    3.629007   -1.793399
     54          1           0        4.684100    3.779540   -1.802834
     55         14           0        4.019418    1.726490   -0.596910
     56          8           0        2.663138    0.682188   -0.769921
     57          8           0        1.693620   -1.617219   -0.335098
     58          8           0       -1.978380   -1.359156   -0.455724
     59          8           0       -2.642024    1.041827   -1.094513
     60          7           0       -0.239532    0.078105    1.550822
     61          1           0       -0.948588    0.633185    2.012787
     62          6           0        0.096722    2.092097    0.189915
     63          6           0        0.374215    2.788571    1.373676
     64          6           0       -0.001182    2.870386   -0.969888
     65          1           0        0.492478    2.248501    2.302682
     66          6           0        0.157874    4.246988   -0.896972
     67          1           0       -0.194127    2.406250   -1.928418
     68          6           0        0.411782    4.827814    0.340093
     69          1           0        0.081726    4.861680   -1.784457
     70          1           0        0.534416    5.901665    0.439618
     71          7           0        0.523040    4.111931    1.457573
     72         14           0        0.415261   -1.105683    2.707913
     73          6           0       -0.414163   -0.573254    4.322624
     74          1           0       -1.504260   -0.597091    4.250446
     75          1           0       -0.131142   -1.253940    5.128784
     76          1           0       -0.115760    0.433157    4.627208
     77          6           0        2.287050   -0.947299    2.902984
     78          1           0        2.542007    0.038561    3.297291
     79          1           0        2.652488   -1.691930    3.614681
     80          1           0        2.818526   -1.089653    1.963426
     81          6           0       -0.116576   -2.879006    2.335349
     82          1           0        0.393781   -3.584325    2.996402
     83          1           0       -1.190038   -2.984745    2.503730
     84          1           0        0.092430   -3.156396    1.304273
 ---------------------------------------------------------------------

 SCF Done:  E(RB3LYP) =  -3372.06879278     A.U. after   15 cycles

      1  P    Isotropic =    89.9134   Anisotropy =   231.1551

      2  P    Isotropic =   101.8309   Anisotropy =   222.8347

      3  C    Isotropic =    94.7312   Anisotropy =    20.3973

      4  C    Isotropic =   180.7428   Anisotropy =     9.7386

      5  C    Isotropic =   182.5096   Anisotropy =    10.3866

      6  C    Isotropic =   180.7275   Anisotropy =     9.6061

      7  C    Isotropic =   182.3799   Anisotropy =     9.9741

      8  C    Isotropic =   180.9694   Anisotropy =    10.7399

      9  C    Isotropic =   181.7592   Anisotropy =    10.3540

     10  H    Isotropic =    32.1391   Anisotropy =    10.4238

     11  H    Isotropic =    31.6206   Anisotropy =     7.3083

     12  H    Isotropic =    31.6261   Anisotropy =     7.8541

     13  H    Isotropic =    32.5607   Anisotropy =    10.5708

     14  H    Isotropic =    32.3482   Anisotropy =    12.2245

     15  H    Isotropic =    31.9330   Anisotropy =     7.5740

     16  H    Isotropic =    31.9628   Anisotropy =    10.7055

     17  H    Isotropic =    31.3775   Anisotropy =     6.8922

     18  H    Isotropic =    31.5159   Anisotropy =     7.8982

     19  H    Isotropic =    32.0487   Anisotropy =    10.0553

     20  H    Isotropic =    31.2823   Anisotropy =     9.4462

     21  H    Isotropic =    31.3858   Anisotropy =     7.6358

     22  H    Isotropic =    31.5673   Anisotropy =     8.6862

     23  H    Isotropic =    32.0779   Anisotropy =    10.2410

     24  H    Isotropic =    31.4762   Anisotropy =     6.3439

     25  H    Isotropic =    32.0381   Anisotropy =    10.4098

     26  H    Isotropic =    31.4286   Anisotropy =     9.9183

     27  H    Isotropic =    31.3198   Anisotropy =     6.1331

     28  C    Isotropic =   181.0190   Anisotropy =     9.0287

     29  H    Isotropic =    31.5500   Anisotropy =     6.0855

     30  H    Isotropic =    31.4016   Anisotropy =     7.7338

     31  H    Isotropic =    32.0694   Anisotropy =    10.5886

     32  C    Isotropic =   180.7302   Anisotropy =    11.1432

     33  H    Isotropic =    31.4379   Anisotropy =     7.9950

     34  H    Isotropic =    31.2410   Anisotropy =     8.0219

     35  H    Isotropic =    31.9822   Anisotropy =    10.1148

     36  C    Isotropic =   181.5412   Anisotropy =     8.1538

     37  H    Isotropic =    31.9925   Anisotropy =     6.4157

     38  H    Isotropic =    32.4343   Anisotropy =     9.1216

     39  H    Isotropic =    32.2502   Anisotropy =    10.9788

     40  Si   Isotropic =   293.0335   Anisotropy =    25.0633

     41  Si   Isotropic =   293.0600   Anisotropy =    27.3698

     42  Si   Isotropic =   289.7729   Anisotropy =    24.8901

     43  C    Isotropic =   179.7907   Anisotropy =    10.5179

     44  H    Isotropic =    31.7593   Anisotropy =     5.8828

     45  H    Isotropic =    31.7187   Anisotropy =     6.7383

     46  H    Isotropic =    32.1871   Anisotropy =    10.3549

     47  C    Isotropic =   181.0943   Anisotropy =    10.0436

     48  H    Isotropic =    31.8905   Anisotropy =     6.7926

     49  H    Isotropic =    32.5169   Anisotropy =    10.9358

     50  H    Isotropic =    32.3749   Anisotropy =    11.3391

     51  C    Isotropic =   182.8371   Anisotropy =    10.0314

     52  H    Isotropic =    31.9597   Anisotropy =     7.7151

     53  H    Isotropic =    32.1660   Anisotropy =    11.4538

     54  H    Isotropic =    32.5609   Anisotropy =    10.3842

     55  Si   Isotropic =   294.2122   Anisotropy =    24.5110

     56  O    Isotropic =   206.0774   Anisotropy =   119.1246

     57  O    Isotropic =   178.6690   Anisotropy =    96.0980

     58  O    Isotropic =   194.7165   Anisotropy =   123.8365

     59  O    Isotropic =   210.1319   Anisotropy =    97.4246

     60  N    Isotropic =   209.4461   Anisotropy =    58.4289

     61  H    Isotropic =    31.8157   Anisotropy =    10.5463

     62  C    Isotropic =    35.4513   Anisotropy =   193.6035

     63  C    Isotropic =    27.5292   Anisotropy =   180.0893

     64  C    Isotropic =    43.2618   Anisotropy =   205.7335

     65  H    Isotropic =    22.5403   Anisotropy =    10.6045

     66  C    Isotropic =    57.3898   Anisotropy =   176.5144

     67  H    Isotropic =    24.0227   Anisotropy =     8.2048

     68  C    Isotropic =    31.9136   Anisotropy =   166.7427

     69  H    Isotropic =    24.6586   Anisotropy =     4.9412

     70  H    Isotropic =    23.1787   Anisotropy =     4.7463

     71  N    Isotropic =   -97.5532   Anisotropy =   586.1597

     72  Si   Isotropic =   311.0112   Anisotropy =    30.3175

     73  C    Isotropic =   182.3903   Anisotropy =    13.6837

     74  H    Isotropic =    31.7767   Anisotropy =     7.0345

     75  H    Isotropic =    31.9020   Anisotropy =    10.2004

     76  H    Isotropic =    31.5688   Anisotropy =     8.3253

     77  C    Isotropic =   179.1440   Anisotropy =     9.1581

     78  H    Isotropic =    31.6885   Anisotropy =     7.4552

     79  H    Isotropic =    31.9352   Anisotropy =     9.0821

     80  H    Isotropic =    31.0417   Anisotropy =     7.3959

     81  C    Isotropic =   176.2026   Anisotropy =     7.1509

     82  H    Isotropic =    31.8727   Anisotropy =     8.4548

     83  H    Isotropic =    31.6192   Anisotropy =     7.0599

     84  H    Isotropic =    31.1615   Anisotropy =     6.3420

 The electronic state is 1-A.
 Alpha  occ. eigenvalues --  -77.10022 -77.08905 -66.12288 -66.12161 -66.11995
 Alpha  occ. eigenvalues --  -66.11975 -66.09719 -19.11961 -19.11408 -19.11361
 Alpha  occ. eigenvalues --  -19.11231 -14.30588 -14.28229 -10.20706 -10.19841
 Alpha  occ. eigenvalues --  -10.19619 -10.18920 -10.18324 -10.17791 -10.15204
 Alpha  occ. eigenvalues --  -10.15197 -10.15162 -10.15093 -10.14973 -10.14967
 Alpha  occ. eigenvalues --  -10.14879 -10.14872 -10.14823 -10.14679 -10.14497
 Alpha  occ. eigenvalues --  -10.14174 -10.14107 -10.13809 -10.13703  -6.57450
 Alpha  occ. eigenvalues --   -6.56436  -5.27976  -5.27832  -5.27698  -5.27610
 Alpha  occ. eigenvalues --   -5.25529  -4.73757  -4.73577  -4.73048  -4.72777
 Alpha  occ. eigenvalues --   -4.72532  -4.72013  -3.64008  -3.63864  -3.63725
 Alpha  occ. eigenvalues --   -3.63687  -3.63668  -3.63667  -3.63542  -3.63531
 Alpha  occ. eigenvalues --   -3.63409  -3.63394  -3.63316  -3.63289  -3.61444
 Alpha  occ. eigenvalues --   -3.61325  -3.61242  -1.01123  -1.00684  -0.97036
 Alpha  occ. eigenvalues --   -0.96786  -0.93878  -0.87386  -0.80136  -0.76023
 Alpha  occ. eigenvalues --   -0.72420  -0.72174  -0.71790  -0.71585  -0.70862
 Alpha  occ. eigenvalues --   -0.68827  -0.68797  -0.68687  -0.68564  -0.68443
 Alpha  occ. eigenvalues --   -0.68332  -0.68148  -0.67959  -0.67937  -0.67380
 Alpha  occ. eigenvalues --   -0.67295  -0.62660  -0.62072  -0.60974  -0.57290
 Alpha  occ. eigenvalues --   -0.53532  -0.52820  -0.51788  -0.49966  -0.48084
 Alpha  occ. eigenvalues --   -0.46510  -0.45620  -0.44563  -0.44127  -0.43461
 Alpha  occ. eigenvalues --   -0.43261  -0.43079  -0.43048  -0.42821  -0.42575
 Alpha  occ. eigenvalues --   -0.42258  -0.42043  -0.41726  -0.41555  -0.41452
 Alpha  occ. eigenvalues --   -0.41400  -0.41289  -0.40904  -0.40836  -0.40654
 Alpha  occ. eigenvalues --   -0.40558  -0.40453  -0.40082  -0.40049  -0.39816
 Alpha  occ. eigenvalues --   -0.39739  -0.39636  -0.39500  -0.39345  -0.39218
 Alpha  occ. eigenvalues --   -0.39082  -0.39000  -0.38904  -0.38902  -0.38830
 Alpha  occ. eigenvalues --   -0.38723  -0.38508  -0.38480  -0.38297  -0.37963
 Alpha  occ. eigenvalues --   -0.37787  -0.37409  -0.37039  -0.36150  -0.35546
 Alpha  occ. eigenvalues --   -0.35160  -0.34660  -0.33962  -0.33745  -0.32081
 Alpha  occ. eigenvalues --   -0.30904  -0.30702  -0.30523  -0.30300  -0.30148
 Alpha  occ. eigenvalues --   -0.29732  -0.29523  -0.29248  -0.28988  -0.28614
 Alpha  occ. eigenvalues --   -0.27943  -0.25815  -0.25496  -0.23960  -0.20147
 Alpha  occ. eigenvalues --   -0.16030
 Alpha virt. eigenvalues --   -0.03024  -0.01873   0.00480   0.00935   0.01983
 Alpha virt. eigenvalues --    0.02919   0.03161   0.03346   0.04138   0.04856
 Alpha virt. eigenvalues --    0.04913   0.05520   0.05627   0.05909   0.06113

 Mulliken charges:
               1
     1  P    0.332363
     2  P    0.343428
     3  C    0.340670
     4  C   -0.485598
     5  C   -0.469632
     6  C   -0.457111
     7  C   -0.473289
     8  C   -0.474330
     9  C   -0.457153
    10  H    0.118482
    11  H    0.124595
    12  H    0.125271
    13  H    0.109502
    14  H    0.148125
    15  H    0.118368
    16  H    0.114783
    17  H    0.123809
    18  H    0.116285
    19  H    0.113492
    20  H    0.139418
    21  H    0.124093
    22  H    0.122250
    23  H    0.117448
    24  H    0.126532
    25  H    0.113736
    26  H    0.121865
    27  H    0.133352
    28  C   -0.449032
    29  H    0.124511
    30  H    0.131687
    31  H    0.118020
    32  C   -0.476829
    33  H    0.126469
    34  H    0.132315
    35  H    0.113957
    36  C   -0.483360
    37  H    0.129500
    38  H    0.145856
    39  H    0.120927
    40  Si   0.557657
    41  Si   0.552728
    42  Si   0.549378
    43  C   -0.478631
    44  H    0.114924
    45  H    0.127221
    46  H    0.116856
    47  C   -0.449788
    48  H    0.120196
    49  H    0.109408
    50  H    0.160961
    51  C   -0.455367
    52  H    0.117427
    53  H    0.144098
    54  H    0.109014
    55  Si   0.515130
    56  O   -0.355797
    57  O   -0.457547
    58  O   -0.403712
    59  O   -0.397608
    60  N   -0.474620
    61  H    0.191618
    62  C   -0.068717
    63  C   -0.187776
    64  C   -0.174873
    65  H    0.136286
    66  C   -0.143340
    67  H    0.131982
    68  C   -0.024082
    69  H    0.111104
    70  H    0.114320
    71  N   -0.209587
    72  Si   0.554340
    73  C   -0.500561
    74  H    0.116177
    75  H    0.114120
    76  H    0.123815
    77  C   -0.465778
    78  H    0.117152
    79  H    0.108683
    80  H    0.128198
    81  C   -0.483596
    82  H    0.110829
    83  H    0.105947
    84  H    0.127034
 Sum of Mulliken charges =  -0.00000

 Dipole moment (field-independent basis, Debye):
    X=             -0.5872    Y=             -1.8898    Z=             -0.5651  Tot=              2.0581
 Quadrupole moment (field-independent basis, Debye-Ang):
   XX=           -243.6204   YY=           -255.7933   ZZ=           -270.0318
   XY=             -2.6210   XZ=             -3.7183   YZ=             -6.8722

 Summary of Natural Population Analysis:

                                       Natural Population
                Natural  -----------------------------------------------
    Atom  No    Charge         Core      Valence    Rydberg      Total
 -----------------------------------------------------------------------
      P    1    1.37349      9.99853     3.52919    0.09879    13.62651
      P    2    1.40762      9.99848     3.49334    0.10056    13.59238
      C    3   -0.45067      1.99933     4.40093    0.05041     6.45067
      C    4   -1.12362      1.99942     5.10352    0.02068     7.12362
      C    5   -1.12193      1.99941     5.10214    0.02038     7.12193
      C    6   -1.12224      1.99941     5.10183    0.02099     7.12224
      C    7   -1.12716      1.99942     5.10703    0.02071     7.12716
      C    8   -1.12871      1.99942     5.10853    0.02076     7.12871
      C    9   -1.12813      1.99942     5.10783    0.02088     7.12813
      H   10    0.23044      0.00000     0.76871    0.00085     0.76956
      H   11    0.23647      0.00000     0.76259    0.00094     0.76353
      H   12    0.23001      0.00000     0.76898    0.00101     0.76999
      H   13    0.22760      0.00000     0.77157    0.00083     0.77240
      H   14    0.24249      0.00000     0.75644    0.00108     0.75751
      H   15    0.23566      0.00000     0.76348    0.00086     0.76434
      H   16    0.22798      0.00000     0.77117    0.00085     0.77202
      H   17    0.23477      0.00000     0.76419    0.00104     0.76523
      H   18    0.22901      0.00000     0.76994    0.00105     0.77099
      H   19    0.22761      0.00000     0.77166    0.00073     0.77239
      H   20    0.23973      0.00000     0.75940    0.00086     0.76027
      H   21    0.23751      0.00000     0.76162    0.00087     0.76249
      H   22    0.23464      0.00000     0.76437    0.00099     0.76536
      H   23    0.22949      0.00000     0.76979    0.00072     0.77051
      H   24    0.23934      0.00000     0.75977    0.00088     0.76066
      H   25    0.22832      0.00000     0.77095    0.00074     0.77168
      H   26    0.23414      0.00000     0.76490    0.00097     0.76586
      H   27    0.24269      0.00000     0.75641    0.00091     0.75731
      C   28   -1.12574      1.99942     5.10558    0.02074     7.12574
      H   29    0.23670      0.00000     0.76235    0.00095     0.76330
      H   30    0.23846      0.00000     0.76061    0.00093     0.76154
      H   31    0.23024      0.00000     0.76900    0.00076     0.76976
      C   32   -1.12505      1.99942     5.10504    0.02059     7.12505
      H   33    0.23578      0.00000     0.76331    0.00090     0.76422
      H   34    0.23812      0.00000     0.76093    0.00095     0.76188
      H   35    0.22924      0.00000     0.77004    0.00072     0.77076
      C   36   -1.13333      1.99941     5.11301    0.02091     7.13333
      H   37    0.23374      0.00000     0.76506    0.00120     0.76626
      H   38    0.23878      0.00000     0.76016    0.00106     0.76122
      H   39    0.23247      0.00000     0.76665    0.00088     0.76753
     Si   40    1.91911      9.99793     2.05149    0.03147    12.08089
     Si   41    1.90152      9.99792     2.06306    0.03750    12.09848
     Si   42    1.91921      9.99797     2.05071    0.03211    12.08079
      C   43   -1.12308      1.99943     5.10338    0.02027     7.12308
      H   44    0.23038      0.00000     0.76858    0.00105     0.76962
      H   45    0.23505      0.00000     0.76403    0.00092     0.76495
      H   46    0.22969      0.00000     0.76949    0.00082     0.77031
      C   47   -1.12950      1.99941     5.10912    0.02097     7.12950
      H   48    0.23542      0.00000     0.76356    0.00102     0.76458
      H   49    0.22762      0.00000     0.77155    0.00083     0.77238
      H   50    0.24827      0.00000     0.75053    0.00119     0.75173
      C   51   -1.12233      1.99942     5.10272    0.02019     7.12233
      H   52    0.23339      0.00000     0.76573    0.00088     0.76661
      H   53    0.24075      0.00000     0.75818    0.00107     0.75925
      H   54    0.22737      0.00000     0.77184    0.00079     0.77263
     Si   55    1.92127      9.99781     2.04953    0.03139    12.07873
      O   56   -1.18576      1.99973     7.17424    0.01180     9.18576
      O   57   -1.16502      1.99977     7.15263    0.01263     9.16502
      O   58   -1.16277      1.99975     7.14976    0.01326     9.16277
      O   59   -1.16890      1.99975     7.15671    0.01244     9.16890
      N   60   -1.05840      1.99946     6.02785    0.03109     8.05840
      H   61    0.38056      0.00000     0.61614    0.00330     0.61944
      C   62   -0.08266      1.99895     4.05623    0.02748     6.08266
      C   63    0.01482      1.99910     3.96141    0.02467     5.98518
      C   64   -0.18956      1.99907     4.17022    0.02027     6.18956
      H   65    0.19511      0.00000     0.80253    0.00236     0.80489
      C   66   -0.25271      1.99915     4.23345    0.02012     6.25271
      H   67    0.22815      0.00000     0.77031    0.00155     0.77185
      C   68    0.00886      1.99923     3.96599    0.02592     5.99114
      H   69    0.21454      0.00000     0.78418    0.00128     0.78546
      H   70    0.18685      0.00000     0.81174    0.00141     0.81315
      N   71   -0.41661      1.99948     5.38409    0.03304     7.41661
     Si   72    1.82906      9.99787     2.13717    0.03589    12.17094
      C   73   -1.10881      1.99944     5.08992    0.01945     7.10881
      H   74    0.22575      0.00000     0.77324    0.00101     0.77425
      H   75    0.22880      0.00000     0.77040    0.00079     0.77120
      H   76    0.22856      0.00000     0.77057    0.00087     0.77144
      C   77   -1.11633      1.99942     5.09576    0.02115     7.11633
      H   78    0.22792      0.00000     0.77104    0.00104     0.77208
      H   79    0.22370      0.00000     0.77544    0.00086     0.77630
      H   80    0.23818      0.00000     0.76031    0.00151     0.76182
      C   81   -1.11468      1.99942     5.09339    0.02188     7.11468
      H   82    0.22163      0.00000     0.77745    0.00092     0.77837
      H   83    0.22465      0.00000     0.77420    0.00115     0.77535
      H   84    0.23494      0.00000     0.76388    0.00118     0.76506
 =======================================================================
   * Total *    0.00000    123.97056   197.01577    1.01368   322.00000

 Normal termination of Gaussian 16 at Thu Jan 23 16:06:32 2025.
