 Gaussian 16, Revision B.01,
 Gaussian 16:  ES64L-G16RevB.01 20-Dec-2017

 --------------------------------------------
 # nmr=giao b3lyp/def2TZVP pop=nbo scfcyc=200
 --------------------------------------------

 --------------
 DS-54 SPE NoRh
 --------------
 Symbolic Z-matrix:
 Charge =  0 Multiplicity = 1

                         Standard orientation:
 ---------------------------------------------------------------------
 Center     Atomic      Atomic             Coordinates (Angstroms)
 Number     Number       Type             X           Y           Z
 ---------------------------------------------------------------------
      1         15           0       -1.435702   -0.086132   -1.162776
      2         15           0        1.309615   -0.210406   -1.044428
      3          6           0       -0.103734    0.481751    0.143967
      4          6           0       -5.544189    1.067045   -1.242277
      5          6           0       -3.765552    3.578862   -0.914791
      6          6           0       -4.306585   -2.579022    0.789562
      7          6           0       -3.956567   -2.703492   -2.303682
      8          6           0        3.850800   -2.689805   -2.108131
      9          6           0        1.807084   -4.503129   -0.683506
     10          1           0       -6.423189    1.613141   -0.888337
     11          1           0       -5.516323    1.160608   -2.330192
     12          1           0       -5.692286    0.013773   -0.995059
     13          1           0       -4.594901    4.171443   -0.518109
     14          1           0       -2.837719    3.983767   -0.508309
     15          1           0       -3.751236    3.713948   -1.998435
     16          1           0       -4.963580   -3.450407    0.833336
     17          1           0       -3.783215   -2.509774    1.744732
     18          1           0       -4.937780   -1.695681    0.683611
     19          1           0       -4.728862   -3.475431   -2.348296
     20          1           0       -4.442233   -1.742649   -2.486684
     21          1           0       -3.256646   -2.898100   -3.119564
     22          1           0        4.255068   -1.680308   -2.193176
     23          1           0        4.699751   -3.379054   -2.078412
     24          1           0        3.284941   -2.919546   -3.012177
     25          1           0        2.475727   -5.360522   -0.795971
     26          1           0        1.192576   -4.676623    0.200960
     27          1           0        1.149012   -4.478091   -1.554234
     28          6           0        3.914915   -2.933158    0.974023
     29          1           0        4.504816   -2.018784    1.051930
     30          1           0        3.336182   -3.044664    1.891226
     31          1           0        4.612965   -3.772048    0.917307
     32          6           0       -2.073433   -4.325745   -0.454555
     33          1           0       -1.354551   -4.429214   -1.268661
     34          1           0       -1.523950   -4.336808    0.487881
     35          1           0       -2.725712   -5.202290   -0.471594
     36          6           0       -3.945616    1.495803    1.397694
     37          1           0       -3.984750    0.435877    1.651888
     38          1           0       -3.044449    1.919515    1.841112
     39          1           0       -4.807811    1.983087    1.862776
     40         14           0       -3.091802   -2.761751   -0.632813
     41         14           0       -3.987735    1.773655   -0.459085
     42         14           0        2.818125   -2.928815   -0.550840
     43          6           0        5.515714    0.815740   -0.753767
     44          1           0        5.548203    0.163888    0.121020
     45          1           0        5.656936    0.202759   -1.645121
     46          1           0        6.368143    1.496191   -0.686293
     47          6           0        3.714555    2.859101    0.717942
     48          1           0        3.775652    2.254143    1.623510
     49          1           0        4.517529    3.600584    0.761469
     50          1           0        2.764112    3.393450    0.724199
     51          6           0        3.847680    2.846253   -2.387882
     52          1           0        4.040068    2.249631   -3.281573
     53          1           0        2.883415    3.344714   -2.499413
     54          1           0        4.617018    3.623077   -2.345589
     55         14           0        3.919749    1.807866   -0.819637
     56          8           0        2.644480    0.663396   -0.875916
     57          8           0        1.694361   -1.628011   -0.368061
     58          8           0       -1.995522   -1.445122   -0.518201
     59          8           0       -2.670196    0.937498   -1.197317
     60          6           0       -0.044504    2.009017    0.207911
     61          6           0       -0.209093    2.656945    1.434781
     62          6           0        0.142531    2.805143   -0.931187
     63          1           0       -0.378839    2.073415    2.325906
     64          6           0        0.178371    4.190120   -0.840487
     65          1           0        0.251980    2.339301   -1.904503
     66          6           0        0.024616    4.820245    0.391546
     67          1           0        0.322183    4.781635   -1.736044
     68          1           0        0.054186    5.900196    0.461786
     69         14           0        0.385873   -0.706489    2.790905
     70          6           0       -0.667819   -0.034054    4.201526
     71          1           0       -1.728526   -0.221758    4.022520
     72          1           0       -0.396513   -0.535015    5.135207
     73          1           0       -0.535002    1.037645    4.358057
     74          6           0        2.168732   -0.125411    2.967157
     75          1           0        2.214467    0.960251    3.065003
     76          1           0        2.612630   -0.558294    3.866399
     77          1           0        2.782461   -0.420729    2.116369
     78          6           0        0.227142   -2.581059    2.763899
     79          1           0        0.688950   -3.018863    3.652367
     80          1           0       -0.824970   -2.871201    2.761161
     81          1           0        0.698321   -3.012350    1.881843
     82          6           0       -0.172213    4.045040    1.527270
     83          1           0       -0.298616    4.518502    2.492129
     84          8           0       -0.313158   -0.095004    1.366570
 ---------------------------------------------------------------------

 SCF Done:  E(RB3LYP) =  -3375.92662651     A.U. after   15 cycles

      1  P    Isotropic =   106.6343   Anisotropy =   225.1174

      2  P    Isotropic =    89.2893   Anisotropy =   238.8781

      3  C    Isotropic =    78.9408   Anisotropy =    13.5504

      4  C    Isotropic =   181.3540   Anisotropy =    11.4469

      5  C    Isotropic =   183.6368   Anisotropy =     9.0293

      6  C    Isotropic =   180.9119   Anisotropy =     8.7223

      7  C    Isotropic =   182.8270   Anisotropy =    10.0995

      8  C    Isotropic =   182.7900   Anisotropy =    10.2987

      9  C    Isotropic =   179.9131   Anisotropy =    11.1389

     10  H    Isotropic =    32.1764   Anisotropy =    10.4433

     11  H    Isotropic =    31.6857   Anisotropy =     7.7631

     12  H    Isotropic =    31.6853   Anisotropy =     7.7804

     13  H    Isotropic =    32.7443   Anisotropy =    10.6165

     14  H    Isotropic =    33.1190   Anisotropy =    14.3259

     15  H    Isotropic =    32.2588   Anisotropy =     7.7607

     16  H    Isotropic =    32.0019   Anisotropy =    10.5471

     17  H    Isotropic =    31.4649   Anisotropy =     6.4514

     18  H    Isotropic =    31.5081   Anisotropy =     7.6362

     19  H    Isotropic =    32.0549   Anisotropy =    10.1528

     20  H    Isotropic =    31.3711   Anisotropy =     8.4772

     21  H    Isotropic =    31.3985   Anisotropy =     7.7107

     22  H    Isotropic =    31.2488   Anisotropy =     9.6307

     23  H    Isotropic =    32.0506   Anisotropy =     9.7402

     24  H    Isotropic =    31.4453   Anisotropy =     8.0017

     25  H    Isotropic =    31.9512   Anisotropy =    10.0883

     26  H    Isotropic =    31.3687   Anisotropy =     7.0824

     27  H    Isotropic =    31.5044   Anisotropy =     7.2602

     28  C    Isotropic =   179.8317   Anisotropy =     7.3651

     29  H    Isotropic =    31.5733   Anisotropy =     6.6832

     30  H    Isotropic =    31.4978   Anisotropy =     6.9478

     31  H    Isotropic =    32.0410   Anisotropy =    10.6688

     32  C    Isotropic =   180.5259   Anisotropy =    11.7443

     33  H    Isotropic =    31.5532   Anisotropy =     8.1230

     34  H    Isotropic =    31.4577   Anisotropy =     7.7098

     35  H    Isotropic =    32.0046   Anisotropy =    10.0077

     36  C    Isotropic =   181.2945   Anisotropy =     7.6235

     37  H    Isotropic =    31.7613   Anisotropy =     7.3574

     38  H    Isotropic =    31.8827   Anisotropy =     9.9337

     39  H    Isotropic =    32.2917   Anisotropy =    10.5809

     40  Si   Isotropic =   294.4820   Anisotropy =    23.8956

     41  Si   Isotropic =   293.2327   Anisotropy =    21.9707

     42  Si   Isotropic =   291.9983   Anisotropy =    27.3954

     43  C    Isotropic =   180.5124   Anisotropy =    11.5707

     44  H    Isotropic =    31.7756   Anisotropy =     6.5232

     45  H    Isotropic =    31.6137   Anisotropy =     7.0763

     46  H    Isotropic =    32.1375   Anisotropy =    10.5088

     47  C    Isotropic =   183.1326   Anisotropy =     7.9047

     48  H    Isotropic =    32.3568   Anisotropy =     6.3553

     49  H    Isotropic =    32.7731   Anisotropy =    11.0325

     50  H    Isotropic =    33.4695   Anisotropy =    14.6498

     51  C    Isotropic =   182.8721   Anisotropy =    10.4081

     52  H    Isotropic =    31.6676   Anisotropy =     8.0347

     53  H    Isotropic =    31.3791   Anisotropy =     8.4083

     54  H    Isotropic =    32.2969   Anisotropy =    10.2467

     55  Si   Isotropic =   296.4921   Anisotropy =    24.9081

     56  O    Isotropic =   207.9461   Anisotropy =   112.1734

     57  O    Isotropic =   191.9165   Anisotropy =   110.9691

     58  O    Isotropic =   193.4439   Anisotropy =   110.8662

     59  O    Isotropic =   207.4067   Anisotropy =   102.4228

     60  C    Isotropic =    31.1031   Anisotropy =   191.2595

     61  C    Isotropic =    54.3905   Anisotropy =   187.6900

     62  C    Isotropic =    51.5299   Anisotropy =   187.0047

     63  H    Isotropic =    24.1688   Anisotropy =     8.6509

     64  C    Isotropic =    50.9601   Anisotropy =   186.0235

     65  H    Isotropic =    24.3089   Anisotropy =     7.0894

     66  C    Isotropic =    55.8210   Anisotropy =   178.6731

     67  H    Isotropic =    24.3834   Anisotropy =     4.3170

     68  H    Isotropic =    24.6356   Anisotropy =     2.7443

     69  Si   Isotropic =   297.6819   Anisotropy =    42.6405

     70  C    Isotropic =   180.8529   Anisotropy =    13.0691

     71  H    Isotropic =    31.3376   Anisotropy =     6.6955

     72  H    Isotropic =    31.8520   Anisotropy =    10.1407

     73  H    Isotropic =    31.2761   Anisotropy =     7.7138

     74  C    Isotropic =   180.7328   Anisotropy =     6.3517

     75  H    Isotropic =    31.7873   Anisotropy =     6.4555

     76  H    Isotropic =    32.0114   Anisotropy =     9.6837

     77  H    Isotropic =    31.4527   Anisotropy =     8.4994

     78  C    Isotropic =   179.6732   Anisotropy =    11.0504

     79  H    Isotropic =    31.9602   Anisotropy =     9.4429

     80  H    Isotropic =    31.3622   Anisotropy =     6.9009

     81  H    Isotropic =    31.1227   Anisotropy =     9.4981

     82  C    Isotropic =    50.4890   Anisotropy =   184.2063

     83  H    Isotropic =    24.3179   Anisotropy =     5.7571

     84  O    Isotropic =   267.2899   Anisotropy =    71.5890

 The electronic state is 1-A.
 Alpha  occ. eigenvalues --  -77.09332 -77.08560 -66.12165 -66.11840 -66.11818
 Alpha  occ. eigenvalues --  -66.11223 -66.11211 -19.11568 -19.10958 -19.10944
 Alpha  occ. eigenvalues --  -19.10740 -19.10622 -10.22158 -10.18050 -10.16986
 Alpha  occ. eigenvalues --  -10.16961 -10.16667 -10.16659 -10.16465 -10.15087
 Alpha  occ. eigenvalues --  -10.14985 -10.14885 -10.14871 -10.14837 -10.14671
 Alpha  occ. eigenvalues --  -10.14617 -10.14605 -10.14501 -10.14369 -10.14263
 Alpha  occ. eigenvalues --  -10.14250 -10.14199 -10.14113 -10.13930  -6.56793
 Alpha  occ. eigenvalues --   -6.56082  -5.27841  -5.27506  -5.27455  -5.26936
 Alpha  occ. eigenvalues --   -5.26865  -4.73118  -4.72906  -4.72412  -4.72377
 Alpha  occ. eigenvalues --   -4.72188  -4.71665  -3.63868  -3.63554  -3.63539
 Alpha  occ. eigenvalues --   -3.63539  -3.63505  -3.63212  -3.63209  -3.63167
 Alpha  occ. eigenvalues --   -3.63140  -3.62968  -3.62877  -3.62645  -3.62628
 Alpha  occ. eigenvalues --   -3.62595  -3.62572  -1.01217  -1.00439  -0.99582
 Alpha  occ. eigenvalues --   -0.96645  -0.96353  -0.85274  -0.75988  -0.74196
 Alpha  occ. eigenvalues --   -0.72213  -0.71841  -0.71511  -0.71396  -0.71162
 Alpha  occ. eigenvalues --   -0.68724  -0.68493  -0.68372  -0.68226  -0.68146
 Alpha  occ. eigenvalues --   -0.68031  -0.67969  -0.67836  -0.67785  -0.67641
 Alpha  occ. eigenvalues --   -0.67487  -0.61165  -0.60593  -0.59922  -0.57462
 Alpha  occ. eigenvalues --   -0.53269  -0.52743  -0.52226  -0.49873  -0.46162
 Alpha  occ. eigenvalues --   -0.44872  -0.44554  -0.44013  -0.43575  -0.43066
 Alpha  occ. eigenvalues --   -0.43054  -0.42919  -0.42611  -0.42320  -0.42257
 Alpha  occ. eigenvalues --   -0.42080  -0.41973  -0.41766  -0.41462  -0.41216
 Alpha  occ. eigenvalues --   -0.41054  -0.40958  -0.40930  -0.40744  -0.40537
 Alpha  occ. eigenvalues --   -0.40503  -0.40117  -0.40032  -0.39841  -0.39590
 Alpha  occ. eigenvalues --   -0.39446  -0.39346  -0.39256  -0.39204  -0.39153
 Alpha  occ. eigenvalues --   -0.39051  -0.38963  -0.38880  -0.38810  -0.38621
 Alpha  occ. eigenvalues --   -0.38522  -0.38332  -0.38201  -0.38121  -0.37804
 Alpha  occ. eigenvalues --   -0.37420  -0.36426  -0.36112  -0.35308  -0.35194
 Alpha  occ. eigenvalues --   -0.34793  -0.34333  -0.33937  -0.33749  -0.33328
 Alpha  occ. eigenvalues --   -0.32337  -0.30881  -0.30584  -0.30225  -0.30188
 Alpha  occ. eigenvalues --   -0.29846  -0.29332  -0.29272  -0.28894  -0.28311
 Alpha  occ. eigenvalues --   -0.27628  -0.26771  -0.25238  -0.24223  -0.20110
 Alpha  occ. eigenvalues --   -0.15739
 Alpha virt. eigenvalues --   -0.01055  -0.00885   0.00576   0.01065   0.02150
 Alpha virt. eigenvalues --    0.03099   0.03154   0.03536   0.04334   0.04721
 Alpha virt. eigenvalues --    0.05264   0.05684   0.05835   0.05981   0.06129

 Mulliken charges:
               1
     1  P    0.346082
     2  P    0.342718
     3  C    0.368762
     4  C   -0.479701
     5  C   -0.472443
     6  C   -0.465571
     7  C   -0.468942
     8  C   -0.476341
     9  C   -0.458028
    10  H    0.114145
    11  H    0.123028
    12  H    0.117078
    13  H    0.104937
    14  H    0.160193
    15  H    0.115041
    16  H    0.115717
    17  H    0.122778
    18  H    0.121139
    19  H    0.113392
    20  H    0.136888
    21  H    0.125506
    22  H    0.125392
    23  H    0.113445
    24  H    0.125682
    25  H    0.113107
    26  H    0.129132
    27  H    0.117247
    28  C   -0.467297
    29  H    0.123534
    30  H    0.135169
    31  H    0.118167
    32  C   -0.447919
    33  H    0.117067
    34  H    0.122332
    35  H    0.110448
    36  C   -0.466214
    37  H    0.130055
    38  H    0.141282
    39  H    0.110371
    40  Si   0.541265
    41  Si   0.562417
    42  Si   0.565306
    43  C   -0.488147
    44  H    0.116005
    45  H    0.120432
    46  H    0.116827
    47  C   -0.457755
    48  H    0.117384
    49  H    0.108899
    50  H    0.171029
    51  C   -0.456634
    52  H    0.119194
    53  H    0.129329
    54  H    0.108990
    55  Si   0.543946
    56  O   -0.361353
    57  O   -0.429749
    58  O   -0.394753
    59  O   -0.394477
    60  C   -0.059984
    61  C   -0.189188
    62  C   -0.234345
    63  H    0.135253
    64  C   -0.098480
    65  H    0.129938
    66  C   -0.138394
    67  H    0.105175
    68  H    0.101928
    69  Si   0.508585
    70  C   -0.472510
    71  H    0.123705
    72  H    0.112497
    73  H    0.117211
    74  C   -0.460972
    75  H    0.124547
    76  H    0.114436
    77  H    0.132739
    78  C   -0.457482
    79  H    0.109647
    80  H    0.113791
    81  H    0.109921
    82  C   -0.106192
    83  H    0.097961
    84  O   -0.415318
 Sum of Mulliken charges =  -0.00000

 Dipole moment (field-independent basis, Debye):
    X=              0.6424    Y=             -1.0536    Z=              1.5715  Tot=              1.9981
 Quadrupole moment (field-independent basis, Debye-Ang):
   XX=           -246.6286   YY=           -248.7569   ZZ=           -264.6539
   XY=              0.4080   XZ=             -1.7860   YZ=              0.2633

 Summary of Natural Population Analysis:

                                       Natural Population
                Natural  -----------------------------------------------
    Atom  No    Charge         Core      Valence    Rydberg      Total
 -----------------------------------------------------------------------
      P    1    1.38500      9.99855     3.51552    0.10093    13.61500
      P    2    1.36983      9.99855     3.53305    0.09857    13.63017
      C    3   -0.29255      1.99927     4.23952    0.05376     6.29255
      C    4   -1.12069      1.99942     5.10087    0.02039     7.12069
      C    5   -1.12140      1.99941     5.10155    0.02045     7.12140
      C    6   -1.12188      1.99942     5.10171    0.02074     7.12188
      C    7   -1.12582      1.99942     5.10574    0.02066     7.12582
      C    8   -1.12646      1.99942     5.10649    0.02055     7.12646
      C    9   -1.12243      1.99942     5.10250    0.02052     7.12243
      H   10    0.22809      0.00000     0.77107    0.00084     0.77191
      H   11    0.23640      0.00000     0.76270    0.00091     0.76360
      H   12    0.22772      0.00000     0.77120    0.00108     0.77228
      H   13    0.22483      0.00000     0.77435    0.00082     0.77517
      H   14    0.24668      0.00000     0.75228    0.00104     0.75332
      H   15    0.23494      0.00000     0.76419    0.00087     0.76506
      H   16    0.22760      0.00000     0.77158    0.00082     0.77240
      H   17    0.23508      0.00000     0.76398    0.00095     0.76492
      H   18    0.23022      0.00000     0.76875    0.00103     0.76978
      H   19    0.22725      0.00000     0.77203    0.00072     0.77275
      H   20    0.23860      0.00000     0.76055    0.00085     0.76140
      H   21    0.23755      0.00000     0.76159    0.00086     0.76245
      H   22    0.23801      0.00000     0.76099    0.00100     0.76199
      H   23    0.22836      0.00000     0.77090    0.00073     0.77164
      H   24    0.23653      0.00000     0.76263    0.00084     0.76347
      H   25    0.22904      0.00000     0.77023    0.00073     0.77096
      H   26    0.23502      0.00000     0.76394    0.00104     0.76498
      H   27    0.23601      0.00000     0.76301    0.00098     0.76399
      C   28   -1.12591      1.99942     5.10555    0.02093     7.12591
      H   29    0.23323      0.00000     0.76560    0.00118     0.76677
      H   30    0.23582      0.00000     0.76336    0.00082     0.76418
      H   31    0.22925      0.00000     0.76994    0.00081     0.77075
      C   32   -1.11974      1.99942     5.09996    0.02036     7.11974
      H   33    0.23529      0.00000     0.76373    0.00099     0.76471
      H   34    0.23596      0.00000     0.76305    0.00100     0.76404
      H   35    0.22704      0.00000     0.77223    0.00073     0.77296
      C   36   -1.12787      1.99941     5.10745    0.02101     7.12787
      H   37    0.23562      0.00000     0.76337    0.00102     0.76438
      H   38    0.24253      0.00000     0.75631    0.00116     0.75747
      H   39    0.22665      0.00000     0.77246    0.00088     0.77335
     Si   40    1.91761      9.99793     2.05310    0.03136    12.08239
     Si   41    1.89934      9.99794     2.06539    0.03732    12.10066
     Si   42    1.91850      9.99795     2.05187    0.03169    12.08150
      C   43   -1.12112      1.99942     5.10161    0.02009     7.12112
      H   44    0.22991      0.00000     0.76900    0.00109     0.77009
      H   45    0.23062      0.00000     0.76838    0.00101     0.76938
      H   46    0.22929      0.00000     0.76996    0.00075     0.77071
      C   47   -1.12914      1.99941     5.10854    0.02120     7.12914
      H   48    0.23340      0.00000     0.76566    0.00094     0.76660
      H   49    0.22616      0.00000     0.77308    0.00076     0.77384
      H   50    0.24925      0.00000     0.74971    0.00103     0.75075
      C   51   -1.12135      1.99942     5.10188    0.02006     7.12135
      H   52    0.23344      0.00000     0.76578    0.00078     0.76656
      H   53    0.23764      0.00000     0.76131    0.00105     0.76236
      H   54    0.22683      0.00000     0.77244    0.00073     0.77317
     Si   55    1.92540      9.99784     2.04656    0.03020    12.07460
      O   56   -1.18913      1.99973     7.17805    0.01135     9.18913
      O   57   -1.16382      1.99976     7.15096    0.01310     9.16382
      O   58   -1.16337      1.99974     7.15043    0.01319     9.16337
      O   59   -1.15973      1.99975     7.14732    0.01266     9.15973
      C   60   -0.05655      1.99897     4.03169    0.02588     6.05655
      C   61   -0.22327      1.99907     4.20396    0.02025     6.22327
      C   62   -0.22879      1.99907     4.21017    0.01955     6.22879
      H   63    0.21316      0.00000     0.78473    0.00211     0.78684
      C   64   -0.20612      1.99919     4.18770    0.01922     6.20612
      H   65    0.22090      0.00000     0.77740    0.00171     0.77910
      C   66   -0.23332      1.99918     4.21392    0.02022     6.23332
      H   67    0.20812      0.00000     0.79061    0.00128     0.79188
      H   68    0.20773      0.00000     0.79105    0.00121     0.79227
     Si   69    1.92171      9.99766     2.04160    0.03903    12.07829
      C   70   -1.12370      1.99942     5.10300    0.02128     7.12370
      H   71    0.23532      0.00000     0.76373    0.00095     0.76468
      H   72    0.22704      0.00000     0.77212    0.00083     0.77296
      H   73    0.22655      0.00000     0.77257    0.00088     0.77345
      C   74   -1.13558      1.99941     5.11406    0.02211     7.13558
      H   75    0.23381      0.00000     0.76512    0.00107     0.76619
      H   76    0.22759      0.00000     0.77159    0.00082     0.77241
      H   77    0.23875      0.00000     0.75974    0.00151     0.76125
      C   78   -1.12393      1.99941     5.10239    0.02213     7.12393
      H   79    0.22385      0.00000     0.77531    0.00085     0.77615
      H   80    0.23056      0.00000     0.76830    0.00114     0.76944
      H   81    0.23457      0.00000     0.76419    0.00124     0.76543
      C   82   -0.20393      1.99918     4.18607    0.01868     6.20393
      H   83    0.20569      0.00000     0.79302    0.00129     0.79431
      O   84   -0.87925      1.99969     6.85915    0.02041     8.87925
 =======================================================================
   * Total *   -0.00000    123.97027   197.05014    0.97959   322.00000

 Normal termination of Gaussian 16 at Thu Jan 23 14:59:16 2025.
