 Gaussian 16, Revision B.01,
 Gaussian 16:  ES64L-G16RevB.01 20-Dec-2017

 --------------------------------------------
 # nmr=giao b3lyp/def2TZVP pop=nbo scfcyc=200
 --------------------------------------------

 --------------
 DS-63 SPE NoRh
 --------------
 Symbolic Z-matrix:
 Charge =  0 Multiplicity = 1

                         Standard orientation:
 ---------------------------------------------------------------------
 Center     Atomic      Atomic             Coordinates (Angstroms)
 Number     Number       Type             X           Y           Z
 ---------------------------------------------------------------------
      1         15           0        1.136080    0.853224   -2.117395
      2         15           0       -1.135916   -0.852461   -2.117814
      3          8           0       -0.614607    0.983189    0.008560
      4          8           0       -2.124452   -0.365603    1.384240
      5          8           0       -1.895273    1.884804    1.792682
      6          6           0        2.878568    0.283880   -1.934434
      7          6           0       -1.092839   -2.650154   -1.752158
      8          6           0        1.092974    2.650777   -1.751051
      9          6           0       -3.148459    1.090060   -2.002522
     10          1           0       -2.338077    1.805692   -2.058352
     11          6           0        0.000027    0.000117   -0.740605
     12          6           0       -4.460217    1.548350   -2.002486
     13          1           0       -4.655858    2.611707   -2.047290
     14          6           0        3.148614   -1.089341   -2.002687
     15          1           0        2.338237   -1.804952   -2.057857
     16          6           0       -5.518815    0.643594   -1.953703
     17          1           0       -6.540720    1.001508   -1.964675
     18          6           0        3.945127    1.185526   -1.889218
     19          1           0        3.760505    2.250738   -1.852021
     20          6           0       -2.878418   -0.283187   -1.934775
     21          6           0        1.516594    4.511690   -0.273676
     22          1           0        1.898033    4.894098    0.665413
     23          5           0       -1.526681    0.813589    1.037490
     24          6           0        1.587778    3.150821   -0.539935
     25          1           0        2.004926    2.475781    0.194952
     26          6           0       -0.506940   -3.524852   -2.670302
     27          1           0       -0.096405   -3.140424   -3.594212
     28          6           0       -4.289339    1.979628    1.959604
     29          1           0       -4.215729    3.062865    1.856815
     30          1           0       -5.174072    1.751790    2.555524
     31          1           0       -4.422246    1.555338    0.964517
     32          6           0       -4.208499   -0.869612    2.517059
     33          1           0       -4.758413   -0.604024    1.617088
     34          1           0       -4.836130   -0.659464    3.385074
     35          1           0       -4.018983   -1.943886    2.496860
     36          6           0        0.438987    4.888660   -2.394647
     37          1           0       -0.013205    5.560104   -3.113536
     38          6           0       -2.888681   -0.118934    2.617256
     39          6           0       -3.944981   -1.184850   -1.889991
     40          1           0       -3.760350   -2.249077   -1.852188
     41          6           0        0.947722    5.382545   -1.199532
     42          1           0        0.895037    6.442189   -0.985330
     43          6           0        5.518966   -0.642894   -1.953506
     44          1           0        6.540860   -1.001804   -1.964534
     45          6           0        4.460372   -1.547631   -2.002723
     46          1           0        4.656017   -2.610971   -2.046919
     47          6           0        5.257815    0.721226   -1.899254
     48          1           0        6.075123    1.430760   -1.869085
     49          6           0       -2.854854    2.105556    4.001685
     50          1           0       -1.891520    1.872248    4.449679
     51          1           0       -3.644749    1.777592    4.679591
     52          1           0       -2.927246    3.189491    3.901891
     53          6           0        0.507149    3.525828   -2.668906
     54          1           0        0.096676    3.140755   -3.592997
     55          6           0       -5.257668   -0.720546   -1.899955
     56          1           0       -6.074979   -1.430092   -1.870124
     57          6           0       -0.947631   -5.382134   -1.201677
     58          1           0       -0.894963   -6.441860   -0.986879
     59          6           0       -1.586741   -3.150676   -0.541274
     60          1           0       -2.004948   -2.475907    0.193839
     61          6           0       -2.054171   -0.677901    3.768183
     62          1           0       -1.852427   -1.733284    3.583988
     63          1           0       -2.581219   -0.589947    4.718178
     64          1           0       -1.099097   -0.160994    3.857320
     65          6           0       -3.017292    1.462666    2.631555
     66          6           0       -0.438801   -4.887790   -2.396562
     67          1           0        0.013438   -5.559958   -3.115673
     68          6           0       -1.516578   -4.511636   -0.274533
     69          1           0       -1.897081   -4.893416    0.663379
     70          8           0        0.614600   -0.983243    0.008231
     71          5           0        1.526591   -0.814039    1.037300
     72          8           0        2.124346    0.366020    1.384551
     73          8           0        1.894123   -1.885532    1.792109
     74          6           0        2.888464    0.117877    2.617534
     75          6           0        3.017074   -1.463729    2.631236
     76          6           0        4.209291    0.868582    2.516732
     77          6           0        2.053862    0.676402    3.767608
     78          6           0        4.288175   -1.980421    1.959187
     79          6           0        2.854526   -2.107145    4.001105
     80          1           0        4.759265    0.602340    1.616703
     81          1           0        4.836852    0.658100    3.384717
     82          1           0        4.019775    1.942863    2.496931
     83          1           0        1.853144    1.732844    3.583803
     84          1           0        2.581834    0.588071    4.718612
     85          1           0        1.098792    0.160460    3.857471
     86          1           0        4.214573   -3.063618    1.856976
     87          1           0        5.173848   -1.753823    2.555267
     88          1           0        4.421150   -1.556747    0.964274
     89          1           0        1.891168   -1.873009    4.450112
     90          1           0        3.644378   -1.778442    4.680200
     91          1           0        2.925938   -3.190030    3.901900
 ---------------------------------------------------------------------

 SCF Done:  E(RB3LYP) =  -2621.23350954     A.U. after   14 cycles

      1  P    Isotropic =   181.3839   Anisotropy =   162.4777

      2  P    Isotropic =   181.3989   Anisotropy =   162.4564

      3  O    Isotropic =   189.4641   Anisotropy =   114.9321

      4  O    Isotropic =   161.9861   Anisotropy =    54.4699

      5  O    Isotropic =   169.0593   Anisotropy =    75.6521

      6  C    Isotropic =    33.4499   Anisotropy =   198.1791

      7  C    Isotropic =    41.9814   Anisotropy =   194.8149

      8  C    Isotropic =    41.8755   Anisotropy =   194.9361

      9  C    Isotropic =    45.9097   Anisotropy =   187.6205

     10  H    Isotropic =    24.3102   Anisotropy =     8.4643

     11  C    Isotropic =    68.3835   Anisotropy =     3.3384

     12  C    Isotropic =    50.3657   Anisotropy =   184.8203

     13  H    Isotropic =    24.5318   Anisotropy =     6.3088

     14  C    Isotropic =    45.9149   Anisotropy =   187.6145

     15  H    Isotropic =    24.3116   Anisotropy =     8.4661

     16  C    Isotropic =    53.8913   Anisotropy =   180.5663

     17  H    Isotropic =    24.6685   Anisotropy =     3.5521

     18  C    Isotropic =    50.1077   Anisotropy =   182.9868

     19  H    Isotropic =    24.7060   Anisotropy =    12.3604

     20  C    Isotropic =    33.4482   Anisotropy =   198.1795

     21  C    Isotropic =    49.9558   Anisotropy =   183.5461

     22  H    Isotropic =    24.1450   Anisotropy =     7.3826

     23  B    Isotropic =    82.5995   Anisotropy =     4.5045

     24  C    Isotropic =    34.9231   Anisotropy =   199.4388

     25  H    Isotropic =    23.0883   Anisotropy =     7.6332

     26  C    Isotropic =    39.3653   Anisotropy =   182.0769

     27  H    Isotropic =    23.6700   Anisotropy =     8.5702

     28  C    Isotropic =   156.2463   Anisotropy =    31.8501

     29  H    Isotropic =    31.3414   Anisotropy =     6.4850

     30  H    Isotropic =    31.4889   Anisotropy =     8.7792

     31  H    Isotropic =    31.5350   Anisotropy =    10.9383

     32  C    Isotropic =   158.6091   Anisotropy =    32.0444

     33  H    Isotropic =    31.2042   Anisotropy =     6.3171

     34  H    Isotropic =    31.3625   Anisotropy =    10.0297

     35  H    Isotropic =    30.8740   Anisotropy =     6.7565

     36  C    Isotropic =    50.7298   Anisotropy =   182.1798

     37  H    Isotropic =    24.0811   Anisotropy =     4.8216

     38  C    Isotropic =    90.2414   Anisotropy =    68.2765

     39  C    Isotropic =    50.1569   Anisotropy =   183.0834

     40  H    Isotropic =    24.7197   Anisotropy =    12.3656

     41  C    Isotropic =    48.6002   Anisotropy =   189.0839

     42  H    Isotropic =    24.1412   Anisotropy =     4.2530

     43  C    Isotropic =    53.8766   Anisotropy =   180.5142

     44  H    Isotropic =    24.6644   Anisotropy =     3.5541

     45  C    Isotropic =    50.3531   Anisotropy =   184.8172

     46  H    Isotropic =    24.5326   Anisotropy =     6.3110

     47  C    Isotropic =    49.9331   Anisotropy =   183.6179

     48  H    Isotropic =    24.5612   Anisotropy =     5.7274

     49  C    Isotropic =   158.4454   Anisotropy =    34.6136

     50  H    Isotropic =    30.7778   Anisotropy =     5.7817

     51  H    Isotropic =    31.2816   Anisotropy =    10.0457

     52  H    Isotropic =    30.8821   Anisotropy =     8.2822

     53  C    Isotropic =    39.3314   Anisotropy =   181.9997

     54  H    Isotropic =    23.6644   Anisotropy =     8.5707

     55  C    Isotropic =    49.9169   Anisotropy =   183.6592

     56  H    Isotropic =    24.5606   Anisotropy =     5.7286

     57  C    Isotropic =    48.4881   Anisotropy =   189.2102

     58  H    Isotropic =    24.1375   Anisotropy =     4.2612

     59  C    Isotropic =    34.9210   Anisotropy =   199.4357

     60  H    Isotropic =    23.0884   Anisotropy =     7.6363

     61  C    Isotropic =   155.3603   Anisotropy =    32.3145

     62  H    Isotropic =    30.7525   Anisotropy =     5.5173

     63  H    Isotropic =    31.0767   Anisotropy =     9.3826

     64  H    Isotropic =    30.5910   Anisotropy =     7.7138

     65  C    Isotropic =    92.6265   Anisotropy =    62.7703

     66  C    Isotropic =    50.7131   Anisotropy =   182.0729

     67  H    Isotropic =    24.0717   Anisotropy =     4.8121

     68  C    Isotropic =    49.9261   Anisotropy =   183.7704

     69  H    Isotropic =    24.1585   Anisotropy =     7.4054

     70  O    Isotropic =   189.3870   Anisotropy =   114.9700

     71  B    Isotropic =    82.5780   Anisotropy =     4.5367

     72  O    Isotropic =   161.8159   Anisotropy =    54.5940

     73  O    Isotropic =   168.8860   Anisotropy =    75.4311

     74  C    Isotropic =    90.2457   Anisotropy =    68.1532

     75  C    Isotropic =    92.5661   Anisotropy =    62.9800

     76  C    Isotropic =   158.5315   Anisotropy =    32.0996

     77  C    Isotropic =   155.3020   Anisotropy =    32.2171

     78  C    Isotropic =   156.2944   Anisotropy =    31.7903

     79  C    Isotropic =   158.4330   Anisotropy =    34.5935

     80  H    Isotropic =    31.1970   Anisotropy =     6.3112

     81  H    Isotropic =    31.3626   Anisotropy =    10.0274

     82  H    Isotropic =    30.8733   Anisotropy =     6.7511

     83  H    Isotropic =    30.7301   Anisotropy =     5.5190

     84  H    Isotropic =    31.0450   Anisotropy =     9.3822

     85  H    Isotropic =    30.5926   Anisotropy =     7.7134

     86  H    Isotropic =    31.3423   Anisotropy =     6.4884

     87  H    Isotropic =    31.4755   Anisotropy =     8.7839

     88  H    Isotropic =    31.5413   Anisotropy =    10.9449

     89  H    Isotropic =    30.7649   Anisotropy =     5.7795

     90  H    Isotropic =    31.2622   Anisotropy =    10.0495

     91  H    Isotropic =    30.9046   Anisotropy =     8.2850

 The electronic state is 1-A.
 Alpha  occ. eigenvalues --  -77.03857 -77.03856 -19.14324 -19.14323 -19.13320
 Alpha  occ. eigenvalues --  -19.13319 -19.12951 -19.12941 -10.30008 -10.24740
 Alpha  occ. eigenvalues --  -10.24738 -10.24531 -10.24522 -10.18022 -10.18021
 Alpha  occ. eigenvalues --  -10.17438 -10.17437 -10.17339 -10.17331 -10.17289
 Alpha  occ. eigenvalues --  -10.17289 -10.17100 -10.17100 -10.17095 -10.17082
 Alpha  occ. eigenvalues --  -10.17079 -10.17072 -10.17066 -10.17063 -10.17011
 Alpha  occ. eigenvalues --  -10.17010 -10.17007 -10.16996 -10.16947 -10.16943
 Alpha  occ. eigenvalues --  -10.16934 -10.16927 -10.16914 -10.16907 -10.16889
 Alpha  occ. eigenvalues --  -10.16879 -10.16719 -10.16718 -10.16361 -10.16356
 Alpha  occ. eigenvalues --   -6.80231  -6.80225  -6.52472  -6.52471  -4.68629
 Alpha  occ. eigenvalues --   -4.68628  -4.68573  -4.68572  -4.68100  -4.68099
 Alpha  occ. eigenvalues --   -1.08663  -1.06730  -1.05732  -1.01093  -0.99871
 Alpha  occ. eigenvalues --   -0.99862  -0.85494  -0.85465  -0.85060  -0.85052
 Alpha  occ. eigenvalues --   -0.81624  -0.81540  -0.76303  -0.76217  -0.76115
 Alpha  occ. eigenvalues --   -0.75737  -0.74433  -0.74398  -0.74354  -0.74316
 Alpha  occ. eigenvalues --   -0.73846  -0.73840  -0.71640  -0.71536  -0.70084
 Alpha  occ. eigenvalues --   -0.68818  -0.68770  -0.63667  -0.63229  -0.62909
 Alpha  occ. eigenvalues --   -0.61657  -0.60478  -0.60365  -0.60051  -0.59948
 Alpha  occ. eigenvalues --   -0.59436  -0.59339  -0.58286  -0.56937  -0.56740
 Alpha  occ. eigenvalues --   -0.55958  -0.55333  -0.53812  -0.52949  -0.51402
 Alpha  occ. eigenvalues --   -0.51396  -0.50800  -0.49586  -0.48362  -0.47857
 Alpha  occ. eigenvalues --   -0.47632  -0.47463  -0.46620  -0.46318  -0.46008
 Alpha  occ. eigenvalues --   -0.45264  -0.45155  -0.45038  -0.45033  -0.44848
 Alpha  occ. eigenvalues --   -0.44595  -0.44496  -0.44333  -0.44181  -0.43520
 Alpha  occ. eigenvalues --   -0.42991  -0.42027  -0.41952  -0.41875  -0.41779
 Alpha  occ. eigenvalues --   -0.41671  -0.41350  -0.41276  -0.41000  -0.40939
 Alpha  occ. eigenvalues --   -0.40879  -0.40839  -0.40311  -0.40278  -0.39659
 Alpha  occ. eigenvalues --   -0.39092  -0.38997  -0.38901  -0.38303  -0.37930
 Alpha  occ. eigenvalues --   -0.37924  -0.37680  -0.37512  -0.37364  -0.36646
 Alpha  occ. eigenvalues --   -0.36447  -0.36266  -0.36140  -0.35768  -0.35613
 Alpha  occ. eigenvalues --   -0.35600  -0.35213  -0.34732  -0.34723  -0.34292
 Alpha  occ. eigenvalues --   -0.34183  -0.33707  -0.33692  -0.32155  -0.32058
 Alpha  occ. eigenvalues --   -0.31899  -0.31746  -0.31343  -0.31202  -0.28674
 Alpha  occ. eigenvalues --   -0.28443  -0.27292  -0.27286  -0.26008  -0.25574
 Alpha  occ. eigenvalues --   -0.25399  -0.25388  -0.25116  -0.25047  -0.23740
 Alpha  occ. eigenvalues --   -0.21977  -0.17359
 Alpha virt. eigenvalues --   -0.03321  -0.02713  -0.01734  -0.01318  -0.01246
 Alpha virt. eigenvalues --   -0.01009  -0.00749  -0.00310   0.01155   0.01381
 Alpha virt. eigenvalues --    0.02436   0.04154   0.04222   0.04755   0.05040

 Mulliken charges:
               1
     1  P    0.087653
     2  P    0.087733
     3  O   -0.404970
     4  O   -0.351545
     5  O   -0.315974
     6  C    0.025067
     7  C    0.022369
     8  C    0.022799
     9  C   -0.145596
    10  H    0.168353
    11  C    0.347343
    12  C   -0.193574
    13  H    0.102526
    14  C   -0.145715
    15  H    0.168483
    16  C   -0.074115
    17  H    0.104036
    18  C   -0.133172
    19  H    0.144001
    20  C    0.025051
    21  C   -0.116886
    22  H    0.097767
    23  B    0.435517
    24  C   -0.166116
    25  H    0.184587
    26  C   -0.163552
    27  H    0.119455
    28  C   -0.422527
    29  H    0.118543
    30  H    0.113384
    31  H    0.178726
    32  C   -0.366758
    33  H    0.145732
    34  H    0.113153
    35  H    0.117107
    36  C   -0.115512
    37  H    0.106690
    38  C    0.225620
    39  C   -0.133399
    40  H    0.144109
    41  C   -0.089312
    42  H    0.105978
    43  C   -0.074145
    44  H    0.104019
    45  C   -0.193541
    46  H    0.102583
    47  C   -0.166475
    48  H    0.103226
    49  C   -0.343964
    50  H    0.118759
    51  H    0.109509
    52  H    0.121383
    53  C   -0.163778
    54  H    0.119447
    55  C   -0.166328
    56  H    0.103232
    57  C   -0.088728
    58  H    0.105956
    59  C   -0.164988
    60  H    0.184189
    61  C   -0.396751
    62  H    0.130281
    63  H    0.118792
    64  H    0.115084
    65  C    0.259574
    66  C   -0.115860
    67  H    0.106641
    68  C   -0.117969
    69  H    0.098043
    70  O   -0.405029
    71  B    0.435681
    72  O   -0.352129
    73  O   -0.315643
    74  C    0.225578
    75  C    0.259875
    76  C   -0.366694
    77  C   -0.396905
    78  C   -0.422644
    79  C   -0.344302
    80  H    0.145762
    81  H    0.113107
    82  H    0.117126
    83  H    0.130227
    84  H    0.118553
    85  H    0.115478
    86  H    0.118567
    87  H    0.113388
    88  H    0.178876
    89  H    0.118791
    90  H    0.109504
    91  H    0.121581
 Sum of Mulliken charges =  -0.00000

 Dipole moment (field-independent basis, Debye):
    X=              0.0018    Y=             -0.0071    Z=              6.0190  Tot=              6.0190
 Quadrupole moment (field-independent basis, Debye-Ang):
   XX=           -269.0852   YY=           -279.4601   ZZ=           -286.2140
   XY=             -3.9028   XZ=              0.0030   YZ=             -0.0294

 Summary of Natural Population Analysis:

                                       Natural Population
                Natural  -----------------------------------------------
    Atom  No    Charge         Core      Valence    Rydberg      Total
 -----------------------------------------------------------------------
      P    1    0.76534      9.99802     4.20493    0.03172    14.23466
      P    2    0.76537      9.99802     4.20490    0.03171    14.23463
      O    3   -0.70965      1.99962     6.68669    0.02334     8.70965
      O    4   -0.71635      1.99968     6.69488    0.02179     8.71635
      O    5   -0.69254      1.99968     6.67045    0.02241     8.69254
      C    6   -0.32181      1.99897     4.29208    0.03076     6.32181
      C    7   -0.33733      1.99899     4.30616    0.03218     6.33733
      C    8   -0.33715      1.99899     4.30598    0.03217     6.33715
      C    9   -0.21055      1.99908     4.19230    0.01917     6.21055
      H   10    0.21655      0.00000     0.78115    0.00230     0.78345
      C   11    0.15608      1.99953     3.78885    0.05554     5.84392
      C   12   -0.20381      1.99918     4.18593    0.01870     6.20381
      H   13    0.20900      0.00000     0.78971    0.00129     0.79100
      C   14   -0.21056      1.99908     4.19231    0.01917     6.21056
      H   15    0.21655      0.00000     0.78115    0.00230     0.78345
      C   16   -0.22152      1.99918     4.20272    0.01961     6.22152
      H   17    0.20639      0.00000     0.79241    0.00120     0.79361
      C   18   -0.20737      1.99908     4.18879    0.01950     6.20737
      H   19    0.21686      0.00000     0.78125    0.00190     0.78314
      C   20   -0.32174      1.99897     4.29201    0.03076     6.32174
      C   21   -0.20769      1.99918     4.18984    0.01867     6.20769
      H   22    0.20407      0.00000     0.79450    0.00143     0.79593
      B   23    1.25233      1.99904     1.70918    0.03945     3.74767
      C   24   -0.18314      1.99908     4.16375    0.02031     6.18314
      H   25    0.23125      0.00000     0.76640    0.00235     0.76875
      C   26   -0.18794      1.99910     4.16863    0.02021     6.18794
      H   27    0.21702      0.00000     0.78142    0.00156     0.78298
      C   28   -0.62068      1.99936     4.60727    0.01405     6.62068
      H   29    0.21700      0.00000     0.78171    0.00129     0.78300
      H   30    0.20502      0.00000     0.79393    0.00105     0.79498
      H   31    0.22148      0.00000     0.77686    0.00166     0.77852
      C   32   -0.61433      1.99936     4.60144    0.01354     6.61433
      H   33    0.22449      0.00000     0.77438    0.00113     0.77551
      H   34    0.20629      0.00000     0.79276    0.00095     0.79371
      H   35    0.21377      0.00000     0.78497    0.00125     0.78623
      C   36   -0.21239      1.99918     4.19384    0.01937     6.21239
      H   37    0.20795      0.00000     0.79077    0.00128     0.79205
      C   38    0.25149      1.99924     3.72875    0.02052     5.74851
      C   39   -0.20737      1.99908     4.18880    0.01948     6.20737
      H   40    0.21672      0.00000     0.78138    0.00190     0.78328
      C   41   -0.19469      1.99919     4.17654    0.01896     6.19469
      H   42    0.20602      0.00000     0.79278    0.00120     0.79398
      C   43   -0.22152      1.99918     4.20272    0.01962     6.22152
      H   44    0.20641      0.00000     0.79239    0.00120     0.79359
      C   45   -0.20384      1.99918     4.18596    0.01869     6.20384
      H   46    0.20899      0.00000     0.78972    0.00129     0.79101
      C   47   -0.20244      1.99918     4.18441    0.01885     6.20244
      H   48    0.20642      0.00000     0.79227    0.00130     0.79358
      C   49   -0.60996      1.99936     4.59726    0.01334     6.60996
      H   50    0.21318      0.00000     0.78573    0.00109     0.78682
      H   51    0.20556      0.00000     0.79347    0.00097     0.79444
      H   52    0.21730      0.00000     0.78142    0.00128     0.78270
      C   53   -0.18811      1.99910     4.16880    0.02021     6.18811
      H   54    0.21705      0.00000     0.78138    0.00156     0.78295
      C   55   -0.20235      1.99918     4.18432    0.01885     6.20235
      H   56    0.20640      0.00000     0.79230    0.00130     0.79360
      C   57   -0.19450      1.99919     4.17635    0.01895     6.19450
      H   58    0.20595      0.00000     0.79285    0.00120     0.79405
      C   59   -0.18301      1.99908     4.16361    0.02032     6.18301
      H   60    0.23114      0.00000     0.76651    0.00235     0.76886
      C   61   -0.61629      1.99936     4.60313    0.01381     6.61629
      H   62    0.21967      0.00000     0.77900    0.00133     0.78033
      H   63    0.20804      0.00000     0.79095    0.00101     0.79196
      H   64    0.20483      0.00000     0.79382    0.00135     0.79517
      C   65    0.24513      1.99923     3.73551    0.02014     5.75487
      C   66   -0.21258      1.99918     4.19402    0.01938     6.21258
      H   67    0.20802      0.00000     0.79071    0.00128     0.79198
      C   68   -0.20775      1.99918     4.18994    0.01863     6.20775
      H   69    0.20407      0.00000     0.79451    0.00143     0.79593
      O   70   -0.70970      1.99962     6.68673    0.02335     8.70970
      B   71    1.25236      1.99904     1.70914    0.03947     3.74764
      O   72   -0.71647      1.99968     6.69502    0.02177     8.71647
      O   73   -0.69257      1.99968     6.67048    0.02241     8.69257
      C   74    0.25140      1.99924     3.72883    0.02053     5.74860
      C   75    0.24496      1.99923     3.73566    0.02015     5.75504
      C   76   -0.61424      1.99936     4.60136    0.01352     6.61424
      C   77   -0.61642      1.99936     4.60323    0.01383     6.61642
      C   78   -0.62073      1.99936     4.60731    0.01406     6.62073
      C   79   -0.60994      1.99936     4.59724    0.01334     6.60994
      H   80    0.22451      0.00000     0.77436    0.00113     0.77549
      H   81    0.20619      0.00000     0.79286    0.00095     0.79381
      H   82    0.21378      0.00000     0.78497    0.00125     0.78622
      H   83    0.21977      0.00000     0.77890    0.00133     0.78023
      H   84    0.20805      0.00000     0.79094    0.00101     0.79195
      H   85    0.20497      0.00000     0.79368    0.00135     0.79503
      H   86    0.21702      0.00000     0.78169    0.00129     0.78298
      H   87    0.20516      0.00000     0.79379    0.00105     0.79484
      H   88    0.22155      0.00000     0.77680    0.00166     0.77845
      H   89    0.21319      0.00000     0.78571    0.00109     0.78681
      H   90    0.20561      0.00000     0.79342    0.00097     0.79439
      H   91    0.21733      0.00000     0.78139    0.00128     0.78267
 =======================================================================
   * Total *   -0.00000    109.96225   242.94109    1.09666   354.00000

 1\1\GINC-G4NODEC3\SP\RB3LYP\def2TZVP\C37H44B2O6P2\ROOT\23-Jan-2025\0\\
 # nmr=giao b3lyp/def2TZVP pop=nbo scfcyc=200\\DS-63 SPE NoRh\\0,1\P,0,
 -0.931,1.126,0.866\P,0,-0.931,-1.126,-0.866\O,0,1.195,-0.626,0.976\O,0
 ,2.571,-2.12,-0.39\O,0,2.979,-1.917,1.863\C,0,-0.748,2.875,0.317\C,0,-
 0.565,-1.062,-2.663\C,0,-0.565,1.062,2.663\C,0,-0.816,-3.161,1.053\H,0
 ,-0.872,-2.359,1.778\C,0,0.446,0.,0.\C,0,-0.816,-4.478,1.496\H,0,-0.86
 1,-4.686,2.557\C,0,-0.816,3.161,-1.053\H,0,-0.871,2.359,-1.778\C,0,-0.
 767,-5.526,0.579\H,0,-0.778,-6.552,0.925\C,0,-0.703,3.931,1.231\H,0,-0

 Normal termination of Gaussian 16 at Thu Jan 23 20:47:11 2025.
