 Gaussian 16, Revision B.01,
 Gaussian 16:  ES64L-G16RevB.01 20-Dec-2017

 --------------------------------------------
 # nmr=giao b3lyp/def2TZVP pop=nbo scfcyc=200
 --------------------------------------------

 -------------
 DS-8 SPE NoRh
 -------------
 Symbolic Z-matrix:
 Charge =  0 Multiplicity = 1

                         Standard orientation:
 ---------------------------------------------------------------------
 Center     Atomic      Atomic             Coordinates (Angstroms)
 Number     Number       Type             X           Y           Z
 ---------------------------------------------------------------------
      1         15           0        1.477768   -0.833530   -0.984507
      2          6           0        2.818049    0.331316   -0.467245
      3          6           0        3.068910    0.604185    0.882712
      4          6           0        4.094468    1.468617    1.247766
      5          6           0        4.879639    2.074643    0.271644
      6          6           0        4.632294    1.818088   -1.071570
      7          6           0        3.604767    0.955545   -1.438980
      8          1           0        2.463813    0.145998    1.652891
      9          1           0        4.279775    1.668860    2.295140
     10          1           0        5.677687    2.748498    0.557361
     11          1           0        5.234617    2.292479   -1.836202
     12          1           0        3.409359    0.778154   -2.488027
     13          6           0        0.065620   -0.483871    0.175306
     14         15           0       -1.106123    0.325010   -1.018161
     15          6           0       -0.177106   -0.804812    1.415068
     16          6           0       -1.340735    2.079852   -0.515838
     17          6           0       -2.740894   -0.488272   -0.792006
     18          6           0       -0.498592   -1.112967    2.643902
     19          6           0       -2.407428    2.807307   -1.059104
     20          6           0       -0.417397    2.731012    0.305123
     21          6           0       -3.066718   -1.585089   -1.595767
     22          6           0       -3.626688   -0.085363    0.212538
     23          6           0       -1.198747   -2.410146    2.973367
     24          6           0       -0.173776   -0.198410    3.800999
     25          6           0       -2.553553    4.158379   -0.768499
     26          1           0       -3.137477    2.319563   -1.693763
     27          6           0       -0.567340    4.084808    0.589645
     28          1           0        0.419760    2.188437    0.722466
     29          6           0       -4.261848   -2.267983   -1.399084
     30          1           0       -2.381400   -1.901982   -2.372339
     31          6           0       -4.822665   -0.769547    0.402106
     32          1           0       -3.392438    0.764409    0.840490
     33          1           0       -2.141599   -2.203290    3.486980
     34          1           0       -1.413341   -3.000724    2.085687
     35          1           0       -0.584220   -3.006672    3.653578
     36          1           0        0.308040    0.722542    3.478867
     37          1           0       -1.088765    0.060755    4.339622
     38          1           0        0.484097   -0.708251    4.511076
     39          6           0       -1.633914    4.799637    0.056103
     40          1           0       -3.386561    4.709003   -1.185827
     41          1           0        0.151468    4.578707    1.230993
     42          6           0       -5.141401   -1.859331   -0.402790
     43          1           0       -4.508066   -3.113943   -2.028832
     44          1           0       -5.506504   -0.448692    1.177222
     45          1           0       -1.748307    5.852207    0.281215
     46          1           0       -6.075878   -2.387382   -0.254815
     47          6           0        2.149010   -2.597589   -0.689202
     48          6           0        3.340093   -2.797162   -1.640744
     49          1           0        3.719872   -3.815691   -1.526950
     50          1           0        3.064668   -2.668067   -2.688726
     51          1           0        4.159689   -2.113431   -1.414761
     52          6           0        2.615771   -2.809137    0.757418
     53          1           0        2.975685   -3.836173    0.863594
     54          1           0        3.438245   -2.145845    1.022744
     55          1           0        1.808205   -2.667912    1.475817
     56          6           0        1.021618   -3.584134   -1.028427
     57          1           0        0.169074   -3.474183   -0.355646
     58          1           0        0.662703   -3.460879   -2.050789
     59          1           0        1.394501   -4.606170   -0.925686
 ---------------------------------------------------------------------

 SCF Done:  E(RB3LYP) =  -1730.02112405     A.U. after   16 cycles

      1  P    Isotropic =   209.2073   Anisotropy =   118.6052

      2  C    Isotropic =    38.0385   Anisotropy =   200.7504

      3  C    Isotropic =    40.9898   Anisotropy =   191.8699

      4  C    Isotropic =    51.1859   Anisotropy =   181.3480

      5  C    Isotropic =    49.5002   Anisotropy =   187.1690

      6  C    Isotropic =    50.3923   Anisotropy =   182.2947

      7  C    Isotropic =    41.3926   Anisotropy =   182.0720

      8  H    Isotropic =    23.6133   Anisotropy =     9.3819

      9  H    Isotropic =    24.2075   Anisotropy =     6.7248

     10  H    Isotropic =    24.2854   Anisotropy =     4.2092

     11  H    Isotropic =    24.3006   Anisotropy =     5.0821

     12  H    Isotropic =    24.0219   Anisotropy =     8.5500

     13  C    Isotropic =    88.2084   Anisotropy =    87.3755

     14  P    Isotropic =   221.5597   Anisotropy =   102.3181

     15  C    Isotropic =   -37.8043   Anisotropy =    51.0234

     16  C    Isotropic =    33.2969   Anisotropy =   195.3089

     17  C    Isotropic =    33.8957   Anisotropy =   204.3309

     18  C    Isotropic =    85.8952   Anisotropy =   106.2343

     19  C    Isotropic =    49.2218   Anisotropy =   184.2817

     20  C    Isotropic =    48.2378   Anisotropy =   185.7959

     21  C    Isotropic =    41.7622   Anisotropy =   181.7235

     22  C    Isotropic =    42.3171   Anisotropy =   189.5501

     23  C    Isotropic =   162.8928   Anisotropy =    27.6274

     24  C    Isotropic =   162.5404   Anisotropy =    29.2053

     25  C    Isotropic =    50.4336   Anisotropy =   182.8042

     26  H    Isotropic =    24.6522   Anisotropy =    11.3310

     27  C    Isotropic =    50.4947   Anisotropy =   182.0809

     28  H    Isotropic =    24.7173   Anisotropy =     8.1960

     29  C    Isotropic =    50.4632   Anisotropy =   183.0115

     30  H    Isotropic =    23.6854   Anisotropy =     8.5445

     31  C    Isotropic =    49.5986   Anisotropy =   184.2865

     32  H    Isotropic =    24.2936   Anisotropy =    10.6087

     33  H    Isotropic =    30.6225   Anisotropy =     7.9147

     34  H    Isotropic =    30.6311   Anisotropy =     4.6282

     35  H    Isotropic =    30.4564   Anisotropy =     8.9890

     36  H    Isotropic =    29.7362   Anisotropy =     5.8099

     37  H    Isotropic =    30.2671   Anisotropy =     8.4743

     38  H    Isotropic =    30.1415   Anisotropy =     9.0630

     39  C    Isotropic =    53.4497   Anisotropy =   179.6252

     40  H    Isotropic =    24.5654   Anisotropy =     5.2348

     41  H    Isotropic =    24.7580   Anisotropy =     7.7886

     42  C    Isotropic =    49.5653   Anisotropy =   187.2850

     43  H    Isotropic =    24.2406   Anisotropy =     5.4686

     44  H    Isotropic =    24.4500   Anisotropy =     6.1622

     45  H    Isotropic =    24.7313   Anisotropy =     4.3818

     46  H    Isotropic =    24.3294   Anisotropy =     4.1409

     47  C    Isotropic =   140.0574   Anisotropy =    16.1092

     48  C    Isotropic =   155.5466   Anisotropy =    42.8688

     49  H    Isotropic =    31.4460   Anisotropy =     9.9428

     50  H    Isotropic =    30.7910   Anisotropy =     8.8603

     51  H    Isotropic =    31.4435   Anisotropy =     6.5005

     52  C    Isotropic =   157.2236   Anisotropy =    35.2154

     53  H    Isotropic =    31.3534   Anisotropy =     9.6034

     54  H    Isotropic =    30.8107   Anisotropy =     6.1750

     55  H    Isotropic =    30.4267   Anisotropy =     8.2876

     56  C    Isotropic =   154.6017   Anisotropy =    42.8864

     57  H    Isotropic =    30.6178   Anisotropy =     6.8637

     58  H    Isotropic =    30.4522   Anisotropy =     8.0597

     59  H    Isotropic =    31.0773   Anisotropy =     9.0646

 The electronic state is 1-A.
 Alpha  occ. eigenvalues --  -77.04761 -77.04206 -10.19546 -10.19371 -10.18861
 Alpha  occ. eigenvalues --  -10.18848 -10.18188 -10.18151 -10.18068 -10.18000
 Alpha  occ. eigenvalues --  -10.17901 -10.17898 -10.17870 -10.17814 -10.17809
 Alpha  occ. eigenvalues --  -10.17795 -10.17745 -10.17739 -10.17708 -10.17698
 Alpha  occ. eigenvalues --  -10.17641 -10.17258 -10.17188 -10.17147 -10.17043
 Alpha  occ. eigenvalues --  -10.16973 -10.15950 -10.15856 -10.15450  -6.53299
 Alpha  occ. eigenvalues --   -6.52730  -4.69466  -4.69399  -4.68944  -4.68915
 Alpha  occ. eigenvalues --   -4.68802  -4.68365  -0.86099  -0.86006  -0.85339
 Alpha  occ. eigenvalues --   -0.83098  -0.81107  -0.77480  -0.75624  -0.75102
 Alpha  occ. eigenvalues --   -0.75070  -0.74654  -0.74316  -0.74207  -0.70631
 Alpha  occ. eigenvalues --   -0.68711  -0.68432  -0.66695  -0.63575  -0.61861
 Alpha  occ. eigenvalues --   -0.60902  -0.60794  -0.60312  -0.59732  -0.58237
 Alpha  occ. eigenvalues --   -0.56431  -0.53647  -0.52058  -0.51782  -0.49995
 Alpha  occ. eigenvalues --   -0.48204  -0.46599  -0.46001  -0.45691  -0.45658
 Alpha  occ. eigenvalues --   -0.45333  -0.45122  -0.44867  -0.44329  -0.44198
 Alpha  occ. eigenvalues --   -0.43721  -0.43497  -0.42637  -0.42614  -0.42305
 Alpha  occ. eigenvalues --   -0.42045  -0.40726  -0.40064  -0.39442  -0.39148
 Alpha  occ. eigenvalues --   -0.38690  -0.38537  -0.37579  -0.37500  -0.37340
 Alpha  occ. eigenvalues --   -0.37094  -0.36707  -0.35869  -0.34995  -0.34956
 Alpha  occ. eigenvalues --   -0.34761  -0.34266  -0.33625  -0.33470  -0.32943
 Alpha  occ. eigenvalues --   -0.31006  -0.27864  -0.27090  -0.26464  -0.26216
 Alpha  occ. eigenvalues --   -0.26093  -0.25878  -0.25368  -0.24034  -0.22139
 Alpha  occ. eigenvalues --   -0.18314
 Alpha virt. eigenvalues --   -0.04634  -0.03069  -0.02248  -0.01955  -0.01623
 Alpha virt. eigenvalues --   -0.01534  -0.00428   0.00900   0.01774   0.03844
 Alpha virt. eigenvalues --    0.04611   0.04910   0.05165   0.06046   0.06179

 Mulliken charges:
               1
     1  P    0.095879
     2  C    0.065002
     3  C   -0.203820
     4  C   -0.131448
     5  C   -0.090530
     6  C   -0.108293
     7  C   -0.160995
     8  H    0.169974
     9  H    0.104558
    10  H    0.109467
    11  H    0.109524
    12  H    0.108301
    13  C   -0.278190
    14  P    0.179674
    15  C    0.116444
    16  C    0.011793
    17  C    0.052825
    18  C   -0.037166
    19  C   -0.176512
    20  C   -0.134638
    21  C   -0.187981
    22  C   -0.170231
    23  C   -0.332202
    24  C   -0.342471
    25  C   -0.112044
    26  H    0.119540
    27  C   -0.147808
    28  H    0.153022
    29  C   -0.103567
    30  H    0.118156
    31  C   -0.108920
    32  H    0.133843
    33  H    0.117945
    34  H    0.127876
    35  H    0.116015
    36  H    0.121868
    37  H    0.119465
    38  H    0.116610
    39  C   -0.100239
    40  H    0.106744
    41  H    0.102338
    42  C   -0.101376
    43  H    0.108760
    44  H    0.106973
    45  H    0.104898
    46  H    0.109450
    47  C    0.112503
    48  C   -0.375983
    49  H    0.106042
    50  H    0.117237
    51  H    0.129154
    52  C   -0.387402
    53  H    0.095770
    54  H    0.125965
    55  H    0.129025
    56  C   -0.380991
    57  H    0.123954
    58  H    0.120349
    59  H    0.105862
 Sum of Mulliken charges =  -0.00000

 Dipole moment (field-independent basis, Debye):
    X=             -0.1503    Y=             -0.8276    Z=              2.8297  Tot=              2.9521
 Quadrupole moment (field-independent basis, Debye-Ang):
   XX=           -178.1466   YY=           -181.6476   ZZ=           -184.5834
   XY=              5.7835   XZ=             -0.7150   YZ=              2.4600

 Summary of Natural Population Analysis:

                                       Natural Population
                Natural  -----------------------------------------------
    Atom  No    Charge         Core      Valence    Rydberg      Total
 -----------------------------------------------------------------------
      P    1    0.81666      9.99803     4.15249    0.03282    14.18334
      C    2   -0.33175      1.99899     4.29957    0.03319     6.33175
      C    3   -0.20481      1.99908     4.18523    0.02051     6.20481
      C    4   -0.20752      1.99918     4.18947    0.01887     6.20752
      C    5   -0.20010      1.99919     4.18174    0.01917     6.20010
      C    6   -0.20495      1.99918     4.18631    0.01946     6.20495
      C    7   -0.19102      1.99910     4.17143    0.02049     6.19102
      H    8    0.21058      0.00000     0.78723    0.00219     0.78942
      H    9    0.20637      0.00000     0.79225    0.00138     0.79363
      H   10    0.20808      0.00000     0.79073    0.00119     0.79192
      H   11    0.20956      0.00000     0.78917    0.00127     0.79044
      H   12    0.21711      0.00000     0.78122    0.00167     0.78289
      C   13   -0.70669      1.99882     4.66861    0.03927     6.70669
      P   14    0.85843      9.99789     4.10965    0.03402    14.14157
      C   15    0.14590      1.99877     3.83557    0.01977     5.85410
      C   16   -0.32394      1.99899     4.29278    0.03217     6.32394
      C   17   -0.32965      1.99899     4.29797    0.03269     6.32965
      C   18   -0.10225      1.99891     4.08881    0.01452     6.10225
      C   19   -0.20728      1.99909     4.18869    0.01950     6.20728
      C   20   -0.21253      1.99908     4.19345    0.02000     6.21253
      C   21   -0.19112      1.99910     4.17202    0.01999     6.19112
      C   22   -0.19400      1.99908     4.17436    0.02056     6.19400
      C   23   -0.59739      1.99938     4.58506    0.01295     6.59739
      C   24   -0.59636      1.99938     4.58439    0.01260     6.59636
      C   25   -0.19833      1.99919     4.18048    0.01866     6.19833
      H   26    0.21158      0.00000     0.78670    0.00171     0.78842
      C   27   -0.19651      1.99919     4.17876    0.01856     6.19651
      H   28    0.21418      0.00000     0.78350    0.00231     0.78582
      C   29   -0.20709      1.99918     4.18852    0.01939     6.20709
      H   30    0.21644      0.00000     0.78201    0.00155     0.78356
      C   31   -0.20616      1.99919     4.18786    0.01911     6.20616
      H   32    0.21503      0.00000     0.78254    0.00243     0.78497
      H   33    0.21185      0.00000     0.78653    0.00163     0.78815
      H   34    0.22061      0.00000     0.77818    0.00121     0.77939
      H   35    0.20754      0.00000     0.79076    0.00170     0.79246
      H   36    0.21772      0.00000     0.78122    0.00106     0.78228
      H   37    0.21134      0.00000     0.78707    0.00159     0.78866
      H   38    0.20807      0.00000     0.79023    0.00170     0.79193
      C   39   -0.21639      1.99919     4.19768    0.01953     6.21639
      H   40    0.20741      0.00000     0.79132    0.00127     0.79259
      H   41    0.20648      0.00000     0.79223    0.00128     0.79352
      C   42   -0.20111      1.99919     4.18279    0.01913     6.20111
      H   43    0.20901      0.00000     0.78974    0.00126     0.79099
      H   44    0.20681      0.00000     0.79182    0.00136     0.79319
      H   45    0.20645      0.00000     0.79237    0.00118     0.79355
      H   46    0.20772      0.00000     0.79110    0.00118     0.79228
      C   47   -0.26759      1.99946     4.24237    0.02576     6.26759
      C   48   -0.60470      1.99937     4.59329    0.01204     6.60470
      H   49    0.20361      0.00000     0.79440    0.00199     0.79639
      H   50    0.21086      0.00000     0.78762    0.00151     0.78914
      H   51    0.21131      0.00000     0.78746    0.00123     0.78869
      C   52   -0.60609      1.99936     4.59380    0.01293     6.60609
      H   53    0.19505      0.00000     0.80265    0.00230     0.80495
      H   54    0.20869      0.00000     0.78995    0.00136     0.79131
      H   55    0.20648      0.00000     0.79223    0.00129     0.79352
      C   56   -0.60275      1.99937     4.59169    0.01168     6.60275
      H   57    0.20752      0.00000     0.79115    0.00134     0.79248
      H   58    0.21105      0.00000     0.78761    0.00135     0.78895
      H   59    0.20258      0.00000     0.79545    0.00197     0.79742
 =======================================================================
   * Total *   -0.00000     73.97291   147.36130    0.66579   222.00000

 Normal termination of Gaussian 16 at Thu Jan 23 01:10:04 2025.
