 Gaussian 16, Revision B.01,
 Gaussian 16:  ES64L-G16RevB.01 20-Dec-2017

 --------------------------------------------
 # nmr=giao b3lyp/def2TZVP pop=nbo scfcyc=200
 --------------------------------------------

 ----------------
 iPrPAMP SPE NoRh
 ----------------
 Symbolic Z-matrix:
 Charge =  0 Multiplicity = 1

                         Standard orientation:
 ---------------------------------------------------------------------
 Center     Atomic      Atomic             Coordinates (Angstroms)
 Number     Number       Type             X           Y           Z
 ---------------------------------------------------------------------
      1         15           0       -0.355005    0.226825    0.337535
      2         15           0        2.460732    0.107012    0.395837
      3          8           0       -2.806866   -0.751900    1.537929
      4          6           0       -1.264591   -1.301313   -0.144090
      5          6           0       -2.443957   -1.624065    0.559422
      6          6           0       -3.163088   -2.772930    0.235890
      7          1           0       -4.071577   -3.018918    0.766245
      8          6           0       -2.708713   -3.614728   -0.774252
      9          1           0       -3.274393   -4.505526   -1.014771
     10          6           0       -1.545578   -3.316463   -1.470911
     11          1           0       -1.195223   -3.967514   -2.260227
     12          6           0       -0.834548   -2.163753   -1.152537
     13          1           0        0.059262   -1.940633   -1.714885
     14          6           0       -4.070891   -0.915706    2.187708
     15          1           0       -4.163357   -0.073557    2.868193
     16          1           0       -4.106594   -1.847782    2.755154
     17          1           0       -4.888138   -0.889914    1.463202
     18          6           0       -1.470431    1.632673   -0.089519
     19          6           0       -1.292213    2.855153    0.560832
     20          1           0       -0.548169    2.945358    1.343879
     21          6           0       -2.065942    3.955957    0.207324
     22          1           0       -1.923331    4.901489    0.717240
     23          6           0       -3.025353    3.840501   -0.792585
     24          1           0       -3.631321    4.695751   -1.065050
     25          6           0       -3.207223    2.623276   -1.443173
     26          1           0       -3.952450    2.530893   -2.222495
     27          6           0       -2.432012    1.521494   -1.096210
     28          1           0       -2.583061    0.579930   -1.607560
     29          6           0        1.092790    0.409030   -0.843657
     30          1           0        1.101986   -0.218532   -1.733436
     31          1           0        1.102018    1.448156   -1.168937
     32          6           0        3.420031    2.740043    0.029835
     33          1           0        4.239224    3.387948   -0.289078
     34          1           0        3.166599    3.006668    1.057031
     35          1           0        2.561914    2.973456   -0.600775
     36          6           0        5.131428    1.017510    0.739155
     37          1           0        5.905112    1.728208    0.441968
     38          1           0        5.534467    0.017272    0.584761
     39          1           0        4.960070    1.151801    1.808500
     40          6           0        3.756170   -1.771664   -1.336985
     41          1           0        3.873628   -2.826214   -1.599271
     42          1           0        4.756913   -1.341426   -1.273262
     43          1           0        3.233576   -1.288209   -2.164496
     44          6           0        3.736942   -2.351219    1.141746
     45          1           0        3.923148   -3.393166    0.875885
     46          1           0        3.144674   -2.342449    2.056752
     47          1           0        4.704007   -1.893014    1.353465
     48          6           0        2.999143   -1.656899   -0.008400
     49          1           0        2.033026   -2.159409   -0.119494
     50          6           0        3.860556    1.275062   -0.081403
     51          1           0        4.071879    1.055212   -1.131683
 ---------------------------------------------------------------------

 SCF Done:  E(RB3LYP) =  -1537.26824670     A.U. after   21 cycles

      1  P    Isotropic =   253.9084   Anisotropy =    80.8324

      2  P    Isotropic =   217.6077   Anisotropy =   103.4218

      3  O    Isotropic =   209.2576   Anisotropy =   115.0332

      4  C    Isotropic =    48.8200   Anisotropy =   168.0563

      5  C    Isotropic =    15.3522   Anisotropy =   137.3669

      6  C    Isotropic =    70.8755   Anisotropy =   156.7391

      7  H    Isotropic =    25.0939   Anisotropy =     7.5873

      8  C    Isotropic =    49.8890   Anisotropy =   180.5865

      9  H    Isotropic =    24.4091   Anisotropy =     4.4472

     10  C    Isotropic =    59.0788   Anisotropy =   170.1528

     11  H    Isotropic =    24.7063   Anisotropy =     5.8704

     12  C    Isotropic =    48.4728   Anisotropy =   182.2341

     13  H    Isotropic =    24.2383   Anisotropy =    10.2231

     14  C    Isotropic =   126.6585   Anisotropy =    77.7857

     15  H    Isotropic =    28.2500   Anisotropy =     8.6049

     16  H    Isotropic =    28.2926   Anisotropy =     9.7695

     17  H    Isotropic =    28.6789   Anisotropy =     8.8932

     18  C    Isotropic =    30.5501   Anisotropy =   209.8229

     19  C    Isotropic =    44.8448   Anisotropy =   178.4205

     20  H    Isotropic =    23.8243   Anisotropy =     8.7094

     21  C    Isotropic =    50.1966   Anisotropy =   182.3979

     22  H    Isotropic =    24.2952   Anisotropy =     5.5441

     23  C    Isotropic =    50.4934   Anisotropy =   185.2463

     24  H    Isotropic =    24.4476   Anisotropy =     4.2081

     25  C    Isotropic =    50.0673   Anisotropy =   182.5944

     26  H    Isotropic =    24.6268   Anisotropy =     6.5380

     27  C    Isotropic =    46.2512   Anisotropy =   184.4146

     28  H    Isotropic =    24.7160   Anisotropy =    12.5758

     29  C    Isotropic =   159.0455   Anisotropy =    26.3935

     30  H    Isotropic =    29.6891   Anisotropy =     4.7412

     31  H    Isotropic =    30.8110   Anisotropy =     4.9328

     32  C    Isotropic =   162.8680   Anisotropy =    32.8097

     33  H    Isotropic =    30.9251   Anisotropy =    10.3307

     34  H    Isotropic =    30.9631   Anisotropy =     7.4303

     35  H    Isotropic =    30.9090   Anisotropy =     7.6732

     36  C    Isotropic =   163.0675   Anisotropy =    31.9020

     37  H    Isotropic =    30.9458   Anisotropy =    10.7901

     38  H    Isotropic =    30.9521   Anisotropy =     7.7938

     39  H    Isotropic =    31.1320   Anisotropy =     7.3432

     40  C    Isotropic =   166.6991   Anisotropy =    26.0219

     41  H    Isotropic =    30.6762   Anisotropy =    10.7489

     42  H    Isotropic =    30.8525   Anisotropy =     6.9413

     43  H    Isotropic =    30.4429   Anisotropy =     6.0755

     44  C    Isotropic =   159.8431   Anisotropy =    34.6626

     45  H    Isotropic =    30.9243   Anisotropy =    10.1944

     46  H    Isotropic =    30.4504   Anisotropy =     8.0040

     47  H    Isotropic =    30.9576   Anisotropy =     7.2160

     48  C    Isotropic =   149.6601   Anisotropy =    12.9678

     49  H    Isotropic =    30.3003   Anisotropy =     9.5939

     50  C    Isotropic =   153.7508   Anisotropy =    22.0418

     51  H    Isotropic =    29.8789   Anisotropy =     4.0931

 The electronic state is 1-A.
 Alpha  occ. eigenvalues --  -77.04376 -77.02967 -19.15996 -10.23845 -10.22798
 Alpha  occ. eigenvalues --  -10.18079 -10.17809 -10.17797 -10.17788 -10.17716
 Alpha  occ. eigenvalues --  -10.17542 -10.17530 -10.17498 -10.17491 -10.17457
 Alpha  occ. eigenvalues --  -10.17442 -10.17382 -10.17267 -10.16942 -10.16203
 Alpha  occ. eigenvalues --  -10.16044 -10.16039 -10.15773  -6.52894  -6.51551
 Alpha  occ. eigenvalues --   -4.69056  -4.69012  -4.68523  -4.67715  -4.67641
 Alpha  occ. eigenvalues --   -4.67180  -1.06868  -0.85867  -0.85478  -0.80124
 Alpha  occ. eigenvalues --   -0.77945  -0.77161  -0.75593  -0.74806  -0.74626
 Alpha  occ. eigenvalues --   -0.72329  -0.69969  -0.68596  -0.68516  -0.63671
 Alpha  occ. eigenvalues --   -0.61501  -0.60553  -0.60062  -0.59546  -0.58264
 Alpha  occ. eigenvalues --   -0.55650  -0.53405  -0.51456  -0.50786  -0.48740
 Alpha  occ. eigenvalues --   -0.47713  -0.47435  -0.46179  -0.45684  -0.45334
 Alpha  occ. eigenvalues --   -0.45223  -0.44749  -0.44096  -0.42985  -0.42405
 Alpha  occ. eigenvalues --   -0.42303  -0.41969  -0.40823  -0.40285  -0.39715
 Alpha  occ. eigenvalues --   -0.38943  -0.38678  -0.38307  -0.38285  -0.37362
 Alpha  occ. eigenvalues --   -0.36686  -0.36144  -0.35100  -0.34700  -0.34643
 Alpha  occ. eigenvalues --   -0.34532  -0.34013  -0.33939  -0.32948  -0.32153
 Alpha  occ. eigenvalues --   -0.30334  -0.28813  -0.26955  -0.25734  -0.25552
 Alpha  occ. eigenvalues --   -0.23474  -0.21324  -0.18111
 Alpha virt. eigenvalues --   -0.02652  -0.01957  -0.01466  -0.00415   0.02322
 Alpha virt. eigenvalues --    0.02761   0.03700   0.04173   0.04533   0.05280
 Alpha virt. eigenvalues --    0.05801   0.06382   0.06684   0.07438   0.07740

 Mulliken charges:
               1
     1  P    0.155888
     2  P    0.150981
     3  O   -0.280201
     4  C   -0.046378
     5  C    0.302454
     6  C   -0.255799
     7  H    0.115155
     8  C   -0.099585
     9  H    0.107190
    10  C   -0.177345
    11  H    0.101030
    12  C   -0.121576
    13  H    0.110178
    14  C   -0.206642
    15  H    0.139061
    16  H    0.121514
    17  H    0.121519
    18  C    0.071075
    19  C   -0.192335
    20  H    0.116433
    21  C   -0.103660
    22  H    0.107319
    23  C   -0.099797
    24  H    0.107737
    25  C   -0.126311
    26  H    0.105062
    27  C   -0.167097
    28  H    0.134124
    29  C   -0.371172
    30  H    0.113466
    31  H    0.129122
    32  C   -0.349292
    33  H    0.106997
    34  H    0.113063
    35  H    0.108169
    36  C   -0.347735
    37  H    0.107829
    38  H    0.105401
    39  H    0.112564
    40  C   -0.354865
    41  H    0.108579
    42  H    0.109671
    43  H    0.111929
    44  C   -0.329908
    45  H    0.104052
    46  H    0.122582
    47  H    0.102034
    48  C   -0.092719
    49  H    0.086354
    50  C   -0.059442
    51  H    0.073329
 Sum of Mulliken charges =  -0.00000

 Dipole moment (field-independent basis, Debye):
    X=             -1.3681    Y=             -0.3369    Z=             -1.1840  Tot=              1.8404
 Quadrupole moment (field-independent basis, Debye-Ang):
   XX=           -140.8012   YY=           -148.4705   ZZ=           -156.4820
   XY=              2.5532   XZ=             -6.2965   YZ=              1.1744

 Summary of Natural Population Analysis:

                                       Natural Population
                Natural  -----------------------------------------------
    Atom  No    Charge         Core      Valence    Rydberg      Total
 -----------------------------------------------------------------------
      P    1    0.84701      9.99819     4.12160    0.03320    14.15299
      P    2    0.78210      9.99858     4.18517    0.03414    14.21790
      O    3   -0.45538      1.99975     6.43831    0.01732     8.45538
      C    4   -0.36609      1.99891     4.33547    0.03172     6.36609
      C    5    0.29258      1.99868     3.68397    0.02477     5.70742
      C    6   -0.29192      1.99905     4.27379    0.01907     6.29192
      H    7    0.21293      0.00000     0.78540    0.00167     0.78707
      C    8   -0.18858      1.99921     4.16954    0.01984     6.18858
      H    9    0.20744      0.00000     0.79136    0.00120     0.79256
      C   10   -0.23365      1.99918     4.21501    0.01946     6.23365
      H   11    0.20811      0.00000     0.79065    0.00123     0.79189
      C   12   -0.19457      1.99910     4.17615    0.01932     6.19457
      H   13    0.19984      0.00000     0.79755    0.00262     0.80016
      C   14   -0.24732      1.99926     4.23448    0.01357     6.24732
      H   15    0.19767      0.00000     0.80106    0.00127     0.80233
      H   16    0.17046      0.00000     0.82727    0.00227     0.82954
      H   17    0.17265      0.00000     0.82505    0.00230     0.82735
      C   18   -0.30830      1.99898     4.27689    0.03244     6.30830
      C   19   -0.20237      1.99909     4.18262    0.02066     6.20237
      H   20    0.21558      0.00000     0.78281    0.00162     0.78442
      C   21   -0.20476      1.99918     4.18585    0.01972     6.20476
      H   22    0.20789      0.00000     0.79078    0.00132     0.79211
      C   23   -0.20692      1.99919     4.18838    0.01935     6.20692
      H   24    0.20689      0.00000     0.79190    0.00121     0.79311
      C   25   -0.20355      1.99919     4.18518    0.01917     6.20355
      H   26    0.20579      0.00000     0.79279    0.00142     0.79421
      C   27   -0.20015      1.99907     4.18070    0.02037     6.20015
      H   28    0.21163      0.00000     0.78618    0.00218     0.78837
      C   29   -1.01296      1.99945     4.98197    0.03154     7.01296
      H   30    0.22755      0.00000     0.76947    0.00298     0.77245
      H   31    0.25284      0.00000     0.74537    0.00179     0.74716
      C   32   -0.59267      1.99943     4.58181    0.01144     6.59267
      H   33    0.20353      0.00000     0.79486    0.00161     0.79647
      H   34    0.20400      0.00000     0.79420    0.00180     0.79600
      H   35    0.20077      0.00000     0.79786    0.00137     0.79923
      C   36   -0.59485      1.99943     4.58394    0.01148     6.59485
      H   37    0.20273      0.00000     0.79565    0.00163     0.79727
      H   38    0.20079      0.00000     0.79762    0.00159     0.79921
      H   39    0.20490      0.00000     0.79316    0.00194     0.79510
      C   40   -0.60078      1.99943     4.58949    0.01187     6.60078
      H   41    0.20059      0.00000     0.79757    0.00184     0.79941
      H   42    0.19802      0.00000     0.80048    0.00150     0.80198
      H   43    0.19959      0.00000     0.79887    0.00154     0.80041
      C   44   -0.59155      1.99942     4.58045    0.01168     6.59155
      H   45    0.19975      0.00000     0.79865    0.00160     0.80025
      H   46    0.21569      0.00000     0.78298    0.00133     0.78431
      H   47    0.19655      0.00000     0.80199    0.00146     0.80345
      C   48   -0.47424      1.99944     4.45189    0.02291     6.47424
      H   49    0.21419      0.00000     0.78368    0.00213     0.78581
      C   50   -0.48247      1.99945     4.46069    0.02233     6.48247
      H   51    0.19302      0.00000     0.80357    0.00341     0.80698
 =======================================================================
   * Total *    0.00000     61.98066   123.48216    0.53718   186.00000

 Normal termination of Gaussian 16 at Thu Jan 30 10:34:49 2025.
