 Gaussian 16, Revision B.01,
 Gaussian 16:  ES64L-G16RevB.01 20-Dec-2017

 --------------------------------------------
 # nmr=giao b3lyp/def2TZVP pop=nbo scfcyc=200
 --------------------------------------------

 ---------------
 MB-103 SPE NoRh
 ---------------
 Symbolic Z-matrix:
 Charge =  0 Multiplicity = 1

                         Standard orientation:
 ---------------------------------------------------------------------
 Center     Atomic      Atomic             Coordinates (Angstroms)
 Number     Number       Type             X           Y           Z
 ---------------------------------------------------------------------
      1         15           0       -0.244288    1.314825   -0.883585
      2          6           0       -0.853341    3.024124   -0.598189
      3          6           0       -1.844812    3.503594   -1.462450
      4          6           0       -2.320026    4.803713   -1.335702
      5          6           0       -1.798953    5.643973   -0.357269
      6          6           0       -0.808252    5.176777    0.500155
      7          6           0       -0.337684    3.873237    0.384023
      8          1           0        0.414834    3.523126    1.077730
      9          1           0       -0.403788    5.825500    1.266912
     10          1           0       -2.163523    6.658893   -0.261960
     11          1           0       -3.095118    5.160614   -2.003849
     12          1           0       -2.262487    2.858129   -2.226404
     13          6           0        1.047061    0.893064    0.387491
     14         15           0        2.078203   -0.180047   -0.758005
     15          6           0        3.856959    0.119382   -0.379495
     16          6           0        4.777475   -0.932569   -0.389516
     17          6           0        6.131740   -0.680854   -0.193050
     18          6           0        6.580842    0.619161    0.010126
     19          6           0        5.672013    1.673257    0.006737
     20          6           0        4.319217    1.427159   -0.195753
     21          1           0        3.632890    2.264770   -0.219574
     22          1           0        6.015472    2.688369    0.158039
     23          1           0        7.634528    0.811133    0.166556
     24          1           0        6.834198   -1.504931   -0.196333
     25          1           0        4.443877   -1.950799   -0.538166
     26          6           0        1.726361   -1.907713   -0.239959
     27          6           0        2.071065   -2.362000    1.039334
     28          6           0        1.771972   -3.664157    1.419199
     29          6           0        1.125408   -4.521206    0.530956
     30          6           0        0.773826   -4.073258   -0.737000
     31          6           0        1.072600   -2.770553   -1.122574
     32          1           0        0.785452   -2.417154   -2.104752
     33          1           0        0.262648   -4.734241   -1.424517
     34          1           0        0.895693   -5.536661    0.830036
     35          1           0        2.046656   -4.011988    2.407513
     36          1           0        2.583297   -1.708377    1.735019
     37          1           0        1.602440    1.799022    0.626975
     38          1           0        0.701438    0.440718    1.313654
     39          8           0       -1.549849    0.332540   -0.713204
     40          6           0       -1.989066   -0.476974    0.409547
     41          1           0       -1.101666   -0.875923    0.908514
     42          6           0       -2.782116   -1.646169   -0.140315
     43          6           0       -2.925616   -2.789826    0.649046
     44          6           0       -3.405655   -1.606297   -1.386976
     45          6           0       -3.684721   -3.867457    0.206946
     46          1           0       -2.435588   -2.844841    1.614140
     47          6           0       -4.161838   -2.686925   -1.832154
     48          1           0       -3.291591   -0.730850   -2.012296
     49          6           0       -4.307694   -3.817756   -1.037053
     50          1           0       -3.787163   -4.745063    0.831758
     51          1           0       -4.642166   -2.641548   -2.802044
     52          1           0       -4.899426   -4.656188   -1.383624
     53          6           0       -2.776012    0.351729    1.452778
     54          1           0       -3.210032   -0.390905    2.138176
     55          6           0       -3.924082    1.152818    0.846883
     56          1           0       -4.579022    0.514525    0.254189
     57          1           0       -4.524322    1.600174    1.641498
     58          1           0       -3.551530    1.951624    0.205342
     59          7           0       -1.847833    1.220534    2.186607
     60          1           0       -2.275455    2.123007    2.349104
     61          6           0       -1.364957    0.667181    3.449888
     62          1           0       -0.762824   -0.227701    3.267311
     63          1           0       -0.723083    1.395504    3.947383
     64          1           0       -2.170026    0.383604    4.142985
 ---------------------------------------------------------------------

 SCF Done:  E(RB3LYP) =  -1936.92525452     A.U. after   14 cycles

      1  P    Isotropic =    91.8801   Anisotropy =   182.3878

      2  C    Isotropic =    26.7528   Anisotropy =   209.4459

      3  C    Isotropic =    45.0020   Anisotropy =   193.7083

      4  C    Isotropic =    49.5537   Anisotropy =   183.9185

      5  C    Isotropic =    51.8841   Anisotropy =   181.8315

      6  C    Isotropic =    51.1236   Anisotropy =   181.2995

      7  C    Isotropic =    51.5845   Anisotropy =   180.2165

      8  H    Isotropic =    24.1498   Anisotropy =    10.6812

      9  H    Isotropic =    24.3692   Anisotropy =     6.0815

     10  H    Isotropic =    24.4531   Anisotropy =     4.2781

     11  H    Isotropic =    24.1553   Anisotropy =     5.5641

     12  H    Isotropic =    23.7921   Anisotropy =    10.0497

     13  C    Isotropic =   151.9169   Anisotropy =    26.0274

     14  P    Isotropic =   246.2719   Anisotropy =    86.6930

     15  C    Isotropic =    29.5005   Anisotropy =   198.5348

     16  C    Isotropic =    50.4325   Anisotropy =   182.5105

     17  C    Isotropic =    49.6858   Anisotropy =   182.9498

     18  C    Isotropic =    53.7639   Anisotropy =   179.0961

     19  C    Isotropic =    50.3828   Anisotropy =   182.4834

     20  C    Isotropic =    51.0648   Anisotropy =   182.6516

     21  H    Isotropic =    24.2179   Anisotropy =    11.1826

     22  H    Isotropic =    24.3604   Anisotropy =     6.2120

     23  H    Isotropic =    24.6235   Anisotropy =     4.0523

     24  H    Isotropic =    24.5572   Anisotropy =     6.4209

     25  H    Isotropic =    24.9090   Anisotropy =    13.4058

     26  C    Isotropic =    35.8779   Anisotropy =   206.0107

     27  C    Isotropic =    40.0210   Anisotropy =   187.5897

     28  C    Isotropic =    48.9762   Anisotropy =   185.7327

     29  C    Isotropic =    48.2198   Anisotropy =   191.3106

     30  C    Isotropic =    49.4887   Anisotropy =   189.4665

     31  C    Isotropic =    39.0602   Anisotropy =   187.3820

     32  H    Isotropic =    23.9149   Anisotropy =     6.4100

     33  H    Isotropic =    24.7865   Anisotropy =     3.9341

     34  H    Isotropic =    24.3661   Anisotropy =     3.8343

     35  H    Isotropic =    24.2072   Anisotropy =     5.4681

     36  H    Isotropic =    23.7500   Anisotropy =     9.6578

     37  H    Isotropic =    29.2320   Anisotropy =     8.2303

     38  H    Isotropic =    28.8722   Anisotropy =     5.7154

     39  O    Isotropic =   286.5399   Anisotropy =    86.3980

     40  C    Isotropic =    97.2705   Anisotropy =    47.1619

     41  H    Isotropic =    27.8838   Anisotropy =     5.0258

     42  C    Isotropic =    33.1423   Anisotropy =   194.7145

     43  C    Isotropic =    52.3423   Anisotropy =   174.6234

     44  C    Isotropic =    50.4781   Anisotropy =   192.1917

     45  C    Isotropic =    51.5410   Anisotropy =   183.3026

     46  H    Isotropic =    25.3834   Anisotropy =     8.3987

     47  C    Isotropic =    50.1208   Anisotropy =   184.4373

     48  H    Isotropic =    23.9205   Anisotropy =    11.4354

     49  C    Isotropic =    52.1427   Anisotropy =   181.7454

     50  H    Isotropic =    24.6157   Anisotropy =     5.6049

     51  H    Isotropic =    24.2744   Anisotropy =     5.9554

     52  H    Isotropic =    24.5003   Anisotropy =     4.0423

     53  C    Isotropic =   113.8504   Anisotropy =    36.6574

     54  H    Isotropic =    29.9258   Anisotropy =     4.1017

     55  C    Isotropic =   169.3361   Anisotropy =    23.8662

     56  H    Isotropic =    31.4312   Anisotropy =     7.6645

     57  H    Isotropic =    32.0224   Anisotropy =    10.5142

     58  H    Isotropic =    31.5901   Anisotropy =     9.6664

     59  N    Isotropic =   205.0290   Anisotropy =    58.1480

     60  H    Isotropic =    32.6603   Anisotropy =    10.4325

     61  C    Isotropic =   145.6654   Anisotropy =    55.5270

     62  H    Isotropic =    29.6083   Anisotropy =     6.6267

     63  H    Isotropic =    29.4468   Anisotropy =     9.1924

     64  H    Isotropic =    29.7145   Anisotropy =    11.2373

 The electronic state is 1-A.
 Alpha  occ. eigenvalues --  -77.07045 -77.04800 -19.13130 -14.30553 -10.23316
 Alpha  occ. eigenvalues --  -10.20609 -10.19633 -10.18512 -10.18318 -10.18314
 Alpha  occ. eigenvalues --  -10.18279 -10.18270 -10.18164 -10.18134 -10.18132
 Alpha  occ. eigenvalues --  -10.17966 -10.17620 -10.17579 -10.17571 -10.17570
 Alpha  occ. eigenvalues --  -10.17552 -10.17517 -10.17511 -10.17483 -10.17454
 Alpha  occ. eigenvalues --  -10.17403 -10.17398 -10.17368 -10.17334 -10.17260
 Alpha  occ. eigenvalues --  -10.17131 -10.17070 -10.16043  -6.55107  -6.53360
 Alpha  occ. eigenvalues --   -4.71426  -4.71180  -4.70672  -4.69514  -4.69480
 Alpha  occ. eigenvalues --   -4.68993  -1.01996  -0.91131  -0.86451  -0.86029
 Alpha  occ. eigenvalues --   -0.85676  -0.85581  -0.78890  -0.77325  -0.75477
 Alpha  occ. eigenvalues --   -0.75441  -0.74926  -0.74826  -0.74803  -0.74655
 Alpha  occ. eigenvalues --   -0.74480  -0.72548  -0.69001  -0.66805  -0.63601
 Alpha  occ. eigenvalues --   -0.62199  -0.61239  -0.60800  -0.60657  -0.60378
 Alpha  occ. eigenvalues --   -0.60348  -0.60023  -0.58365  -0.55945  -0.54359
 Alpha  occ. eigenvalues --   -0.52353  -0.52193  -0.51746  -0.50351  -0.49106
 Alpha  occ. eigenvalues --   -0.48056  -0.47247  -0.46917  -0.46047  -0.45968
 Alpha  occ. eigenvalues --   -0.45493  -0.45346  -0.45306  -0.45105  -0.44778
 Alpha  occ. eigenvalues --   -0.44434  -0.43217  -0.42954  -0.42709  -0.42442
 Alpha  occ. eigenvalues --   -0.42277  -0.41994  -0.41912  -0.41654  -0.39995
 Alpha  occ. eigenvalues --   -0.39132  -0.38617  -0.38316  -0.37682  -0.37447
 Alpha  occ. eigenvalues --   -0.37281  -0.36993  -0.36475  -0.35847  -0.35293
 Alpha  occ. eigenvalues --   -0.35258  -0.34960  -0.34779  -0.34581  -0.34576
 Alpha  occ. eigenvalues --   -0.32944  -0.32432  -0.31683  -0.29990  -0.27187
 Alpha  occ. eigenvalues --   -0.26658  -0.26469  -0.26091  -0.25808  -0.25663
 Alpha  occ. eigenvalues --   -0.25563  -0.25067  -0.23238  -0.21578  -0.17953
 Alpha virt. eigenvalues --   -0.03649  -0.02891  -0.02270  -0.01807  -0.01492
 Alpha virt. eigenvalues --   -0.01392  -0.01202  -0.01044   0.01936   0.02259
 Alpha virt. eigenvalues --    0.03678   0.04279   0.04475   0.05075   0.05332

 Mulliken charges:
               1
     1  P    0.291251
     2  C    0.148969
     3  C   -0.209829
     4  C   -0.096075
     5  C   -0.112591
     6  C   -0.114339
     7  C   -0.217423
     8  H    0.107538
     9  H    0.103903
    10  H    0.107540
    11  H    0.107895
    12  H    0.109860
    13  C   -0.352114
    14  P    0.179028
    15  C    0.081595
    16  C   -0.180117
    17  C   -0.117212
    18  C   -0.113270
    19  C   -0.117302
    20  C   -0.207267
    21  H    0.111956
    22  H    0.105595
    23  H    0.106026
    24  H    0.106561
    25  H    0.136178
    26  C    0.015717
    27  C   -0.199807
    28  C   -0.099795
    29  C   -0.096655
    30  C   -0.094375
    31  C   -0.142600
    32  H    0.121851
    33  H    0.112455
    34  H    0.111318
    35  H    0.109402
    36  H    0.125163
    37  H    0.111623
    38  H    0.135640
    39  O   -0.407609
    40  C    0.132590
    41  H    0.105720
    42  C    0.159738
    43  C   -0.228247
    44  C   -0.215142
    45  C   -0.101658
    46  H    0.103311
    47  C   -0.078943
    48  H    0.129700
    49  C   -0.119536
    50  H    0.104112
    51  H    0.106851
    52  H    0.106281
    53  C    0.106225
    54  H    0.062593
    55  C   -0.436147
    56  H    0.126714
    57  H    0.109269
    58  H    0.149932
    59  N   -0.349027
    60  H    0.192685
    61  C   -0.271494
    62  H    0.113411
    63  H    0.119520
    64  H    0.102860
 Sum of Mulliken charges =  -0.00000

 Dipole moment (field-independent basis, Debye):
    X=             -1.2288    Y=             -0.6173    Z=              3.7306  Tot=              3.9760
 Quadrupole moment (field-independent basis, Debye-Ang):
   XX=           -205.6800   YY=           -192.8697   ZZ=           -208.8214
   XY=             -0.5997   XZ=              6.3891   YZ=              3.4988

 Summary of Natural Population Analysis:

                                       Natural Population
                Natural  -----------------------------------------------
    Atom  No    Charge         Core      Valence    Rydberg      Total
 -----------------------------------------------------------------------
      P    1    1.15166      9.99810     3.79205    0.05819    13.84834
      C    2   -0.36760      1.99899     4.33398    0.03463     6.36760
      C    3   -0.19709      1.99910     4.17683    0.02117     6.19709
      C    4   -0.20381      1.99918     4.18493    0.01969     6.20381
      C    5   -0.21073      1.99919     4.19185    0.01970     6.21073
      C    6   -0.20651      1.99919     4.18790    0.01942     6.20651
      C    7   -0.20117      1.99908     4.18210    0.01999     6.20117
      H    8    0.20004      0.00000     0.79749    0.00247     0.79996
      H    9    0.20501      0.00000     0.79357    0.00143     0.79499
      H   10    0.20725      0.00000     0.79153    0.00121     0.79275
      H   11    0.20801      0.00000     0.79066    0.00133     0.79199
      H   12    0.21468      0.00000     0.78345    0.00187     0.78532
      C   13   -1.04370      1.99945     5.00910    0.03515     7.04370
      P   14    0.83161      9.99815     4.13611    0.03413    14.16839
      C   15   -0.31513      1.99899     4.28635    0.02980     6.31513
      C   16   -0.21339      1.99908     4.19426    0.02005     6.21339
      C   17   -0.19470      1.99919     4.17661    0.01890     6.19470
      C   18   -0.21840      1.99919     4.19952    0.01970     6.21840
      C   19   -0.19560      1.99919     4.17745    0.01897     6.19560
      C   20   -0.21393      1.99909     4.19505    0.01979     6.21393
      H   21    0.19988      0.00000     0.79798    0.00214     0.80012
      H   22    0.20723      0.00000     0.79146    0.00131     0.79277
      H   23    0.20711      0.00000     0.79169    0.00120     0.79289
      H   24    0.20718      0.00000     0.79151    0.00132     0.79282
      H   25    0.21352      0.00000     0.78467    0.00181     0.78648
      C   26   -0.34066      1.99901     4.30837    0.03328     6.34066
      C   27   -0.19842      1.99908     4.17928    0.02006     6.19842
      C   28   -0.20993      1.99919     4.19160    0.01915     6.20993
      C   29   -0.19608      1.99919     4.17787    0.01902     6.19608
      C   30   -0.20105      1.99918     4.18238    0.01948     6.20105
      C   31   -0.18368      1.99910     4.16402    0.02056     6.18368
      H   32    0.22375      0.00000     0.77469    0.00156     0.77625
      H   33    0.21302      0.00000     0.78571    0.00128     0.78698
      H   34    0.20871      0.00000     0.79012    0.00118     0.79129
      H   35    0.20786      0.00000     0.79075    0.00139     0.79214
      H   36    0.21117      0.00000     0.78653    0.00231     0.78883
      H   37    0.25232      0.00000     0.74589    0.00179     0.74768
      H   38    0.24673      0.00000     0.75006    0.00321     0.75327
      O   39   -0.79127      1.99980     6.77424    0.01723     8.79127
      C   40    0.08754      1.99905     3.88684    0.02657     5.91246
      H   41    0.18271      0.00000     0.81399    0.00330     0.81729
      C   42   -0.03966      1.99903     4.01702    0.02361     6.03966
      C   43   -0.20611      1.99908     4.18857    0.01846     6.20611
      C   44   -0.19918      1.99907     4.18141    0.01869     6.19918
      C   45   -0.20156      1.99919     4.18355    0.01882     6.20156
      H   46    0.20267      0.00000     0.79555    0.00178     0.79733
      C   47   -0.20055      1.99919     4.18210    0.01926     6.20055
      H   48    0.22603      0.00000     0.77250    0.00147     0.77397
      C   49   -0.21343      1.99919     4.19515    0.01910     6.21343
      H   50    0.20633      0.00000     0.79240    0.00128     0.79367
      H   51    0.20733      0.00000     0.79145    0.00122     0.79267
      H   52    0.20706      0.00000     0.79176    0.00117     0.79294
      C   53   -0.05623      1.99932     4.03883    0.01808     6.05623
      H   54    0.17102      0.00000     0.82480    0.00419     0.82898
      C   55   -0.60988      1.99941     4.59759    0.01288     6.60988
      H   56    0.21948      0.00000     0.77947    0.00105     0.78052
      H   57    0.20200      0.00000     0.79690    0.00110     0.79800
      H   58    0.21873      0.00000     0.77973    0.00154     0.78127
      N   59   -0.62040      1.99955     5.59152    0.02933     7.62040
      H   60    0.36009      0.00000     0.63718    0.00273     0.63991
      C   61   -0.39891      1.99941     4.38866    0.01084     6.39891
      H   62    0.18158      0.00000     0.81663    0.00179     0.81842
      H   63    0.19757      0.00000     0.80105    0.00138     0.80243
      H   64    0.16189      0.00000     0.83503    0.00308     0.83811
 =======================================================================
   * Total *   -0.00000     81.97119   167.21925    0.80956   250.00000

 1\1\GINC-G4NODEC5\SP\RB3LYP\def2TZVP\C29H31N1O1P2\ROOT\24-Jan-2025\0\\
 # nmr=giao b3lyp/def2TZVP pop=nbo scfcyc=200\\MB-103 SPE NoRh\\0,1\P,0
 ,-0.396,1.106,0.432\C,0,-0.612,2.795,1.121\C,0,-1.049,3.794,0.243\C,0,
 -1.19,5.105,0.683\C,0,-0.88,5.436,1.998\C,0,-0.438,4.45,2.874\C,0,-0.3
 06,3.135,2.441\H,0,0.015,2.38,3.146\H,0,-0.201,4.702,3.9\H,0,-0.983,6.
 458,2.34\H,0,-1.539,5.868,-0.003\H,0,-1.298,3.549,-0.783\C,0,0.17,-0.0
 48,1.777\P,0,1.247,-1.106,0.66\C,0,2.766,-1.568,1.596\C,0,3.323,-2.844
 ,1.471\C,0,4.52,-3.152,2.11\C,0,5.174,-2.192,2.874\C,0,4.633,-0.915,2.

 Normal termination of Gaussian 16 at Fri Jan 24 02:11:42 2025.
