 Gaussian 16, Revision B.01,
 Gaussian 16:  ES64L-G16RevB.01 20-Dec-2017

 --------------------------------------------
 # nmr=giao b3lyp/def2TZVP pop=nbo scfcyc=200
 --------------------------------------------

 --------------
 MB-12 SPE NoRh
 --------------
 Symbolic Z-matrix:
 Charge =  0 Multiplicity = 1

                         Standard orientation:
 ---------------------------------------------------------------------
 Center     Atomic      Atomic             Coordinates (Angstroms)
 Number     Number       Type             X           Y           Z
 ---------------------------------------------------------------------
      1         15           0        1.393399    0.090003   -0.356096
      2         15           0       -1.400639    0.099388   -0.549129
      3          6           0       -0.089421    0.314408    0.768902
      4          1           0       -0.126472    1.339012    1.138694
      5          1           0       -0.137509   -0.357368    1.624412
      6          6           0        2.705544    1.301804    0.239905
      7          1           0        2.847584    1.078702    1.300697
      8          6           0        2.218120    2.749345    0.105472
      9          1           0        2.992655    3.426999    0.471839
     10          1           0        1.317355    2.947068    0.687449
     11          1           0        2.011658    3.009529   -0.934209
     12          6           0        4.040112    1.099862   -0.489902
     13          1           0        3.940824    1.250290   -1.566842
     14          1           0        4.464803    0.111386   -0.322705
     15          1           0        4.765288    1.830463   -0.126576
     16          6           0        1.958265   -1.657023    0.098788
     17          1           0        1.003833   -2.189334    0.147729
     18          6           0        2.800450   -2.337735   -0.984741
     19          1           0        3.760982   -1.843584   -1.137416
     20          1           0        2.276150   -2.369765   -1.939783
     21          1           0        3.011241   -3.367116   -0.687623
     22          6           0        2.619075   -1.737380    1.480067
     23          1           0        2.749198   -2.785616    1.760243
     24          1           0        2.022518   -1.264718    2.262193
     25          1           0        3.608085   -1.276220    1.484079
     26          6           0       -2.737160    1.383986   -0.216842
     27          1           0       -3.459985    1.214423   -1.020618
     28          6           0       -2.168620    2.800282   -0.379257
     29          1           0       -2.986253    3.523188   -0.377048
     30          1           0       -1.609387    2.920296   -1.307080
     31          1           0       -1.506796    3.064728    0.449133
     32          6           0       -3.454248    1.233395    1.129765
     33          1           0       -2.756401    1.283684    1.968294
     34          1           0       -4.012855    0.302282    1.206945
     35          1           0       -4.167743    2.051440    1.252993
     36          6           0       -2.144223   -1.630040   -0.356934
     37          1           0       -1.397477   -2.253619   -0.857242
     38          6           0       -3.448613   -1.740531   -1.158633
     39          1           0       -3.758188   -2.786328   -1.208448
     40          1           0       -3.340577   -1.383053   -2.183827
     41          1           0       -4.261711   -1.182970   -0.690654
     42          6           0       -2.310282   -2.150341    1.074650
     43          1           0       -3.031374   -1.571205    1.650116
     44          1           0       -1.370798   -2.163622    1.628467
     45          1           0       -2.674055   -3.180027    1.037720
 ---------------------------------------------------------------------

 SCF Done:  E(RB3LYP) =  -1196.39454222     A.U. after   13 cycles

      1  P    Isotropic =   219.4801   Anisotropy =   108.7489

      2  P    Isotropic =   230.5632   Anisotropy =    70.7127

      3  C    Isotropic =   171.2233   Anisotropy =    17.6385

      4  H    Isotropic =    30.7829   Anisotropy =     6.6809

      5  H    Isotropic =    30.5326   Anisotropy =     5.1407

      6  C    Isotropic =   153.2965   Anisotropy =    22.8654

      7  H    Isotropic =    29.8582   Anisotropy =     3.6846

      8  C    Isotropic =   162.6304   Anisotropy =    32.3486

      9  H    Isotropic =    30.9125   Anisotropy =    10.2372

     10  H    Isotropic =    30.8467   Anisotropy =     7.9980

     11  H    Isotropic =    31.0328   Anisotropy =     7.0293

     12  C    Isotropic =   163.0403   Anisotropy =    32.4416

     13  H    Isotropic =    31.1725   Anisotropy =     7.4495

     14  H    Isotropic =    31.0408   Anisotropy =     7.8661

     15  H    Isotropic =    30.9974   Anisotropy =    10.6757

     16  C    Isotropic =   148.6023   Anisotropy =    16.2063

     17  H    Isotropic =    30.5905   Anisotropy =     8.0488

     18  C    Isotropic =   159.6893   Anisotropy =    35.0153

     19  H    Isotropic =    30.9597   Anisotropy =     6.9549

     20  H    Isotropic =    30.4000   Anisotropy =     8.3307

     21  H    Isotropic =    30.8807   Anisotropy =    10.2954

     22  C    Isotropic =   166.1839   Anisotropy =    26.6310

     23  H    Isotropic =    30.7258   Anisotropy =    10.5969

     24  H    Isotropic =    30.5169   Anisotropy =     6.2290

     25  H    Isotropic =    30.8648   Anisotropy =     6.7271

     26  C    Isotropic =   148.4952   Anisotropy =    19.3219

     27  H    Isotropic =    30.1124   Anisotropy =     6.2009

     28  C    Isotropic =   161.1582   Anisotropy =    35.3143

     29  H    Isotropic =    30.8447   Anisotropy =    10.4092

     30  H    Isotropic =    30.5772   Anisotropy =     8.2580

     31  H    Isotropic =    31.1231   Anisotropy =     5.3873

     32  C    Isotropic =   161.5075   Anisotropy =    29.3146

     33  H    Isotropic =    31.0934   Anisotropy =     4.4355

     34  H    Isotropic =    30.6180   Anisotropy =     6.6674

     35  H    Isotropic =    30.9060   Anisotropy =    11.0565

     36  C    Isotropic =   151.0465   Anisotropy =    12.6357

     37  H    Isotropic =    29.8820   Anisotropy =     7.0505

     38  C    Isotropic =   164.3872   Anisotropy =    30.8391

     39  H    Isotropic =    30.7613   Anisotropy =    10.6558

     40  H    Isotropic =    30.5438   Anisotropy =     9.0264

     41  H    Isotropic =    31.1037   Anisotropy =     6.7607

     42  C    Isotropic =   164.3223   Anisotropy =    25.1681

     43  H    Isotropic =    30.8836   Anisotropy =     6.3393

     44  H    Isotropic =    30.5222   Anisotropy =     6.3120

     45  H    Isotropic =    30.8655   Anisotropy =    10.5192

 The electronic state is 1-A.
 Alpha  occ. eigenvalues --  -77.03026 -77.02882 -10.18160 -10.17986 -10.17699
 Alpha  occ. eigenvalues --  -10.17524 -10.17378 -10.16474 -10.16290 -10.16229
 Alpha  occ. eigenvalues --  -10.16193 -10.16177 -10.16121 -10.15993 -10.15979
 Alpha  occ. eigenvalues --   -6.51598  -6.51479  -4.67762  -4.67689  -4.67649
 Alpha  occ. eigenvalues --   -4.67577  -4.67226  -4.67086  -0.80557  -0.79869
 Alpha  occ. eigenvalues --   -0.78206  -0.78072  -0.72501  -0.68979  -0.68751
 Alpha  occ. eigenvalues --   -0.68630  -0.68595  -0.62855  -0.60861  -0.58590
 Alpha  occ. eigenvalues --   -0.58301  -0.51778  -0.51319  -0.46769  -0.46461
 Alpha  occ. eigenvalues --   -0.45914  -0.44961  -0.44564  -0.43805  -0.43432
 Alpha  occ. eigenvalues --   -0.41836  -0.41294  -0.40760  -0.40323  -0.40273
 Alpha  occ. eigenvalues --   -0.39625  -0.39018  -0.38904  -0.38465  -0.38408
 Alpha  occ. eigenvalues --   -0.36275  -0.35309  -0.35223  -0.34863  -0.34748
 Alpha  occ. eigenvalues --   -0.34641  -0.34305  -0.34043  -0.33435  -0.29623
 Alpha  occ. eigenvalues --   -0.28993  -0.28639  -0.21526  -0.17565
 Alpha virt. eigenvalues --    0.01646   0.02287   0.02802   0.03097   0.04179
 Alpha virt. eigenvalues --    0.05520   0.05924   0.06598   0.07019   0.07190
 Alpha virt. eigenvalues --    0.07630   0.08074   0.08506   0.08737   0.09204

 Mulliken charges:
               1
     1  P    0.156542
     2  P    0.125717
     3  C   -0.377842
     4  H    0.111070
     5  H    0.114816
     6  C   -0.059475
     7  H    0.073032
     8  C   -0.346253
     9  H    0.107538
    10  H    0.100348
    11  H    0.115789
    12  C   -0.346435
    13  H    0.112508
    14  H    0.105048
    15  H    0.107800
    16  C   -0.091725
    17  H    0.077027
    18  C   -0.324576
    19  H    0.102747
    20  H    0.119473
    21  H    0.103992
    22  C   -0.358392
    23  H    0.107347
    24  H    0.114289
    25  H    0.109858
    26  C   -0.074719
    27  H    0.083517
    28  C   -0.350130
    29  H    0.111318
    30  H    0.128876
    31  H    0.093659
    32  C   -0.333788
    33  H    0.106469
    34  H    0.102464
    35  H    0.100342
    36  C   -0.071356
    37  H    0.084162
    38  C   -0.369330
    39  H    0.112110
    40  H    0.126708
    41  H    0.108801
    42  C   -0.334615
    43  H    0.106250
    44  H    0.106505
    45  H    0.102513
 Sum of Mulliken charges =  -0.00000

 Dipole moment (field-independent basis, Debye):
    X=             -0.2896    Y=             -0.3892    Z=              1.7751  Tot=              1.8402
 Quadrupole moment (field-independent basis, Debye-Ang):
   XX=           -112.0973   YY=           -112.6629   ZZ=           -120.3981
   XY=              0.3011   XZ=              1.5411   YZ=              1.1629

 Summary of Natural Population Analysis:

                                       Natural Population
                Natural  -----------------------------------------------
    Atom  No    Charge         Core      Valence    Rydberg      Total
 -----------------------------------------------------------------------
      P    1    0.78914      9.99859     4.17791    0.03436    14.21086
      P    2    0.78186      9.99865     4.18583    0.03367    14.21814
      C    3   -1.03143      1.99946     5.00020    0.03177     7.03143
      H    4    0.24370      0.00000     0.75392    0.00238     0.75630
      H    5    0.22857      0.00000     0.76828    0.00315     0.77143
      C    6   -0.48392      1.99945     4.46202    0.02245     6.48392
      H    7    0.19321      0.00000     0.80338    0.00341     0.80679
      C    8   -0.59194      1.99943     4.58111    0.01140     6.59194
      H    9    0.20348      0.00000     0.79491    0.00162     0.79652
      H   10    0.19826      0.00000     0.80031    0.00144     0.80174
      H   11    0.20552      0.00000     0.79269    0.00179     0.79448
      C   12   -0.59510      1.99943     4.58412    0.01155     6.59510
      H   13    0.20541      0.00000     0.79265    0.00194     0.79459
      H   14    0.20066      0.00000     0.79775    0.00159     0.79934
      H   15    0.20283      0.00000     0.79555    0.00163     0.79717
      C   16   -0.47097      1.99945     4.44823    0.02329     6.47097
      H   17    0.20567      0.00000     0.79222    0.00211     0.79433
      C   18   -0.59244      1.99942     4.58120    0.01182     6.59244
      H   19    0.19778      0.00000     0.80075    0.00147     0.80222
      H   20    0.21398      0.00000     0.78467    0.00136     0.78602
      H   21    0.19896      0.00000     0.79941    0.00163     0.80104
      C   22   -0.60102      1.99943     4.58951    0.01208     6.60102
      H   23    0.19976      0.00000     0.79837    0.00188     0.80024
      H   24    0.20077      0.00000     0.79766    0.00157     0.79923
      H   25    0.19796      0.00000     0.80053    0.00151     0.80204
      C   26   -0.47849      1.99944     4.45631    0.02274     6.47849
      H   27    0.21247      0.00000     0.78571    0.00181     0.78753
      C   28   -0.59387      1.99943     4.58287    0.01157     6.59387
      H   29    0.20408      0.00000     0.79431    0.00161     0.79592
      H   30    0.21613      0.00000     0.78243    0.00144     0.78387
      H   31    0.19107      0.00000     0.80727    0.00167     0.80893
      C   32   -0.59893      1.99943     4.58783    0.01168     6.59893
      H   33    0.19632      0.00000     0.80219    0.00149     0.80368
      H   34    0.19919      0.00000     0.79926    0.00155     0.80081
      H   35    0.19563      0.00000     0.80228    0.00209     0.80437
      C   36   -0.47145      1.99943     4.44940    0.02262     6.47145
      H   37    0.20980      0.00000     0.78844    0.00176     0.79020
      C   38   -0.59528      1.99943     4.58423    0.01162     6.59528
      H   39    0.20441      0.00000     0.79393    0.00166     0.79559
      H   40    0.21297      0.00000     0.78550    0.00152     0.78703
      H   41    0.19648      0.00000     0.80204    0.00148     0.80352
      C   42   -0.59776      1.99942     4.58643    0.01191     6.59776
      H   43    0.19966      0.00000     0.79891    0.00143     0.80034
      H   44    0.19825      0.00000     0.80032    0.00143     0.80175
      H   45    0.19866      0.00000     0.79938    0.00197     0.80134
 =======================================================================
   * Total *   -0.00000     45.98988    91.67220    0.33792   138.00000

 Normal termination of Gaussian 16 at Thu Jan 23 19:42:20 2025.
