 Gaussian 16, Revision B.01,
 Gaussian 16:  ES64L-G16RevB.01 20-Dec-2017

 --------------------------------------------
 # nmr=giao b3lyp/def2TZVP pop=nbo scfcyc=200
 --------------------------------------------

 ---------------
 MB-100 SPE NoRh
 ---------------
 Symbolic Z-matrix:
 Charge =  0 Multiplicity = 1

                         Standard orientation:
 ---------------------------------------------------------------------
 Center     Atomic      Atomic             Coordinates (Angstroms)
 Number     Number       Type             X           Y           Z
 ---------------------------------------------------------------------
      1         15           0        1.447165    0.175702   -0.491772
      2         15           0       -1.467487   -0.002526   -0.487881
      3          6           0       -0.003070    0.059410    0.701334
      4          1           0       -0.081832    0.884810    1.402479
      5          1           0        0.116222   -0.857486    1.264803
      6          6           0        1.522498    2.840238    0.219740
      7          1           0        0.483075    2.518104    0.258026
      8          6           0        3.779309    1.861473   -0.270897
      9          1           0        3.867048    2.946162   -0.221357
     10          6           0        2.930868   -1.987101   -1.280248
     11          1           0        2.905307   -1.301327   -2.122122
     12          6           0        2.897574   -1.599684    1.241603
     13          1           0        3.985292   -1.554767    1.177871
     14          6           0       -2.479500    2.520519   -1.030557
     15          1           0       -1.701870    2.300432   -1.761177
     16          6           0       -3.394808    1.493679    1.061953
     17          1           0       -3.623738    2.558419    1.089034
     18          6           0       -2.944146   -2.266982   -1.187352
     19          1           0       -3.534483   -3.013390   -0.655378
     20          6           0       -2.117613   -2.214932    1.189977
     21          1           0       -1.569785   -1.548182    1.851378
     22          6           0        4.283030    1.468871   -1.664183
     23          1           0        4.216389    0.396038   -1.839423
     24          1           0        3.737261    1.986602   -2.450886
     25          1           0        5.334960    1.744846   -1.760555
     26          6           0        1.851220    3.468772    1.580153
     27          1           0        2.877422    3.838327    1.616563
     28          1           0        1.193350    4.318232    1.773531
     29          1           0        1.723788    2.747027    2.389283
     30          6           0        2.039148   -3.168235   -1.677687
     31          1           0        2.409811   -3.615463   -2.603435
     32          1           0        2.015126   -3.951727   -0.922332
     33          1           0        1.018112   -2.829010   -1.853575
     34          6           0        2.500393   -0.683297    2.406783
     35          1           0        2.545874    0.371344    2.156189
     36          1           0        1.505754   -0.910687    2.791570
     37          1           0        3.201720   -0.862519    3.223947
     38          6           0       -1.306750   -3.513693    1.077110
     39          1           0       -1.066846   -3.885012    2.075714
     40          1           0       -1.872440   -4.298944    0.572346
     41          1           0       -0.376660   -3.362627    0.531108
     42          6           0       -3.952349   -1.432276   -1.981001
     43          1           0       -4.696486   -0.982818   -1.326691
     44          1           0       -3.473902   -0.631093   -2.544767
     45          1           0       -4.471739   -2.070737   -2.697874
     46          6           0       -3.808492    2.719885   -1.772635
     47          1           0       -4.597666    3.050555   -1.094621
     48          1           0       -3.699705    3.493645   -2.536368
     49          1           0       -4.149367    1.804572   -2.257908
     50          6           0       -2.736168    1.199760    2.412179
     51          1           0       -2.450614    0.155115    2.530738
     52          1           0       -1.850197    1.818464    2.560954
     53          1           0       -3.438472    1.431808    3.214485
     54          7           0       -2.485477    1.349385   -0.112225
     55          7           0       -2.249312   -1.495938   -0.112745
     56          7           0        2.397013   -1.199455   -0.122001
     57          7           0        2.327133    1.610961   -0.019203
     58          6           0       -4.744201    0.783205    0.898773
     59          1           0       -5.266562    1.136538    0.011480
     60          1           0       -4.632358   -0.292553    0.814574
     61          1           0       -5.379747    0.992723    1.763278
     62          6           0       -1.985093   -3.033563   -2.108684
     63          1           0       -1.448490   -3.812066   -1.571074
     64          1           0       -2.539122   -3.512383   -2.919608
     65          1           0       -1.243113   -2.365492   -2.545826
     66          6           0       -2.079546    3.837124   -0.343431
     67          1           0       -1.848928    4.587269   -1.101816
     68          1           0       -2.883838    4.247964    0.268962
     69          1           0       -1.203487    3.714435    0.291102
     70          6           0        4.718916    1.330438    0.817437
     71          1           0        4.804775    0.246521    0.801855
     72          1           0        5.718348    1.739863    0.655087
     73          1           0        4.392704    1.639366    1.810029
     74          6           0        1.599628    3.884682   -0.904327
     75          1           0        0.944314    4.724275   -0.669692
     76          1           0        2.603619    4.291542   -1.030585
     77          1           0        1.274051    3.463022   -1.854860
     78          6           0        2.533592   -3.039918    1.624348
     79          1           0        2.929605   -3.781482    0.934754
     80          1           0        2.954146   -3.255952    2.608570
     81          1           0        1.453788   -3.173929    1.686400
     82          6           0        4.397521   -2.409210   -1.134284
     83          1           0        4.735146   -2.821579   -2.087461
     84          1           0        5.046600   -1.566780   -0.893912
     85          1           0        4.548612   -3.182256   -0.381824
     86          6           0       -3.453035   -2.511767    1.888498
     87          1           0       -3.252231   -3.048630    2.818348
     88          1           0       -3.999235   -1.607951    2.143175
     89          1           0       -4.103529   -3.147881    1.287903
 ---------------------------------------------------------------------

 SCF Done:  E(RB3LYP) =  -1889.77123147     A.U. after   18 cycles

      1  P    Isotropic =   121.5302   Anisotropy =   161.2043

      2  P    Isotropic =   163.5632   Anisotropy =   145.9672

      3  C    Isotropic =   136.6429   Anisotropy =    32.6832

      4  H    Isotropic =    29.8951   Anisotropy =     5.9101

      5  H    Isotropic =    29.1332   Anisotropy =     8.8842

      6  C    Isotropic =   129.6854   Anisotropy =    41.0095

      7  H    Isotropic =    28.7559   Anisotropy =     7.9579

      8  C    Isotropic =   131.8007   Anisotropy =    38.9431

      9  H    Isotropic =    28.5663   Anisotropy =     3.5154

     10  C    Isotropic =   122.3072   Anisotropy =    55.4883

     11  H    Isotropic =    28.2328   Anisotropy =     2.7073

     12  C    Isotropic =   125.4186   Anisotropy =    45.0863

     13  H    Isotropic =    28.3104   Anisotropy =     3.1239

     14  C    Isotropic =   122.9241   Anisotropy =    52.7205

     15  H    Isotropic =    28.1442   Anisotropy =     2.4993

     16  C    Isotropic =   130.5143   Anisotropy =    40.1183

     17  H    Isotropic =    28.5443   Anisotropy =     4.1220

     18  C    Isotropic =   131.2549   Anisotropy =    39.8901

     19  H    Isotropic =    28.5596   Anisotropy =     3.1518

     20  C    Isotropic =   124.5579   Anisotropy =    46.5899

     21  H    Isotropic =    27.9045   Anisotropy =     3.8968

     22  C    Isotropic =   161.1258   Anisotropy =    31.6661

     23  H    Isotropic =    30.4639   Anisotropy =     7.0853

     24  H    Isotropic =    30.7010   Anisotropy =     7.4198

     25  H    Isotropic =    31.0743   Anisotropy =    10.3576

     26  C    Isotropic =   159.4589   Anisotropy =    36.8747

     27  H    Isotropic =    30.7799   Anisotropy =     6.1999

     28  H    Isotropic =    31.1491   Anisotropy =     9.4534

     29  H    Isotropic =    30.9221   Anisotropy =     5.1100

     30  C    Isotropic =   154.7579   Anisotropy =    40.0799

     31  H    Isotropic =    31.1172   Anisotropy =    10.1909

     32  H    Isotropic =    30.7238   Anisotropy =     3.3562

     33  H    Isotropic =    30.4160   Anisotropy =     9.9523

     34  C    Isotropic =   157.7374   Anisotropy =    21.0458

     35  H    Isotropic =    29.2420   Anisotropy =     8.5422

     36  H    Isotropic =    30.7623   Anisotropy =     4.6777

     37  H    Isotropic =    31.0343   Anisotropy =     9.2798

     38  C    Isotropic =   153.7017   Anisotropy =    33.3620

     39  H    Isotropic =    30.9589   Anisotropy =     8.5840

     40  H    Isotropic =    30.6385   Anisotropy =     5.2379

     41  H    Isotropic =    30.5920   Anisotropy =     9.5364

     42  C    Isotropic =   158.9225   Anisotropy =    32.1071

     43  H    Isotropic =    30.3951   Anisotropy =     6.7061

     44  H    Isotropic =    30.1313   Anisotropy =     4.7989

     45  H    Isotropic =    31.1336   Anisotropy =    10.6835

     46  C    Isotropic =   157.9627   Anisotropy =    36.2809

     47  H    Isotropic =    30.9502   Anisotropy =     5.9240

     48  H    Isotropic =    30.9711   Anisotropy =    10.5394

     49  H    Isotropic =    30.6534   Anisotropy =     6.6256

     50  C    Isotropic =   158.7107   Anisotropy =    27.2400

     51  H    Isotropic =    30.3438   Anisotropy =     5.4206

     52  H    Isotropic =    30.7877   Anisotropy =     6.7041

     53  H    Isotropic =    30.8552   Anisotropy =     9.7742

     54  N    Isotropic =   153.9294   Anisotropy =    40.2292

     55  N    Isotropic =   168.9994   Anisotropy =    37.5614

     56  N    Isotropic =   164.9584   Anisotropy =    36.2273

     57  N    Isotropic =   191.0535   Anisotropy =    84.0994

     58  C    Isotropic =   155.9680   Anisotropy =    30.7908

     59  H    Isotropic =    30.7379   Anisotropy =     5.6077

     60  H    Isotropic =    29.8101   Anisotropy =     6.7324

     61  H    Isotropic =    31.1280   Anisotropy =    10.3085

     62  C    Isotropic =   157.1691   Anisotropy =    36.7404

     63  H    Isotropic =    30.8031   Anisotropy =     5.0248

     64  H    Isotropic =    31.1251   Anisotropy =    10.4989

     65  H    Isotropic =    30.2137   Anisotropy =     5.1248

     66  C    Isotropic =   159.0548   Anisotropy =    40.8645

     67  H    Isotropic =    30.8742   Anisotropy =     8.5600

     68  H    Isotropic =    30.6942   Anisotropy =     5.7795

     69  H    Isotropic =    31.1681   Anisotropy =     9.8856

     70  C    Isotropic =   157.2299   Anisotropy =    35.4565

     71  H    Isotropic =    30.3683   Anisotropy =     5.4578

     72  H    Isotropic =    30.9939   Anisotropy =    10.6917

     73  H    Isotropic =    30.6855   Anisotropy =     4.9058

     74  C    Isotropic =   163.8649   Anisotropy =    33.0241

     75  H    Isotropic =    31.2286   Anisotropy =     8.6382

     76  H    Isotropic =    30.7499   Anisotropy =     6.3068

     77  H    Isotropic =    30.8650   Anisotropy =     6.6372

     78  C    Isotropic =   154.4845   Anisotropy =    34.3122

     79  H    Isotropic =    30.4112   Anisotropy =     5.7919

     80  H    Isotropic =    31.0367   Anisotropy =    10.1714

     81  H    Isotropic =    30.7477   Anisotropy =     8.2602

     82  C    Isotropic =   162.8398   Anisotropy =    28.5699

     83  H    Isotropic =    30.8846   Anisotropy =    10.5128

     84  H    Isotropic =    30.5041   Anisotropy =     7.2099

     85  H    Isotropic =    30.6356   Anisotropy =     6.2355

     86  C    Isotropic =   162.8218   Anisotropy =    31.0421

     87  H    Isotropic =    31.1676   Anisotropy =     9.9316

     88  H    Isotropic =    30.2138   Anisotropy =     8.0192

     89  H    Isotropic =    30.6274   Anisotropy =     6.2850

 The electronic state is 1-A.
 Alpha  occ. eigenvalues --  -77.06020 -77.05962 -14.29968 -14.29949 -14.29106
 Alpha  occ. eigenvalues --  -14.28616 -10.20427 -10.20186 -10.20176 -10.20052
 Alpha  occ. eigenvalues --  -10.19968 -10.19948 -10.19913 -10.19760 -10.15881
 Alpha  occ. eigenvalues --  -10.15783 -10.15778 -10.15756 -10.15730 -10.15665
 Alpha  occ. eigenvalues --  -10.15622 -10.15522 -10.15464 -10.15404 -10.15238
 Alpha  occ. eigenvalues --  -10.15171 -10.15157 -10.14942 -10.14933 -10.14858
 Alpha  occ. eigenvalues --  -10.14659  -6.53914  -6.53828  -4.70148  -4.70055
 Alpha  occ. eigenvalues --   -4.70034  -4.69974  -4.69535  -4.69494  -0.90402
 Alpha  occ. eigenvalues --   -0.90172  -0.88534  -0.88297  -0.78521  -0.78429
 Alpha  occ. eigenvalues --   -0.78348  -0.78134  -0.75868  -0.74806  -0.73030
 Alpha  occ. eigenvalues --   -0.72835  -0.70591  -0.69116  -0.68884  -0.68775
 Alpha  occ. eigenvalues --   -0.68521  -0.68339  -0.68012  -0.67889  -0.67692
 Alpha  occ. eigenvalues --   -0.61545  -0.60282  -0.60120  -0.59862  -0.59456
 Alpha  occ. eigenvalues --   -0.58609  -0.55218  -0.54986  -0.51400  -0.50923
 Alpha  occ. eigenvalues --   -0.49188  -0.48771  -0.48177  -0.47609  -0.47449
 Alpha  occ. eigenvalues --   -0.46641  -0.45091  -0.44847  -0.44719  -0.43720
 Alpha  occ. eigenvalues --   -0.43273  -0.43179  -0.43028  -0.42723  -0.42636
 Alpha  occ. eigenvalues --   -0.42286  -0.42000  -0.41633  -0.41332  -0.40926
 Alpha  occ. eigenvalues --   -0.40588  -0.40535  -0.40301  -0.40207  -0.39735
 Alpha  occ. eigenvalues --   -0.39484  -0.38999  -0.38668  -0.38380  -0.38324
 Alpha  occ. eigenvalues --   -0.38206  -0.38100  -0.37846  -0.37837  -0.37640
 Alpha  occ. eigenvalues --   -0.37368  -0.36604  -0.36385  -0.36160  -0.36080
 Alpha  occ. eigenvalues --   -0.35700  -0.35576  -0.35200  -0.35093  -0.34404
 Alpha  occ. eigenvalues --   -0.34089  -0.33850  -0.33785  -0.33578  -0.32983
 Alpha  occ. eigenvalues --   -0.32606  -0.32549  -0.32378  -0.32055  -0.31704
 Alpha  occ. eigenvalues --   -0.31529  -0.31135  -0.25510  -0.23455  -0.22527
 Alpha  occ. eigenvalues --   -0.21297  -0.18320  -0.16267
 Alpha virt. eigenvalues --    0.01832   0.02082   0.02989   0.03241   0.03725
 Alpha virt. eigenvalues --    0.04359   0.04882   0.05377   0.05673   0.06082
 Alpha virt. eigenvalues --    0.06178   0.06427   0.06615   0.06921   0.07214

 Mulliken charges:
               1
     1  P    0.204454
     2  P    0.189250
     3  C   -0.351026
     4  H    0.122418
     5  H    0.099587
     6  C   -0.050010
     7  H    0.067766
     8  C    0.042162
     9  H    0.062131
    10  C    0.043802
    11  H    0.076865
    12  C   -0.009743
    13  H    0.071602
    14  C    0.018741
    15  H    0.081716
    16  C    0.068955
    17  H    0.052670
    18  C    0.058809
    19  H    0.057991
    20  C   -0.028643
    21  H    0.081840
    22  C   -0.341166
    23  H    0.108918
    24  H    0.116725
    25  H    0.100292
    26  C   -0.328173
    27  H    0.106241
    28  H    0.104508
    29  H    0.111953
    30  C   -0.354179
    31  H    0.098607
    32  H    0.094059
    33  H    0.138721
    34  C   -0.348675
    35  H    0.129424
    36  H    0.107029
    37  H    0.113511
    38  C   -0.396873
    39  H    0.111962
    40  H    0.118761
    41  H    0.152973
    42  C   -0.346111
    43  H    0.113577
    44  H    0.118673
    45  H    0.101805
    46  C   -0.346455
    47  H    0.101175
    48  H    0.105047
    49  H    0.124650
    50  C   -0.363468
    51  H    0.110662
    52  H    0.112011
    53  H    0.108807
    54  N   -0.177992
    55  N   -0.167244
    56  N   -0.190145
    57  N   -0.192411
    58  C   -0.362737
    59  H    0.113420
    60  H    0.115511
    61  H    0.099191
    62  C   -0.366263
    63  H    0.116286
    64  H    0.096202
    65  H    0.125956
    66  C   -0.353610
    67  H    0.111686
    68  H    0.107469
    69  H    0.122856
    70  C   -0.334337
    71  H    0.090204
    72  H    0.104833
    73  H    0.114871
    74  C   -0.331388
    75  H    0.110044
    76  H    0.104651
    77  H    0.122191
    78  C   -0.336894
    79  H    0.104332
    80  H    0.101763
    81  H    0.118114
    82  C   -0.362619
    83  H    0.114404
    84  H    0.127205
    85  H    0.110744
    86  C   -0.340415
    87  H    0.106671
    88  H    0.125543
    89  H    0.105579
 Sum of Mulliken charges =  -0.00000

 Dipole moment (field-independent basis, Debye):
    X=              0.1932    Y=              0.0424    Z=              1.7485  Tot=              1.7597
 Quadrupole moment (field-independent basis, Debye-Ang):
   XX=           -215.0616   YY=           -213.6961   ZZ=           -222.4981
   XY=              0.2454   XZ=             -1.5230   YZ=             -0.6908

 Summary of Natural Population Analysis:

                                       Natural Population
                Natural  -----------------------------------------------
    Atom  No    Charge         Core      Valence    Rydberg      Total
 -----------------------------------------------------------------------
      P    1    1.19587      9.99804     3.75201    0.05408    13.80413
      P    2    1.17367      9.99798     3.77471    0.05364    13.82633
      C    3   -1.09404      1.99943     5.05726    0.03735     7.09404
      H    4    0.24123      0.00000     0.75627    0.00250     0.75877
      H    5    0.24119      0.00000     0.75619    0.00262     0.75881
      C    6   -0.03428      1.99939     4.01703    0.01786     6.03428
      H    7    0.19644      0.00000     0.80029    0.00327     0.80356
      C    8   -0.02658      1.99936     4.00801    0.01922     6.02658
      H    9    0.18542      0.00000     0.81166    0.00292     0.81458
      C   10   -0.03062      1.99935     4.01202    0.01925     6.03062
      H   11    0.20228      0.00000     0.79535    0.00237     0.79772
      C   12   -0.03597      1.99935     4.01666    0.01996     6.03597
      H   13    0.17361      0.00000     0.82317    0.00323     0.82639
      C   14   -0.02785      1.99937     4.01023    0.01825     6.02785
      H   15    0.20717      0.00000     0.79058    0.00226     0.79283
      C   16   -0.03984      1.99937     4.02048    0.01999     6.03984
      H   17    0.18271      0.00000     0.81424    0.00305     0.81729
      C   18   -0.02655      1.99937     4.00808    0.01910     6.02655
      H   19    0.18113      0.00000     0.81585    0.00302     0.81887
      C   20   -0.03236      1.99937     4.01468    0.01831     6.03236
      H   21    0.19251      0.00000     0.80432    0.00317     0.80749
      C   22   -0.60484      1.99940     4.59315    0.01228     6.60484
      H   23    0.20061      0.00000     0.79786    0.00152     0.79939
      H   24    0.20886      0.00000     0.79011    0.00104     0.79114
      H   25    0.20004      0.00000     0.79889    0.00107     0.79996
      C   26   -0.60439      1.99941     4.59235    0.01262     6.60439
      H   27    0.19751      0.00000     0.80126    0.00123     0.80249
      H   28    0.20015      0.00000     0.79856    0.00130     0.79985
      H   29    0.20446      0.00000     0.79432    0.00121     0.79554
      C   30   -0.60214      1.99940     4.59190    0.01084     6.60214
      H   31    0.19968      0.00000     0.79925    0.00107     0.80032
      H   32    0.19353      0.00000     0.80512    0.00135     0.80647
      H   33    0.21634      0.00000     0.78240    0.00126     0.78366
      C   34   -0.61072      1.99940     4.59854    0.01278     6.61072
      H   35    0.22870      0.00000     0.76937    0.00194     0.77130
      H   36    0.19403      0.00000     0.80449    0.00148     0.80597
      H   37    0.20777      0.00000     0.79128    0.00095     0.79223
      C   38   -0.61447      1.99941     4.60203    0.01302     6.61447
      H   39    0.20354      0.00000     0.79528    0.00118     0.79646
      H   40    0.19862      0.00000     0.80003    0.00135     0.80138
      H   41    0.21139      0.00000     0.78695    0.00166     0.78861
      C   42   -0.60061      1.99941     4.58897    0.01223     6.60061
      H   43    0.20719      0.00000     0.79166    0.00115     0.79281
      H   44    0.21052      0.00000     0.78812    0.00136     0.78948
      H   45    0.20087      0.00000     0.79808    0.00105     0.79913
      C   46   -0.60679      1.99942     4.59612    0.01124     6.60679
      H   47    0.19201      0.00000     0.80661    0.00138     0.80799
      H   48    0.20372      0.00000     0.79531    0.00097     0.79628
      H   49    0.21027      0.00000     0.78861    0.00112     0.78973
      C   50   -0.59750      1.99940     4.58586    0.01224     6.59750
      H   51    0.19592      0.00000     0.80269    0.00140     0.80408
      H   52    0.20282      0.00000     0.79603    0.00115     0.79718
      H   53    0.20461      0.00000     0.79437    0.00102     0.79539
      N   54   -0.77024      1.99947     5.73480    0.03597     7.77024
      N   55   -0.76365      1.99948     5.73086    0.03331     7.76365
      N   56   -0.77380      1.99949     5.74183    0.03248     7.77380
      N   57   -0.78283      1.99947     5.74689    0.03646     7.78283
      C   58   -0.60366      1.99940     4.59171    0.01255     6.60366
      H   59    0.20563      0.00000     0.79323    0.00114     0.79437
      H   60    0.20507      0.00000     0.79360    0.00132     0.79493
      H   61    0.19634      0.00000     0.80254    0.00113     0.80366
      C   62   -0.60816      1.99941     4.59649    0.01225     6.60816
      H   63    0.20221      0.00000     0.79670    0.00108     0.79779
      H   64    0.19918      0.00000     0.79971    0.00112     0.80082
      H   65    0.21284      0.00000     0.78566    0.00149     0.78716
      C   66   -0.60582      1.99941     4.59490    0.01152     6.60582
      H   67    0.20832      0.00000     0.79065    0.00103     0.79168
      H   68    0.19267      0.00000     0.80597    0.00136     0.80733
      H   69    0.20199      0.00000     0.79677    0.00124     0.79801
      C   70   -0.59794      1.99940     4.58599    0.01254     6.59794
      H   71    0.19654      0.00000     0.80187    0.00159     0.80346
      H   72    0.19913      0.00000     0.79977    0.00110     0.80087
      H   73    0.20439      0.00000     0.79444    0.00117     0.79561
      C   74   -0.61207      1.99941     4.60013    0.01254     6.61207
      H   75    0.20496      0.00000     0.79386    0.00118     0.79504
      H   76    0.19470      0.00000     0.80409    0.00120     0.80530
      H   77    0.21221      0.00000     0.78671    0.00108     0.78779
      C   78   -0.60175      1.99941     4.58955    0.01279     6.60175
      H   79    0.19963      0.00000     0.79890    0.00147     0.80037
      H   80    0.20233      0.00000     0.79649    0.00118     0.79767
      H   81    0.20060      0.00000     0.79797    0.00143     0.79940
      C   82   -0.61142      1.99940     4.60086    0.01116     6.61142
      H   83    0.21154      0.00000     0.78759    0.00087     0.78846
      H   84    0.20578      0.00000     0.79286    0.00136     0.79422
      H   85    0.19718      0.00000     0.80138    0.00144     0.80282
      C   86   -0.60652      1.99940     4.59454    0.01258     6.60652
      H   87    0.20409      0.00000     0.79479    0.00112     0.79591
      H   88    0.20748      0.00000     0.79138    0.00114     0.79252
      H   89    0.19618      0.00000     0.80253    0.00129     0.80382
 =======================================================================
   * Total *   -0.00000     77.97879   187.30268    0.71853   266.00000

 Normal termination of Gaussian 16 at Fri Jan 24 02:18:25 2025.
