 Gaussian 16, Revision B.01,
 Gaussian 16:  ES64L-G16RevB.01 20-Dec-2017

 --------------------------------------------
 # nmr=giao b3lyp/def2TZVP pop=nbo scfcyc=200
 --------------------------------------------

 ---------------
 MB-116 SPE NoRh
 ---------------
 Symbolic Z-matrix:
 Charge =  0 Multiplicity = 1

                         Standard orientation:
 ---------------------------------------------------------------------
 Center     Atomic      Atomic             Coordinates (Angstroms)
 Number     Number       Type             X           Y           Z
 ---------------------------------------------------------------------
      1         15           0        1.394121    0.447063   -0.752403
      2         15           0       -1.383717    0.476376   -0.745464
      3          6           0        0.012024    0.822380    0.460196
      4          6           0        1.998755   -1.228950   -0.289288
      5          6           0        2.060280   -2.216748   -1.270557
      6          6           0        2.506601   -3.489024   -0.926534
      7          6           0        2.887141   -3.794540    0.372088
      8          6           0        2.814690   -2.796154    1.338274
      9          6           0        2.375502   -1.516289    1.025372
     10          6           0        2.787112    1.603988   -0.396416
     11          6           0        2.520476    2.975895   -0.370911
     12          6           0        3.563587    3.867959   -0.165985
     13          6           0        4.872701    3.429017   -0.002080
     14          6           0        5.119354    2.063412   -0.049990
     15          6           0        4.093989    1.143347   -0.245858
     16          6           0       -2.010150   -1.196057   -0.303880
     17          6           0       -2.376622   -1.502023    1.009761
     18          6           0       -2.837483   -2.778216    1.301933
     19          6           0       -2.942865   -3.754907    0.317238
     20          6           0       -2.574186   -3.430823   -0.980376
     21          6           0       -2.105450   -2.161379   -1.303875
     22          6           0       -2.758677    1.646391   -0.359321
     23          6           0       -4.076892    1.199331   -0.258482
     24          6           0       -5.091524    2.125960   -0.042082
     25          6           0       -4.825095    3.483908    0.074428
     26          6           0       -3.507120    3.909072   -0.040745
     27          6           0       -2.472225    3.010608   -0.263324
     28         17           0        2.585176   -4.730825   -2.159727
     29         17           0        3.287284   -3.164940    2.983329
     30         17           0        3.225360    5.587416   -0.121701
     31         17           0        6.760182    1.484538    0.144070
     32         17           0       -3.298174   -3.171204    2.944625
     33         17           0       -2.694403   -4.645530   -2.237041
     34         17           0       -6.744796    1.565661    0.089587
     35         17           0       -3.144247    5.617680    0.092348
     36          1           0        0.024799    1.881292    0.713965
     37          1           0        0.008105    0.237567    1.379816
     38          1           0        1.756324   -2.010237   -2.286351
     39          1           0        2.343300   -0.763882    1.802119
     40          1           0        5.676877    4.132667    0.154429
     41          1           0       -2.320946   -0.765244    1.800186
     42          1           0       -1.811206   -1.937157   -2.319984
     43          1           0       -5.622924    4.192107    0.246161
     44          1           0        3.231010   -4.786828    0.629329
     45          1           0        1.520891    3.361271   -0.517131
     46          1           0        4.327709    0.088939   -0.270671
     47          1           0       -3.304035   -4.744529    0.558295
     48          1           0       -4.324242    0.150821   -0.337468
     49          1           0       -1.463713    3.387154   -0.365530
 ---------------------------------------------------------------------

 SCF Done:  E(RB3LYP) =  -5325.99777571     A.U. after   15 cycles

      1  P    Isotropic =   235.9391   Anisotropy =   106.9341

      2  P    Isotropic =   234.7434   Anisotropy =   107.2929

      3  C    Isotropic =   143.4698   Anisotropy =    20.5931

      4  C    Isotropic =    36.1946   Anisotropy =   195.3239

      5  C    Isotropic =    42.1263   Anisotropy =   154.1977

      6  C    Isotropic =    31.5144   Anisotropy =   128.2923

      7  C    Isotropic =    46.5677   Anisotropy =   138.0917

      8  C    Isotropic =    30.6595   Anisotropy =   130.1504

      9  C    Isotropic =    43.1415   Anisotropy =   158.2558

     10  C    Isotropic =    28.1608   Anisotropy =   186.3729

     11  C    Isotropic =    51.7494   Anisotropy =   149.1615

     12  C    Isotropic =    31.3655   Anisotropy =   123.2060

     13  C    Isotropic =    51.0736   Anisotropy =   127.8392

     14  C    Isotropic =    31.3433   Anisotropy =   124.1691

     15  C    Isotropic =    52.6758   Anisotropy =   150.2456

     16  C    Isotropic =    36.2849   Anisotropy =   195.2351

     17  C    Isotropic =    43.3284   Anisotropy =   158.3945

     18  C    Isotropic =    30.7752   Anisotropy =   130.2025

     19  C    Isotropic =    46.5340   Anisotropy =   138.1678

     20  C    Isotropic =    31.5724   Anisotropy =   128.1974

     21  C    Isotropic =    41.9171   Anisotropy =   154.2048

     22  C    Isotropic =    27.6365   Anisotropy =   186.5801

     23  C    Isotropic =    52.6977   Anisotropy =   150.2566

     24  C    Isotropic =    31.3672   Anisotropy =   124.2586

     25  C    Isotropic =    51.3142   Anisotropy =   127.4436

     26  C    Isotropic =    31.6083   Anisotropy =   123.1750

     27  C    Isotropic =    52.0731   Anisotropy =   148.8095

     28  Cl   Isotropic =   638.7880   Anisotropy =   531.7947

     29  Cl   Isotropic =   642.1211   Anisotropy =   527.4639

     30  Cl   Isotropic =   643.9358   Anisotropy =   534.0617

     31  Cl   Isotropic =   643.6613   Anisotropy =   528.0875

     32  Cl   Isotropic =   642.1590   Anisotropy =   527.4884

     33  Cl   Isotropic =   638.9064   Anisotropy =   531.6245

     34  Cl   Isotropic =   643.8136   Anisotropy =   527.8006

     35  Cl   Isotropic =   644.8514   Anisotropy =   532.2266

     36  H    Isotropic =    29.4997   Anisotropy =     7.2416

     37  H    Isotropic =    28.8026   Anisotropy =     3.2922

     38  H    Isotropic =    24.1157   Anisotropy =     9.5162

     39  H    Isotropic =    24.3943   Anisotropy =    11.7506

     40  H    Isotropic =    24.5413   Anisotropy =     9.4450

     41  H    Isotropic =    24.4296   Anisotropy =    11.7385

     42  H    Isotropic =    24.0670   Anisotropy =     9.5308

     43  H    Isotropic =    24.5531   Anisotropy =     9.4162

     44  H    Isotropic =    24.3556   Anisotropy =     8.8205

     45  H    Isotropic =    24.2600   Anisotropy =    12.5012

     46  H    Isotropic =    25.4211   Anisotropy =    15.4415

     47  H    Isotropic =    24.3610   Anisotropy =     8.8017

     48  H    Isotropic =    25.4678   Anisotropy =    15.4549

     49  H    Isotropic =    24.2776   Anisotropy =    12.5662

 The electronic state is 1-A.
 Alpha  occ. eigenvalues -- -101.54665-101.54658-101.54607-101.54602-101.54182
 Alpha  occ. eigenvalues -- -101.54167-101.54057-101.54030 -77.08279 -77.08271
 Alpha  occ. eigenvalues --  -10.26722 -10.26713 -10.26709 -10.26703 -10.26144
 Alpha  occ. eigenvalues --  -10.26111 -10.26027 -10.25997 -10.22257 -10.22256
 Alpha  occ. eigenvalues --  -10.21992 -10.21974 -10.21954 -10.21952 -10.21672
 Alpha  occ. eigenvalues --  -10.21601 -10.21600 -10.21584 -10.21575 -10.20959
 Alpha  occ. eigenvalues --  -10.20933 -10.20908 -10.20863 -10.20657 -10.20634
 Alpha  occ. eigenvalues --   -9.47856  -9.47849  -9.47791  -9.47786  -9.47370
 Alpha  occ. eigenvalues --   -9.47357  -9.47249  -9.47223  -7.24029  -7.24023
 Alpha  occ. eigenvalues --   -7.23969  -7.23964  -7.23543  -7.23530  -7.23421
 Alpha  occ. eigenvalues --   -7.23394  -7.23154  -7.23147  -7.23112  -7.23105
 Alpha  occ. eigenvalues --   -7.23089  -7.23085  -7.23046  -7.23041  -7.22668
 Alpha  occ. eigenvalues --   -7.22656  -7.22628  -7.22615  -7.22550  -7.22524
 Alpha  occ. eigenvalues --   -7.22506  -7.22480  -6.56825  -6.56816  -4.72971
 Alpha  occ. eigenvalues --   -4.72962  -4.72951  -4.72942  -4.72457  -4.72447
 Alpha  occ. eigenvalues --   -0.93029  -0.92999  -0.92320  -0.92296  -0.89208
 Alpha  occ. eigenvalues --   -0.89202  -0.88636  -0.88630  -0.85516  -0.85227
 Alpha  occ. eigenvalues --   -0.84351  -0.84308  -0.79860  -0.78642  -0.77403
 Alpha  occ. eigenvalues --   -0.77272  -0.76080  -0.76016  -0.75823  -0.75352
 Alpha  occ. eigenvalues --   -0.75157  -0.68151  -0.66063  -0.63797  -0.63769
 Alpha  occ. eigenvalues --   -0.62900  -0.62832  -0.62128  -0.62071  -0.58016
 Alpha  occ. eigenvalues --   -0.57300  -0.54909  -0.54686  -0.54061  -0.53451
 Alpha  occ. eigenvalues --   -0.51768  -0.51676  -0.51077  -0.51030  -0.48197
 Alpha  occ. eigenvalues --   -0.48070  -0.47653  -0.47390  -0.47282  -0.46222
 Alpha  occ. eigenvalues --   -0.46125  -0.45810  -0.45603  -0.45464  -0.44822
 Alpha  occ. eigenvalues --   -0.43679  -0.43655  -0.43518  -0.43275  -0.42960
 Alpha  occ. eigenvalues --   -0.42221  -0.40289  -0.40192  -0.40152  -0.39728
 Alpha  occ. eigenvalues --   -0.39686  -0.38472  -0.38340  -0.37852  -0.37837
 Alpha  occ. eigenvalues --   -0.37462  -0.37118  -0.37072  -0.34797  -0.34713
 Alpha  occ. eigenvalues --   -0.34678  -0.34021  -0.33856  -0.33527  -0.33320
 Alpha  occ. eigenvalues --   -0.33240  -0.33208  -0.32809  -0.32742  -0.32620
 Alpha  occ. eigenvalues --   -0.29466  -0.29043  -0.29022  -0.28103  -0.27554
 Alpha  occ. eigenvalues --   -0.27265  -0.26689  -0.26658  -0.25338  -0.22286
 Alpha virt. eigenvalues --   -0.07537  -0.06482  -0.06108  -0.05625  -0.05287
 Alpha virt. eigenvalues --   -0.04722  -0.04582  -0.04125  -0.02304  -0.01525
 Alpha virt. eigenvalues --   -0.01500  -0.00586   0.00473   0.02044   0.02380

 Mulliken charges:
               1
     1  P    0.176668
     2  P    0.180900
     3  C   -0.390168
     4  C    0.075576
     5  C   -0.235758
     6  C    0.207974
     7  C   -0.227746
     8  C    0.222379
     9  C   -0.306975
    10  C    0.097792
    11  C   -0.288633
    12  C    0.184048
    13  C   -0.241033
    14  C    0.178850
    15  C   -0.236025
    16  C    0.065350
    17  C   -0.296875
    18  C    0.218548
    19  C   -0.225602
    20  C    0.207102
    21  C   -0.234089
    22  C    0.097911
    23  C   -0.235130
    24  C    0.178925
    25  C   -0.241717
    26  C    0.182633
    27  C   -0.280440
    28  Cl  -0.093425
    29  Cl  -0.095848
    30  Cl  -0.100095
    31  Cl  -0.099769
    32  Cl  -0.095909
    33  Cl  -0.093220
    34  Cl  -0.100070
    35  Cl  -0.099739
    36  H    0.148597
    37  H    0.146730
    38  H    0.134482
    39  H    0.138569
    40  H    0.134554
    41  H    0.137807
    42  H    0.134537
    43  H    0.134241
    44  H    0.138954
    45  H    0.138546
    46  H    0.144901
    47  H    0.138886
    48  H    0.144071
    49  H    0.128735
 Sum of Mulliken charges =  -0.00000

 Dipole moment (field-independent basis, Debye):
    X=              0.0275    Y=             -0.9157    Z=              0.9743  Tot=              1.3374
 Quadrupole moment (field-independent basis, Debye-Ang):
   XX=           -284.8837   YY=           -277.3591   ZZ=           -278.0204
   XY=              0.1984   XZ=              0.0597   YZ=              1.4638

 Summary of Natural Population Analysis:

                                       Natural Population
                Natural  -----------------------------------------------
    Atom  No    Charge         Core      Valence    Rydberg      Total
 -----------------------------------------------------------------------
      P    1    0.83949      9.99817     4.12991    0.03243    14.16051
      P    2    0.84027      9.99816     4.12913    0.03244    14.15973
      C    3   -0.98942      1.99944     4.95698    0.03299     6.98942
      C    4   -0.30975      1.99901     4.27907    0.03167     6.30975
      C    5   -0.21411      1.99892     4.19284    0.02235     6.21411
      C    6   -0.01716      1.99858     3.99222    0.02636     6.01716
      C    7   -0.23188      1.99883     4.21123    0.02181     6.23188
      C    8   -0.01862      1.99859     3.99303    0.02700     6.01862
      C    9   -0.22693      1.99891     4.20683    0.02120     6.22693
      C   10   -0.28737      1.99899     4.26004    0.02833     6.28737
      C   11   -0.23917      1.99891     4.21832    0.02194     6.23917
      C   12   -0.00804      1.99858     3.98290    0.02656     6.00804
      C   13   -0.25193      1.99883     4.23040    0.02270     6.25193
      C   14   -0.00865      1.99859     3.98301    0.02705     6.00865
      C   15   -0.24189      1.99891     4.22170    0.02129     6.24189
      C   16   -0.31066      1.99901     4.27989    0.03175     6.31066
      C   17   -0.22568      1.99891     4.20559    0.02119     6.22568
      C   18   -0.01856      1.99859     3.99298    0.02700     6.01856
      C   19   -0.23156      1.99883     4.21092    0.02180     6.23156
      C   20   -0.01719      1.99858     3.99227    0.02635     6.01719
      C   21   -0.21452      1.99892     4.19323    0.02237     6.21452
      C   22   -0.28665      1.99900     4.25930    0.02836     6.28665
      C   23   -0.24205      1.99891     4.22187    0.02128     6.24205
      C   24   -0.00853      1.99859     3.98290    0.02704     6.00853
      C   25   -0.25269      1.99883     4.23110    0.02276     6.25269
      C   26   -0.00847      1.99858     3.98330    0.02659     6.00847
      C   27   -0.23978      1.99891     4.21897    0.02190     6.23978
     Cl   28    0.02157      9.99964     6.96358    0.01521    16.97843
     Cl   29    0.01851      9.99963     6.96654    0.01532    16.98149
     Cl   30    0.01484      9.99964     6.97027    0.01525    16.98516
     Cl   31    0.01594      9.99963     6.96901    0.01542    16.98406
     Cl   32    0.01850      9.99964     6.96655    0.01532    16.98150
     Cl   33    0.02168      9.99964     6.96348    0.01521    16.97832
     Cl   34    0.01581      9.99963     6.96913    0.01543    16.98419
     Cl   35    0.01531      9.99964     6.96976    0.01530    16.98469
      H   36    0.25446      0.00000     0.74386    0.00168     0.74554
      H   37    0.24624      0.00000     0.75159    0.00217     0.75376
      H   38    0.23634      0.00000     0.76184    0.00182     0.76366
      H   39    0.22737      0.00000     0.77006    0.00257     0.77263
      H   40    0.23767      0.00000     0.76067    0.00167     0.76233
      H   41    0.22727      0.00000     0.77013    0.00260     0.77273
      H   42    0.23661      0.00000     0.76157    0.00181     0.76339
      H   43    0.23765      0.00000     0.76069    0.00167     0.76235
      H   44    0.23959      0.00000     0.75880    0.00161     0.76041
      H   45    0.21834      0.00000     0.77979    0.00187     0.78166
      H   46    0.23055      0.00000     0.76680    0.00266     0.76945
      H   47    0.23953      0.00000     0.75886    0.00161     0.76047
      H   48    0.23027      0.00000     0.76708    0.00265     0.76973
      H   49    0.21745      0.00000     0.78061    0.00194     0.78255
 =======================================================================
   * Total *   -0.00000    149.96414   179.19061    0.84524   330.00000

 1\1\GINC-G82NODEC1\SP\RB3LYP\def2TZVP\C25H14Cl8P2\ROOT\24-Jan-2025\0\\
 # nmr=giao b3lyp/def2TZVP pop=nbo scfcyc=200\\MB-116 SPE NoRh\\0,1\P,0
 ,1.388,0.175,0.203\P,0,-1.39,0.177,0.205\C,0,0.,0.316,1.458\C,0,2.008,
 -1.551,0.363\C,0,2.081,-2.348,-0.778\C,0,2.539,-3.657,-0.664\C,0,2.92,
 -4.185,0.561\C,0,2.836,-3.375,1.689\C,0,2.385,-2.064,1.607\C,0,2.769,1
 .263,0.764\C,0,2.489,2.606,1.032\C,0,3.523,3.457,1.396\C,0,4.836,3.008
 ,1.484\C,0,5.096,1.675,1.195\C,0,4.08,0.795,0.835\C,0,-2.001,-1.553,0.
 34\C,0,-2.367,-2.091,1.577\C,0,-2.816,-3.403,1.636\C,0,-2.91,-4.19,0.4

 Normal termination of Gaussian 16 at Fri Jan 24 03:01:43 2025.
