 Gaussian 16, Revision B.01,
 Gaussian 16:  ES64L-G16RevB.01 20-Dec-2017

 --------------------------------------------
 # nmr=giao b3lyp/def2TZVP pop=nbo scfcyc=200
 --------------------------------------------

 --------------
 MB-18 SPE NoRh
 --------------
 Symbolic Z-matrix:
 Charge =  0 Multiplicity = 1

                         Standard orientation:
 ---------------------------------------------------------------------
 Center     Atomic      Atomic             Coordinates (Angstroms)
 Number     Number       Type             X           Y           Z
 ---------------------------------------------------------------------
      1         15           0        1.225298   -0.051398   -0.457423
      2         15           0       -1.628718   -0.014507   -0.501064
      3          6           0       -0.221345   -0.049716    0.738877
      4          1           0       -0.251558   -0.943513    1.359168
      5          1           0       -0.212145    0.809332    1.405142
      6          6           0        2.131745    1.613567   -0.100144
      7          6           0        2.680967    1.704260    1.330268
      8          1           0        2.990301    2.734896    1.522948
      9          1           0        3.557989    1.076308    1.475218
     10          1           0        1.941796    1.442690    2.089844
     11          6           0        1.092215    2.730249   -0.315255
     12          1           0        1.597690    3.696984   -0.239505
     13          1           0        0.304743    2.722899    0.438927
     14          1           0        0.629691    2.668219   -1.302605
     15          6           0        3.273947    1.835286   -1.104764
     16          1           0        2.908045    1.879815   -2.129425
     17          1           0        4.049007    1.074784   -1.044948
     18          1           0        3.746143    2.796189   -0.887259
     19          6           0        2.253797   -1.608003    0.017876
     20          6           0        1.377811   -2.823101   -0.344443
     21          1           0        1.955142   -3.735699   -0.173965
     22          1           0        1.062713   -2.813804   -1.387394
     23          1           0        0.487070   -2.889001    0.281546
     24          6           0        3.550888   -1.659965   -0.805528
     25          1           0        4.272551   -0.911178   -0.482696
     26          1           0        3.378074   -1.529312   -1.874336
     27          1           0        4.020187   -2.637078   -0.668104
     28          6           0        2.595548   -1.687366    1.515092
     29          1           0        3.048030   -2.661396    1.718012
     30          1           0        1.714716   -1.606308    2.154462
     31          1           0        3.310752   -0.928553    1.823305
     32          6           0       -2.919638    1.266408    0.070182
     33          1           0       -3.853994    0.702619    0.025102
     34          6           0       -2.726987    1.742718    1.514385
     35          1           0       -1.852048    2.387784    1.614508
     36          1           0       -2.630631    0.921361    2.224074
     37          1           0       -3.593751    2.335677    1.813547
     38          6           0       -3.046830    2.451878   -0.892157
     39          1           0       -3.802337    3.145345   -0.518623
     40          1           0       -3.361551    2.136176   -1.886638
     41          1           0       -2.108923    3.003635   -0.986586
     42          6           0       -2.492564   -1.673586   -0.214020
     43          1           0       -1.690318   -2.399238   -0.376375
     44          6           0       -3.031684   -1.847978    1.210830
     45          1           0       -3.877464   -1.187126    1.408848
     46          1           0       -2.277622   -1.672291    1.978948
     47          1           0       -3.388092   -2.873363    1.337899
     48          6           0       -3.585763   -1.941775   -1.253913
     49          1           0       -4.051843   -2.908655   -1.051675
     50          1           0       -3.184813   -1.975710   -2.266355
     51          1           0       -4.378907   -1.191180   -1.221427
 ---------------------------------------------------------------------

 SCF Done:  E(RB3LYP) =  -1275.04198866     A.U. after   14 cycles

      1  P    Isotropic =   195.9875   Anisotropy =    97.1055

      2  P    Isotropic =   226.3944   Anisotropy =   113.4821

      3  C    Isotropic =   168.6831   Anisotropy =    19.1360

      4  H    Isotropic =    30.9285   Anisotropy =     4.9978

      5  H    Isotropic =    30.5133   Anisotropy =     5.0737

      6  C    Isotropic =   138.4147   Anisotropy =    22.1888

      7  C    Isotropic =   154.7098   Anisotropy =    34.6766

      8  H    Isotropic =    31.1251   Anisotropy =     9.4675

      9  H    Isotropic =    30.5905   Anisotropy =     7.1021

     10  H    Isotropic =    30.5245   Anisotropy =     4.6036

     11  C    Isotropic =   150.7593   Anisotropy =    43.1307

     12  H    Isotropic =    31.3348   Anisotropy =     8.5386

     13  H    Isotropic =    30.9092   Anisotropy =     7.9722

     14  H    Isotropic =    30.5541   Anisotropy =     7.3924

     15  C    Isotropic =   152.7970   Anisotropy =    43.9436

     16  H    Isotropic =    30.6429   Anisotropy =     8.0492

     17  H    Isotropic =    30.5782   Anisotropy =     7.5234

     18  H    Isotropic =    31.2233   Anisotropy =     9.4038

     19  C    Isotropic =   141.4871   Anisotropy =    17.6762

     20  C    Isotropic =   150.6438   Anisotropy =    44.9895

     21  H    Isotropic =    31.4018   Anisotropy =     9.0508

     22  H    Isotropic =    30.7421   Anisotropy =     7.3238

     23  H    Isotropic =    31.0457   Anisotropy =     7.4775

     24  C    Isotropic =   153.2707   Anisotropy =    40.0937

     25  H    Isotropic =    30.7694   Anisotropy =     7.4689

     26  H    Isotropic =    30.5993   Anisotropy =     7.7010

     27  H    Isotropic =    31.1465   Anisotropy =     9.5596

     28  C    Isotropic =   154.8262   Anisotropy =    38.5816

     29  H    Isotropic =    31.0999   Anisotropy =     9.7242

     30  H    Isotropic =    30.6727   Anisotropy =     4.8779

     31  H    Isotropic =    30.5288   Anisotropy =     6.7896

     32  C    Isotropic =   156.8374   Anisotropy =    12.2706

     33  H    Isotropic =    30.5966   Anisotropy =     6.1811

     34  C    Isotropic =   159.8445   Anisotropy =    27.0849

     35  H    Isotropic =    30.9573   Anisotropy =     5.3334

     36  H    Isotropic =    30.7733   Anisotropy =     5.5567

     37  H    Isotropic =    30.6578   Anisotropy =    10.9837

     38  C    Isotropic =   157.9733   Anisotropy =    36.2618

     39  H    Isotropic =    30.9868   Anisotropy =    10.5751

     40  H    Isotropic =    30.7119   Anisotropy =     9.1368

     41  H    Isotropic =    30.9041   Anisotropy =     6.2968

     42  C    Isotropic =   151.1435   Anisotropy =    12.1120

     43  H    Isotropic =    30.0766   Anisotropy =     8.2156

     44  C    Isotropic =   166.0930   Anisotropy =    26.2971

     45  H    Isotropic =    31.0242   Anisotropy =     6.2648

     46  H    Isotropic =    30.5824   Anisotropy =     5.5937

     47  H    Isotropic =    30.8836   Anisotropy =    10.9678

     48  C    Isotropic =   163.0593   Anisotropy =    34.7644

     49  H    Isotropic =    30.9546   Anisotropy =    10.4916

     50  H    Isotropic =    30.6551   Anisotropy =     9.7254

     51  H    Isotropic =    31.1657   Anisotropy =     7.1874

 The electronic state is 1-A.
 Alpha  occ. eigenvalues --  -77.03198 -77.03080 -10.19040 -10.18956 -10.17896
 Alpha  occ. eigenvalues --  -10.17565 -10.17322 -10.16251 -10.16211 -10.16204
 Alpha  occ. eigenvalues --  -10.16203 -10.16164 -10.16091 -10.16005 -10.15873
 Alpha  occ. eigenvalues --  -10.15843 -10.15698  -6.51727  -6.51630  -4.67893
 Alpha  occ. eigenvalues --   -4.67821  -4.67793  -4.67726  -4.67351  -4.67258
 Alpha  occ. eigenvalues --   -0.81944  -0.80451  -0.80118  -0.78014  -0.72578
 Alpha  occ. eigenvalues --   -0.69227  -0.69038  -0.68807  -0.68576  -0.68371
 Alpha  occ. eigenvalues --   -0.68353  -0.62413  -0.59684  -0.58357  -0.54942
 Alpha  occ. eigenvalues --   -0.51470  -0.50707  -0.47332  -0.46441  -0.45407
 Alpha  occ. eigenvalues --   -0.45103  -0.44402  -0.44173  -0.43932  -0.43319
 Alpha  occ. eigenvalues --   -0.42966  -0.41468  -0.40939  -0.40851  -0.40109
 Alpha  occ. eigenvalues --   -0.39843  -0.39205  -0.38667  -0.38516  -0.38223
 Alpha  occ. eigenvalues --   -0.37909  -0.37560  -0.36258  -0.35538  -0.35157
 Alpha  occ. eigenvalues --   -0.35036  -0.34306  -0.34259  -0.34086  -0.33422
 Alpha  occ. eigenvalues --   -0.33192  -0.32918  -0.29134  -0.28902  -0.28281
 Alpha  occ. eigenvalues --   -0.21424  -0.17987
 Alpha virt. eigenvalues --    0.01363   0.02243   0.03064   0.03515   0.03975
 Alpha virt. eigenvalues --    0.04870   0.05746   0.06356   0.06727   0.07182
 Alpha virt. eigenvalues --    0.07628   0.07891   0.08265   0.08396   0.08754

 Mulliken charges:
               1
     1  P    0.121280
     2  P    0.151321
     3  C   -0.379990
     4  H    0.107796
     5  H    0.117921
     6  C    0.074000
     7  C   -0.354423
     8  H    0.101951
     9  H    0.101912
    10  H    0.115923
    11  C   -0.380106
    12  H    0.109146
    13  H    0.102388
    14  H    0.134894
    15  C   -0.354860
    16  H    0.118951
    17  H    0.108250
    18  H    0.103780
    19  C    0.082454
    20  C   -0.373920
    21  H    0.108555
    22  H    0.129229
    23  H    0.103823
    24  C   -0.373832
    25  H    0.103449
    26  H    0.125954
    27  H    0.106003
    28  C   -0.341441
    29  H    0.098555
    30  H    0.105918
    31  H    0.106047
    32  C   -0.060567
    33  H    0.067782
    34  C   -0.378665
    35  H    0.106848
    36  H    0.124264
    37  H    0.108380
    38  C   -0.326267
    39  H    0.101735
    40  H    0.112875
    41  H    0.109661
    42  C   -0.104321
    43  H    0.084208
    44  C   -0.348826
    45  H    0.110372
    46  H    0.110993
    47  H    0.107978
    48  C   -0.340016
    49  H    0.106859
    50  H    0.122723
    51  H    0.103056
 Sum of Mulliken charges =  -0.00000

 Dipole moment (field-independent basis, Debye):
    X=              0.0169    Y=             -0.2612    Z=              1.7308  Tot=              1.7505
 Quadrupole moment (field-independent basis, Debye-Ang):
   XX=           -125.6287   YY=           -126.5991   ZZ=           -134.6147
   XY=              0.6630   XZ=             -0.7244   YZ=              0.4423

 Summary of Natural Population Analysis:

                                       Natural Population
                Natural  -----------------------------------------------
    Atom  No    Charge         Core      Valence    Rydberg      Total
 -----------------------------------------------------------------------
      P    1    0.78892      9.99843     4.18215    0.03050    14.21108
      P    2    0.78231      9.99860     4.18674    0.03234    14.21769
      C    3   -1.04158      1.99945     5.01060    0.03152     7.04158
      H    4    0.23552      0.00000     0.76152    0.00296     0.76448
      H    5    0.24127      0.00000     0.75598    0.00275     0.75873
      C    6   -0.26867      1.99945     4.24419    0.02503     6.26867
      C    7   -0.60287      1.99936     4.59122    0.01228     6.60287
      H    8    0.19586      0.00000     0.80180    0.00234     0.80414
      H    9    0.19965      0.00000     0.79888    0.00147     0.80035
      H   10    0.20053      0.00000     0.79789    0.00158     0.79947
      C   11   -0.60610      1.99937     4.59379    0.01294     6.60610
      H   12    0.20393      0.00000     0.79398    0.00210     0.79607
      H   13    0.19748      0.00000     0.80064    0.00188     0.80252
      H   14    0.21777      0.00000     0.78070    0.00153     0.78223
      C   15   -0.59957      1.99937     4.58792    0.01228     6.59957
      H   16    0.21272      0.00000     0.78584    0.00144     0.78728
      H   17    0.20303      0.00000     0.79564    0.00134     0.79697
      H   18    0.19916      0.00000     0.79881    0.00204     0.80084
      C   19   -0.27597      1.99946     4.25152    0.02499     6.27597
      C   20   -0.60351      1.99937     4.59169    0.01244     6.60351
      H   21    0.20304      0.00000     0.79485    0.00211     0.79696
      H   22    0.21605      0.00000     0.78251    0.00144     0.78395
      H   23    0.19739      0.00000     0.80113    0.00148     0.80261
      C   24   -0.59990      1.99937     4.58854    0.01199     6.59990
      H   25    0.19907      0.00000     0.79950    0.00143     0.80093
      H   26    0.21341      0.00000     0.78504    0.00155     0.78659
      H   27    0.20077      0.00000     0.79714    0.00208     0.79923
      C   28   -0.60175      1.99937     4.59020    0.01218     6.60175
      H   29    0.19467      0.00000     0.80300    0.00233     0.80533
      H   30    0.19832      0.00000     0.80006    0.00162     0.80168
      H   31    0.20244      0.00000     0.79616    0.00141     0.79756
      C   32   -0.47612      1.99944     4.45432    0.02236     6.47612
      H   33    0.20275      0.00000     0.79427    0.00298     0.79725
      C   34   -0.59709      1.99943     4.58574    0.01192     6.59709
      H   35    0.19229      0.00000     0.80594    0.00177     0.80771
      H   36    0.20455      0.00000     0.79415    0.00130     0.79545
      H   37    0.20101      0.00000     0.79713    0.00187     0.79899
      C   38   -0.58980      1.99943     4.57876    0.01161     6.58980
      H   39    0.19661      0.00000     0.80173    0.00167     0.80339
      H   40    0.20995      0.00000     0.78881    0.00124     0.79005
      H   41    0.19969      0.00000     0.79883    0.00149     0.80031
      C   42   -0.46807      1.99945     4.44569    0.02293     6.46807
      H   43    0.20964      0.00000     0.78811    0.00225     0.79036
      C   44   -0.60150      1.99943     4.59027    0.01180     6.60150
      H   45    0.19743      0.00000     0.80113    0.00144     0.80257
      H   46    0.19868      0.00000     0.79979    0.00153     0.80132
      H   47    0.19977      0.00000     0.79833    0.00190     0.80023
      C   48   -0.59472      1.99943     4.58343    0.01186     6.59472
      H   49    0.20191      0.00000     0.79646    0.00163     0.79809
      H   50    0.21417      0.00000     0.78450    0.00133     0.78583
      H   51    0.19547      0.00000     0.80310    0.00143     0.80453
 =======================================================================
   * Total *    0.00000     49.98821   103.64011    0.37169   154.00000

 Normal termination of Gaussian 16 at Thu Jan 23 20:05:05 2025.
