 Gaussian 16, Revision B.01,
 Gaussian 16:  ES64L-G16RevB.01 20-Dec-2017

 --------------------------------------------
 # nmr=giao b3lyp/def2TZVP pop=nbo scfcyc=200
 --------------------------------------------

 -------------
 MB-1 SPE NoRh
 -------------
 Symbolic Z-matrix:
 Charge =  0 Multiplicity = 1

                         Standard orientation:
 ---------------------------------------------------------------------
 Center     Atomic      Atomic             Coordinates (Angstroms)
 Number     Number       Type             X           Y           Z
 ---------------------------------------------------------------------
      1         15           0       -1.390942   -0.051206   -0.365654
      2         15           0        1.392492   -0.056994   -0.368077
      3          6           0       -2.661025   -1.334070    0.015424
      4          1           0       -2.234828   -2.325902   -0.130727
      5          1           0       -3.507232   -1.217947   -0.662346
      6          1           0       -3.014332   -1.236768    1.042503
      7          6           0        2.674852   -1.320252    0.037542
      8          1           0        3.528140   -1.199987   -0.631442
      9          1           0        2.263544   -2.319445   -0.103059
     10          1           0        3.015232   -1.208342    1.068143
     11          6           0        0.001136   -0.281878    0.864665
     12          1           0       -0.000794   -1.304939    1.244224
     13          1           0        0.002737    0.403575    1.713191
     14          6           0        2.198520    1.543835    0.069425
     15          1           0        2.579832    1.518207    1.091783
     16          1           0        1.483766    2.359164   -0.030651
     17          1           0        3.026204    1.730391   -0.615274
     18          6           0       -2.215879    1.534573    0.093810
     19          1           0       -3.047416    1.721198   -0.585172
     20          1           0       -1.510227    2.359537    0.003340
     21          1           0       -2.593514    1.491001    1.116254
 ---------------------------------------------------------------------

 SCF Done:  E(RB3LYP) =  -881.793831284     A.U. after   12 cycles

      1  P    Isotropic =   282.0869   Anisotropy =   142.1309

      2  P    Isotropic =   281.9638   Anisotropy =   141.7156

      3  C    Isotropic =   167.0380   Anisotropy =    25.0431

      4  H    Isotropic =    30.7418   Anisotropy =     7.5990

      5  H    Isotropic =    31.1558   Anisotropy =     9.8230

      6  H    Isotropic =    30.5918   Anisotropy =     8.6594

      7  C    Isotropic =   166.8464   Anisotropy =    25.2040

      8  H    Isotropic =    31.1549   Anisotropy =     9.7665

      9  H    Isotropic =    30.7331   Anisotropy =     7.5894

     10  H    Isotropic =    30.5762   Anisotropy =     8.6574

     11  C    Isotropic =   155.8003   Anisotropy =    25.9381

     12  H    Isotropic =    31.0044   Anisotropy =     5.8563

     13  H    Isotropic =    30.6761   Anisotropy =     4.6904

     14  C    Isotropic =   168.5853   Anisotropy =    22.7477

     15  H    Isotropic =    30.6514   Anisotropy =     8.5596

     16  H    Isotropic =    30.7656   Anisotropy =     7.2011

     17  H    Isotropic =    31.0656   Anisotropy =    10.1623

     18  C    Isotropic =   168.4328   Anisotropy =    22.9962

     19  H    Isotropic =    31.0857   Anisotropy =    10.1218

     20  H    Isotropic =    30.7664   Anisotropy =     7.1940

     21  H    Isotropic =    30.6457   Anisotropy =     8.5822

 The electronic state is 1-A.
 Alpha  occ. eigenvalues --  -77.03586 -77.03581 -10.17660 -10.16606 -10.16585
 Alpha  occ. eigenvalues --  -10.16376 -10.16352  -6.52157  -6.52150  -4.68322
 Alpha  occ. eigenvalues --   -4.68316  -4.68272  -4.68264  -4.67759  -4.67752
 Alpha  occ. eigenvalues --   -0.76953  -0.74015  -0.69319  -0.69160  -0.68888
 Alpha  occ. eigenvalues --   -0.53166  -0.52493  -0.44390  -0.43587  -0.42941
 Alpha  occ. eigenvalues --   -0.42413  -0.42135  -0.40394  -0.40291  -0.40130
 Alpha  occ. eigenvalues --   -0.39259  -0.38018  -0.33734  -0.33017  -0.30327
 Alpha  occ. eigenvalues --   -0.22001  -0.18085
 Alpha virt. eigenvalues --    0.01532   0.02449   0.03611   0.05121   0.06291
 Alpha virt. eigenvalues --    0.07150   0.07236   0.08599   0.08704   0.09211
 Alpha virt. eigenvalues --    0.09926   0.10103   0.10708   0.11830   0.12702

 Mulliken charges:
               1
     1  P    0.185368
     2  P    0.186242
     3  C   -0.410212
     4  H    0.121596
     5  H    0.123007
     6  H    0.105728
     7  C   -0.409924
     8  H    0.122689
     9  H    0.121368
    10  H    0.105441
    11  C   -0.361338
    12  H    0.121160
    13  H    0.115323
    14  C   -0.418166
    15  H    0.108116
    16  H    0.121867
    17  H    0.124989
    18  C   -0.417704
    19  H    0.124873
    20  H    0.121493
    21  H    0.108085
 Sum of Mulliken charges =  -0.00000

 Dipole moment (field-independent basis, Debye):
    X=             -0.0097    Y=              0.0938    Z=              2.0046  Tot=              2.0069
 Quadrupole moment (field-independent basis, Debye-Ang):
   XX=            -58.2523   YY=            -59.2236   ZZ=            -65.7948
   XY=              0.0554   XZ=              0.0042   YZ=             -0.4906

 Summary of Natural Population Analysis:

                                       Natural Population
                Natural  -----------------------------------------------
    Atom  No    Charge         Core      Valence    Rydberg      Total
 -----------------------------------------------------------------------
      P    1    0.78926      9.99889     4.16957    0.04229    14.21074
      P    2    0.78996      9.99888     4.16884    0.04232    14.21004
      C    3   -0.91694      1.99946     4.89889    0.01859     6.91694
      H    4    0.22531      0.00000     0.77374    0.00095     0.77469
      H    5    0.22841      0.00000     0.77063    0.00095     0.77159
      H    6    0.20325      0.00000     0.79355    0.00321     0.79675
      C    7   -0.91792      1.99946     4.89985    0.01861     6.91792
      H    8    0.22832      0.00000     0.77073    0.00096     0.77168
      H    9    0.22524      0.00000     0.77382    0.00094     0.77476
      H   10    0.20311      0.00000     0.79369    0.00320     0.79689
      C   11   -1.01941      1.99947     4.98771    0.03223     7.01941
      H   12    0.24478      0.00000     0.75363    0.00159     0.75522
      H   13    0.23383      0.00000     0.76337    0.00280     0.76617
      C   14   -0.91644      1.99946     4.89783    0.01915     6.91644
      H   15    0.20403      0.00000     0.79260    0.00337     0.79597
      H   16    0.22479      0.00000     0.77415    0.00107     0.77521
      H   17    0.22918      0.00000     0.76988    0.00093     0.77082
      C   18   -0.91618      1.99946     4.89760    0.01911     6.91618
      H   19    0.22904      0.00000     0.77003    0.00093     0.77096
      H   20    0.22456      0.00000     0.77438    0.00106     0.77544
      H   21    0.20383      0.00000     0.79282    0.00335     0.79617
 =======================================================================
   * Total *    0.00000     29.99510    43.78730    0.21760    74.00000

 Normal termination of Gaussian 16 at Thu Jan 23 19:07:03 2025.
