 Gaussian 16, Revision B.01,
 Gaussian 16:  ES64L-G16RevB.01 20-Dec-2017

 --------------------------------------------
 # nmr=giao b3lyp/def2TZVP pop=nbo scfcyc=200
 --------------------------------------------

 ------------------
 Ligand 46 SPE NoRh
 ------------------
 Symbolic Z-matrix:
 Charge =  0 Multiplicity = 1

                         Standard orientation:
 ---------------------------------------------------------------------
 Center     Atomic      Atomic             Coordinates (Angstroms)
 Number     Number       Type             X           Y           Z
 ---------------------------------------------------------------------
      1         15           0        0.032703    0.674890   -0.031809
      2         15           0       -2.619086   -0.017980   -0.656261
      3          6           0        0.757346    2.252177    0.594498
      4          6           0        1.478632    2.296580    1.791262
      5          1           0        1.684161    1.385129    2.338676
      6          6           0        1.944602    3.512436    2.276998
      7          1           0        2.506588    3.539919    3.202346
      8          6           0        1.692552    4.689777    1.578881
      9          1           0        2.058929    5.634225    1.960310
     10          6           0        0.971951    4.651908    0.389034
     11          1           0        0.775397    5.565808   -0.156811
     12          6           0        0.507440    3.436176   -0.103325
     13          1           0       -0.050300    3.407792   -1.032435
     14          6           0       -1.642328    0.595968    0.815015
     15          1           0       -1.727821    0.012999    1.729826
     16          1           0       -1.922953    1.624699    1.039810
     17          6           0       -4.244601    0.849873   -0.672539
     18          6           0       -4.306395    2.225201   -0.418755
     19          1           0       -3.415145    2.779002   -0.151431
     20          6           0       -5.516145    2.902163   -0.511461
     21          1           0       -5.554400    3.963871   -0.300620
     22          6           0       -6.674645    2.220069   -0.874013
     23          1           0       -7.615593    2.748743   -0.946521
     24          6           0       -6.616258    0.858234   -1.146568
     25          1           0       -7.512913    0.321968   -1.431365
     26          6           0       -5.409062    0.174041   -1.048368
     27          1           0       -5.383133   -0.888384   -1.255142
     28          6           0       -2.990471   -1.782462   -0.297416
     29          6           0       -3.745643   -2.139814    0.826843
     30          1           0       -4.153076   -1.376506    1.479162
     31          6           0       -3.992065   -3.477862    1.105041
     32          1           0       -4.579238   -3.747012    1.973345
     33          6           0       -3.487118   -4.470284    0.266530
     34          1           0       -3.683270   -5.513158    0.484293
     35          6           0       -2.734754   -4.122020   -0.849155
     36          1           0       -2.339592   -4.891796   -1.500220
     37          6           0       -2.485085   -2.782187   -1.130229
     38          1           0       -1.888297   -2.511614   -1.992009
     39          6           0        1.073969   -0.696222    0.625874
     40          6           0        2.460894   -0.806786    0.231203
     41          6           0        0.509939   -1.673499    1.407551
     42          6           0        3.124841    0.134886   -0.557822
     43          6           0        3.206511   -1.957137    0.685491
     44          6           0        1.253773   -2.795433    1.853822
     45          1           0       -0.529256   -1.620975    1.696676
     46          6           0        4.468713   -0.004139   -0.919318
     47          1           0        2.608393    1.026273   -0.890812
     48          6           0        4.547341   -2.096994    0.324215
     49          6           0        2.563067   -2.932087    1.500307
     50          1           0        0.768530   -3.537548    2.474375
     51          6           0        5.143156    0.963101   -1.720957
     52          6           0        5.202619   -1.156341   -0.470362
     53          1           0        5.094229   -2.965304    0.674608
     54          1           0        3.136419   -3.788521    1.834402
     55          6           0        6.455663    0.798689   -2.057823
     56          1           0        4.596339    1.836418   -2.055991
     57          6           0        6.572499   -1.290292   -0.843855
     58          6           0        7.179256   -0.342834   -1.615620
     59          1           0        6.958089    1.541462   -2.665519
     60          1           0        7.123046   -2.158905   -0.503080
     61          1           0        8.219433   -0.451547   -1.894705
 ---------------------------------------------------------------------

 SCF Done:  E(RB3LYP) =  -1956.38113687     A.U. after   15 cycles

      1  P    Isotropic =   238.8077   Anisotropy =    86.4620

      2  P    Isotropic =   233.2185   Anisotropy =   109.8779

      3  C    Isotropic =    31.1064   Anisotropy =   209.3511

      4  C    Isotropic =    43.5211   Anisotropy =   187.0228

      5  H    Isotropic =    24.6397   Anisotropy =    12.5742

      6  C    Isotropic =    49.4071   Anisotropy =   184.6258

      7  H    Isotropic =    24.6962   Anisotropy =     6.9517

      8  C    Isotropic =    49.5418   Anisotropy =   187.4242

      9  H    Isotropic =    24.3496   Anisotropy =     3.7349

     10  C    Isotropic =    49.3068   Anisotropy =   184.4247

     11  H    Isotropic =    24.0106   Anisotropy =     5.1329

     12  C    Isotropic =    44.9452   Anisotropy =   178.0883

     13  H    Isotropic =    23.3362   Anisotropy =     8.9466

     14  C    Isotropic =   146.8928   Anisotropy =    27.1331

     15  H    Isotropic =    28.7345   Anisotropy =     4.3459

     16  H    Isotropic =    29.7373   Anisotropy =     5.3127

     17  C    Isotropic =    29.2052   Anisotropy =   199.1406

     18  C    Isotropic =    50.6960   Anisotropy =   182.4616

     19  H    Isotropic =    24.1046   Anisotropy =    10.7222

     20  C    Isotropic =    50.1408   Anisotropy =   182.3443

     21  H    Isotropic =    24.3071   Anisotropy =     6.4624

     22  C    Isotropic =    53.4544   Anisotropy =   179.3507

     23  H    Isotropic =    24.5971   Anisotropy =     4.1693

     24  C    Isotropic =    49.8150   Anisotropy =   183.7100

     25  H    Isotropic =    24.5378   Anisotropy =     6.2647

     26  C    Isotropic =    50.6234   Anisotropy =   182.5930

     27  H    Isotropic =    24.9421   Anisotropy =    13.1921

     28  C    Isotropic =    34.7101   Anisotropy =   207.0405

     29  C    Isotropic =    39.9896   Anisotropy =   187.4422

     30  H    Isotropic =    23.7288   Anisotropy =    11.0359

     31  C    Isotropic =    48.6533   Anisotropy =   185.9661

     32  H    Isotropic =    24.0960   Anisotropy =     5.7860

     33  C    Isotropic =    47.8912   Anisotropy =   190.6699

     34  H    Isotropic =    24.1579   Anisotropy =     3.6258

     35  C    Isotropic =    49.8845   Anisotropy =   185.5379

     36  H    Isotropic =    24.3600   Anisotropy =     5.1669

     37  C    Isotropic =    38.8684   Anisotropy =   185.9039

     38  H    Isotropic =    23.8893   Anisotropy =     7.6133

     39  C    Isotropic =    40.5604   Anisotropy =   182.8582

     40  C    Isotropic =    46.4182   Anisotropy =   201.9796

     41  C    Isotropic =    51.1273   Anisotropy =   179.7439

     42  C    Isotropic =    50.7397   Anisotropy =   158.7304

     43  C    Isotropic =    44.3957   Anisotropy =   213.1312

     44  C    Isotropic =    54.3947   Anisotropy =   173.4184

     45  H    Isotropic =    24.7902   Anisotropy =     8.6461

     46  C    Isotropic =    45.2623   Anisotropy =   212.0236

     47  H    Isotropic =    23.2996   Anisotropy =    14.1506

     48  C    Isotropic =    50.5242   Anisotropy =   137.6525

     49  C    Isotropic =    48.8488   Anisotropy =   155.4905

     50  H    Isotropic =    24.6380   Anisotropy =     7.6763

     51  C    Isotropic =    48.7892   Anisotropy =   160.9253

     52  C    Isotropic =    45.0961   Anisotropy =   214.0174

     53  H    Isotropic =    23.2269   Anisotropy =     9.7479

     54  H    Isotropic =    23.7711   Anisotropy =     7.7669

     55  C    Isotropic =    53.1605   Anisotropy =   176.0307

     56  H    Isotropic =    23.9084   Anisotropy =    10.6715

     57  C    Isotropic =    49.8953   Anisotropy =   158.4352

     58  C    Isotropic =    52.8119   Anisotropy =   176.8675

     59  H    Isotropic =    24.2747   Anisotropy =     6.8286

     60  H    Isotropic =    23.6339   Anisotropy =     8.1522

     61  H    Isotropic =    24.1963   Anisotropy =     5.4670

 The electronic state is 1-A.
 Alpha  occ. eigenvalues --  -77.05204 -77.04962 -10.19121 -10.18972 -10.18775
 Alpha  occ. eigenvalues --  -10.18765 -10.18697 -10.18666 -10.18628 -10.18525
 Alpha  occ. eigenvalues --  -10.18467 -10.18446 -10.18425 -10.18383 -10.18293
 Alpha  occ. eigenvalues --  -10.18233 -10.18184 -10.18096 -10.18040 -10.17911
 Alpha  occ. eigenvalues --  -10.17887 -10.17854 -10.17803 -10.17798 -10.17753
 Alpha  occ. eigenvalues --  -10.17740 -10.17728 -10.17717 -10.17657 -10.17655
 Alpha  occ. eigenvalues --  -10.17619 -10.17608 -10.17510 -10.17424 -10.17282
 Alpha  occ. eigenvalues --   -6.53747  -6.53535  -4.69905  -4.69862  -4.69686
 Alpha  occ. eigenvalues --   -4.69655  -4.69386  -4.69168  -0.88622  -0.86652
 Alpha  occ. eigenvalues --   -0.86282  -0.85736  -0.85509  -0.80690  -0.79146
 Alpha  occ. eigenvalues --   -0.77719  -0.76464  -0.75653  -0.75376  -0.75148
 Alpha  occ. eigenvalues --   -0.75003  -0.74645  -0.74312  -0.72846  -0.70639
 Alpha  occ. eigenvalues --   -0.65175  -0.63973  -0.62359  -0.62028  -0.61430
 Alpha  occ. eigenvalues --   -0.61144  -0.60670  -0.60210  -0.60154  -0.59583
 Alpha  occ. eigenvalues --   -0.56187  -0.55378  -0.54118  -0.52594  -0.52406
 Alpha  occ. eigenvalues --   -0.51619  -0.50594  -0.49983  -0.47014  -0.46499
 Alpha  occ. eigenvalues --   -0.46329  -0.46196  -0.45965  -0.45721  -0.45534
 Alpha  occ. eigenvalues --   -0.45303  -0.45070  -0.44638  -0.44022  -0.43169
 Alpha  occ. eigenvalues --   -0.42908  -0.42523  -0.42404  -0.41920  -0.41318
 Alpha  occ. eigenvalues --   -0.41010  -0.40600  -0.39694  -0.39223  -0.38372
 Alpha  occ. eigenvalues --   -0.38071  -0.37981  -0.37530  -0.37307  -0.36948
 Alpha  occ. eigenvalues --   -0.35747  -0.35503  -0.35199  -0.34898  -0.34271
 Alpha  occ. eigenvalues --   -0.34126  -0.32892  -0.32498  -0.31938  -0.31157
 Alpha  occ. eigenvalues --   -0.30651  -0.27626  -0.27022  -0.26904  -0.26670
 Alpha  occ. eigenvalues --   -0.26331  -0.25864  -0.25640  -0.24774  -0.22483
 Alpha  occ. eigenvalues --   -0.20482  -0.18869
 Alpha virt. eigenvalues --   -0.07297  -0.03812  -0.03162  -0.02707  -0.02431
 Alpha virt. eigenvalues --   -0.02037  -0.01780  -0.01448  -0.01013   0.01493
 Alpha virt. eigenvalues --    0.02844   0.03897   0.04517   0.04879   0.05105

 Mulliken charges:
               1
     1  P    0.144669
     2  P    0.180087
     3  C   -0.020601
     4  C   -0.133152
     5  H    0.134044
     6  C   -0.119792
     7  H    0.108874
     8  C   -0.092660
     9  H    0.110899
    10  C   -0.108135
    11  H    0.110759
    12  C   -0.177252
    13  H    0.119850
    14  C   -0.365987
    15  H    0.129289
    16  H    0.140186
    17  C    0.065934
    18  C   -0.198760
    19  H    0.117122
    20  C   -0.119432
    21  H    0.105430
    22  C   -0.111856
    23  H    0.106737
    24  C   -0.118062
    25  H    0.106996
    26  C   -0.174699
    27  H    0.136041
    28  C    0.007063
    29  C   -0.202187
    30  H    0.126170
    31  C   -0.096222
    32  H    0.111312
    33  C   -0.095637
    34  H    0.113191
    35  C   -0.109776
    36  H    0.112729
    37  C   -0.126191
    38  H    0.120350
    39  C   -0.074773
    40  C    0.059180
    41  C   -0.054560
    42  C   -0.182035
    43  C    0.129520
    44  C   -0.171029
    45  H    0.125157
    46  C    0.150374
    47  H    0.131929
    48  C   -0.239211
    49  C   -0.181963
    50  H    0.103026
    51  C   -0.216797
    52  C    0.162675
    53  H    0.090170
    54  H    0.097354
    55  C   -0.095423
    56  H    0.105568
    57  C   -0.195729
    58  C   -0.096667
    59  H    0.108208
    60  H    0.099691
    61  H    0.108000
 Sum of Mulliken charges =  -0.00000

 Dipole moment (field-independent basis, Debye):
    X=             -0.1241    Y=             -0.4557    Z=              1.9853  Tot=              2.0407
 Quadrupole moment (field-independent basis, Debye-Ang):
   XX=           -204.2626   YY=           -195.2534   ZZ=           -220.1606
   XY=              2.5558   XZ=             -4.3533   YZ=             -3.4078

 Summary of Natural Population Analysis:

                                       Natural Population
                Natural  -----------------------------------------------
    Atom  No    Charge         Core      Valence    Rydberg      Total
 -----------------------------------------------------------------------
      P    1    0.82942      9.99814     4.13932    0.03312    14.17058
      P    2    0.83019      9.99814     4.13776    0.03391    14.16981
      C    3   -0.32796      1.99900     4.29576    0.03320     6.32796
      C    4   -0.19671      1.99908     4.17780    0.01984     6.19671
      H    5    0.21420      0.00000     0.78376    0.00204     0.78580
      C    6   -0.19967      1.99919     4.18164    0.01884     6.19967
      H    7    0.20863      0.00000     0.79002    0.00136     0.79137
      C    8   -0.20188      1.99919     4.18355    0.01914     6.20188
      H    9    0.20871      0.00000     0.79012    0.00117     0.79129
      C   10   -0.20382      1.99919     4.18518    0.01946     6.20382
      H   11    0.20956      0.00000     0.78917    0.00127     0.79044
      C   12   -0.20647      1.99909     4.18715    0.02023     6.20647
      H   13    0.21560      0.00000     0.78279    0.00161     0.78440
      C   14   -0.99377      1.99943     4.96184    0.03250     6.99377
      H   15    0.23858      0.00000     0.75876    0.00266     0.76142
      H   16    0.25711      0.00000     0.74136    0.00153     0.74289
      C   17   -0.31557      1.99899     4.28690    0.02968     6.31557
      C   18   -0.21456      1.99909     4.19565    0.01982     6.21456
      H   19    0.19987      0.00000     0.79765    0.00248     0.80013
      C   20   -0.19525      1.99919     4.17712    0.01895     6.19525
      H   21    0.20739      0.00000     0.79130    0.00131     0.79261
      C   22   -0.21739      1.99919     4.19854    0.01966     6.21739
      H   23    0.20746      0.00000     0.79135    0.00119     0.79254
      C   24   -0.19446      1.99919     4.17638    0.01890     6.19446
      H   25    0.20746      0.00000     0.79122    0.00131     0.79254
      C   26   -0.21240      1.99908     4.19330    0.02001     6.21240
      H   27    0.21355      0.00000     0.78465    0.00180     0.78645
      C   28   -0.33778      1.99901     4.30548    0.03329     6.33778
      C   29   -0.19687      1.99908     4.17773    0.02006     6.19687
      H   30    0.21082      0.00000     0.78674    0.00244     0.78918
      C   31   -0.20754      1.99919     4.18924    0.01911     6.20754
      H   32    0.20895      0.00000     0.78966    0.00138     0.79105
      C   33   -0.19535      1.99919     4.17716    0.01899     6.19535
      H   34    0.20932      0.00000     0.78951    0.00117     0.79068
      C   35   -0.20468      1.99918     4.18608    0.01942     6.20468
      H   36    0.21150      0.00000     0.78724    0.00126     0.78850
      C   37   -0.18464      1.99910     4.16502    0.02052     6.18464
      H   38    0.22167      0.00000     0.77674    0.00159     0.77833
      C   39   -0.29738      1.99894     4.26893    0.02951     6.29738
      C   40   -0.06015      1.99900     4.03978    0.02136     6.06015
      C   41   -0.20700      1.99908     4.18857    0.01935     6.20700
      C   42   -0.15179      1.99905     4.13622    0.01651     6.15179
      C   43   -0.05505      1.99907     4.03792    0.01806     6.05505
      C   44   -0.20276      1.99917     4.18457    0.01902     6.20276
      H   45    0.20469      0.00000     0.79261    0.00270     0.79531
      C   46   -0.05562      1.99907     4.03763    0.01891     6.05562
      H   47    0.21499      0.00000     0.78252    0.00248     0.78501
      C   48   -0.14701      1.99907     4.13136    0.01658     6.14701
      C   49   -0.17454      1.99912     4.15680    0.01862     6.17454
      H   50    0.20974      0.00000     0.78907    0.00119     0.79026
      C   51   -0.17165      1.99913     4.15424    0.01829     6.17165
      C   52   -0.05904      1.99907     4.04159    0.01837     6.05904
      H   53    0.20033      0.00000     0.79761    0.00206     0.79967
      H   54    0.20538      0.00000     0.79324    0.00137     0.79462
      C   55   -0.20674      1.99919     4.18849    0.01906     6.20674
      H   56    0.20899      0.00000     0.78965    0.00136     0.79101
      C   57   -0.17592      1.99912     4.15837    0.01843     6.17592
      C   58   -0.20528      1.99919     4.18697    0.01913     6.20528
      H   59    0.20858      0.00000     0.79026    0.00117     0.79142
      H   60    0.20573      0.00000     0.79284    0.00143     0.79427
      H   61    0.20828      0.00000     0.79057    0.00116     0.79172
 =======================================================================
   * Total *   -0.00000     85.96720   167.23046    0.80234   254.00000

 Normal termination of Gaussian 16 at Wed Nov  6 18:16:45 2024.
