 Gaussian 16, Revision B.01,
 Gaussian 16:  ES64L-G16RevB.01 20-Dec-2017

 --------------------------------------------
 # nmr=giao b3lyp/def2TZVP pop=nbo scfcyc=200
 --------------------------------------------

 ---------------
 MB-112 SPE NoRh
 ---------------
 Symbolic Z-matrix:
 Charge =  0 Multiplicity = 1

                         Standard orientation:
 ---------------------------------------------------------------------
 Center     Atomic      Atomic             Coordinates (Angstroms)
 Number     Number       Type             X           Y           Z
 ---------------------------------------------------------------------
      1         15           0       -1.385781   -0.548697    0.762063
      2          6           0       -2.751066   -1.690261    0.295273
      3          6           0       -2.480336   -3.022368   -0.030356
      4          6           0       -3.513077   -3.903960   -0.310449
      5          6           0       -4.854231   -3.498167   -0.261920
      6          6           0       -5.116035   -2.165676    0.087272
      7          6           0       -4.087321   -1.278197    0.361876
      8          1           0       -4.330580   -0.255434    0.618644
      9          1           0       -6.136829   -1.811280    0.144085
     10          1           0       -3.279783   -4.929124   -0.572867
     11          1           0       -1.460530   -3.386576   -0.067452
     12          6           0       -2.024288    1.144893    0.469505
     13          6           0       -2.076177    2.062118    1.519419
     14          6           0       -2.557939    3.347960    1.305601
     15          6           0       -2.998131    3.759901    0.043079
     16          6           0       -2.938134    2.828194   -1.007549
     17          6           0       -2.462387    1.547025   -0.799974
     18          1           0       -2.441789    0.852586   -1.631664
     19          1           0       -3.268185    3.108632   -1.998903
     20          1           0       -2.591561    4.047473    2.132975
     21          1           0       -1.732044    1.773157    2.504601
     22          6           0        0.012734   -0.787775   -0.465214
     23         15           0        1.401063   -0.518366    0.769237
     24          6           0        2.770817   -1.667808    0.336702
     25          6           0        4.100903   -1.237268    0.274083
     26          6           0        5.123283   -2.136660    0.018090
     27          6           0        4.862839   -3.498857   -0.182984
     28          6           0        3.527646   -3.922225   -0.102547
     29          6           0        2.501285   -3.029077    0.162058
     30          1           0        1.486768   -3.404383    0.236988
     31          1           0        3.295742   -4.971306   -0.246659
     32          1           0        6.139755   -1.767686   -0.026623
     33          1           0        4.342842   -0.192462    0.417180
     34          6           0        2.026695    1.174390    0.445895
     35          6           0        2.454793    1.557357   -0.833528
     36          6           0        2.919144    2.839826   -1.066728
     37          6           0        2.977068    3.789920   -0.033146
     38          6           0        2.544068    3.396868    1.238325
     39          6           0        2.074719    2.111594    1.477284
     40          1           0        1.734679    1.841026    2.468317
     41          1           0        2.574373    4.112128    2.052090
     42          1           0        3.240246    3.105301   -2.065911
     43          1           0        2.433454    0.849054   -1.652968
     44          1           0        0.028336   -1.820069   -0.814260
     45          1           0        0.006467   -0.120572   -1.324936
     46          6           0       -5.906186   -4.475714   -0.570180
     47          1           0       -5.546196   -5.476682   -0.789357
     48          6           0       -7.220711   -4.255685   -0.610922
     49          1           0       -7.908149   -5.056322   -0.852700
     50          1           0       -7.665401   -3.287733   -0.412214
     51          6           0       -3.498652    5.130940   -0.125889
     52          1           0       -3.472810    5.736203    0.775942
     53          6           0       -3.969310    5.683014   -1.243426
     54          1           0       -4.033570    5.151420   -2.185080
     55          1           0       -4.314797    6.708871   -1.249608
     56          6           0        5.908970   -4.490291   -0.464768
     57          1           0        5.549740   -5.509618   -0.574287
     58          6           0        7.215766   -4.264903   -0.597009
     59          1           0        7.898364   -5.077844   -0.806880
     60          1           0        7.658316   -3.280512   -0.507747
     61          6           0        3.465654    5.161418   -0.228339
     62          1           0        3.426396    5.786356    0.658364
     63          6           0        3.941204    5.692963   -1.355126
     64          1           0        4.019063    5.139856   -2.282915
     65          1           0        4.276788    6.720555   -1.382100
 ---------------------------------------------------------------------

 SCF Done:  E(RB3LYP) =  -1958.71243887     A.U. after   15 cycles

      1  P    Isotropic =   237.4023   Anisotropy =   102.7581

      2  C    Isotropic =    28.7143   Anisotropy =   194.5510

      3  C    Isotropic =    50.5931   Anisotropy =   175.9482

      4  C    Isotropic =    48.0371   Anisotropy =   159.5359

      5  C    Isotropic =    41.9200   Anisotropy =   190.9940

      6  C    Isotropic =    55.7039   Anisotropy =   180.6015

      7  C    Isotropic =    50.7771   Anisotropy =   179.3223

      8  H    Isotropic =    25.2301   Anisotropy =    13.3870

      9  H    Isotropic =    24.1539   Anisotropy =     9.2899

     10  H    Isotropic =    24.5244   Anisotropy =     7.2166

     11  H    Isotropic =    24.0625   Anisotropy =    10.5751

     12  C    Isotropic =    37.1938   Anisotropy =   202.1811

     13  C    Isotropic =    38.5835   Anisotropy =   181.0933

     14  C    Isotropic =    48.5976   Anisotropy =   161.5347

     15  C    Isotropic =    37.3521   Anisotropy =   201.2756

     16  C    Isotropic =    54.8651   Anisotropy =   183.8480

     17  C    Isotropic =    40.5355   Anisotropy =   185.6674

     18  H    Isotropic =    24.2173   Anisotropy =    10.1035

     19  H    Isotropic =    24.0263   Anisotropy =     8.2488

     20  H    Isotropic =    24.6678   Anisotropy =     6.0969

     21  H    Isotropic =    23.8476   Anisotropy =     7.6212

     22  C    Isotropic =   144.5915   Anisotropy =    18.8215

     23  P    Isotropic =   240.2035   Anisotropy =    99.6365

     24  C    Isotropic =    28.9323   Anisotropy =   194.2735

     25  C    Isotropic =    50.8327   Anisotropy =   179.2041

     26  C    Isotropic =    56.0889   Anisotropy =   180.3395

     27  C    Isotropic =    41.8061   Anisotropy =   191.4449

     28  C    Isotropic =    47.7383   Anisotropy =   159.8071

     29  C    Isotropic =    49.5026   Anisotropy =   176.1420

     30  H    Isotropic =    24.0215   Anisotropy =    10.4440

     31  H    Isotropic =    24.4963   Anisotropy =     7.1786

     32  H    Isotropic =    24.1447   Anisotropy =     9.3486

     33  H    Isotropic =    25.1799   Anisotropy =    13.4399

     34  C    Isotropic =    37.7152   Anisotropy =   202.1364

     35  C    Isotropic =    40.1364   Anisotropy =   186.0024

     36  C    Isotropic =    54.8334   Anisotropy =   183.5830

     37  C    Isotropic =    37.3600   Anisotropy =   201.2255

     38  C    Isotropic =    48.4651   Anisotropy =   161.8229

     39  C    Isotropic =    39.0665   Anisotropy =   180.8053

     40  H    Isotropic =    23.9125   Anisotropy =     7.6199

     41  H    Isotropic =    24.6808   Anisotropy =     6.1406

     42  H    Isotropic =    23.9781   Anisotropy =     8.2337

     43  H    Isotropic =    24.1557   Anisotropy =    10.0899

     44  H    Isotropic =    29.2889   Anisotropy =     7.0402

     45  H    Isotropic =    28.9210   Anisotropy =     3.3121

     46  C    Isotropic =    38.5725   Anisotropy =   147.3436

     47  H    Isotropic =    24.9530   Anisotropy =     7.2226

     48  C    Isotropic =    69.7660   Anisotropy =   148.6643

     49  H    Isotropic =    26.6399   Anisotropy =     4.9829

     50  H    Isotropic =    25.8863   Anisotropy =     6.2668

     51  C    Isotropic =    38.8503   Anisotropy =   147.9185

     52  H    Isotropic =    25.0045   Anisotropy =     6.9214

     53  C    Isotropic =    66.7735   Anisotropy =   153.9781

     54  H    Isotropic =    25.8013   Anisotropy =     6.3707

     55  H    Isotropic =    26.5378   Anisotropy =     4.9127

     56  C    Isotropic =    38.6741   Anisotropy =   147.0388

     57  H    Isotropic =    24.9489   Anisotropy =     7.2122

     58  C    Isotropic =    69.7291   Anisotropy =   148.8310

     59  H    Isotropic =    26.6418   Anisotropy =     4.9743

     60  H    Isotropic =    25.8873   Anisotropy =     6.2518

     61  C    Isotropic =    38.7149   Anisotropy =   148.3795

     62  H    Isotropic =    25.0102   Anisotropy =     6.9619

     63  C    Isotropic =    66.6594   Anisotropy =   154.2863

     64  H    Isotropic =    25.7841   Anisotropy =     6.4009

     65  H    Isotropic =    26.5410   Anisotropy =     4.9224

 The electronic state is 1-A.
 Alpha  occ. eigenvalues --  -77.05236 -77.05221 -10.19717 -10.19707 -10.18939
 Alpha  occ. eigenvalues --  -10.18834 -10.18831 -10.18827 -10.18816 -10.18642
 Alpha  occ. eigenvalues --  -10.18640 -10.18610 -10.18602 -10.18598 -10.18594
 Alpha  occ. eigenvalues --  -10.18563 -10.18489 -10.18410 -10.18403 -10.18400
 Alpha  occ. eigenvalues --  -10.18372 -10.18039 -10.17998 -10.17992 -10.17928
 Alpha  occ. eigenvalues --  -10.17837 -10.17776 -10.17706 -10.17701 -10.17694
 Alpha  occ. eigenvalues --  -10.17670 -10.17641 -10.17610 -10.16759 -10.16719
 Alpha  occ. eigenvalues --   -6.53799  -6.53782  -4.69950  -4.69934  -4.69917
 Alpha  occ. eigenvalues --   -4.69900  -4.69439  -4.69422  -0.87372  -0.87302
 Alpha  occ. eigenvalues --   -0.86521  -0.86463  -0.80776  -0.80442  -0.79524
 Alpha  occ. eigenvalues --   -0.79436  -0.76294  -0.75944  -0.75810  -0.75259
 Alpha  occ. eigenvalues --   -0.75213  -0.74367  -0.73130  -0.72949  -0.71921
 Alpha  occ. eigenvalues --   -0.65423  -0.64124  -0.62719  -0.62682  -0.61903
 Alpha  occ. eigenvalues --   -0.61827  -0.61246  -0.60940  -0.57718  -0.57262
 Alpha  occ. eigenvalues --   -0.56806  -0.56676  -0.56214  -0.55743  -0.51481
 Alpha  occ. eigenvalues --   -0.51230  -0.50381  -0.49819  -0.48362  -0.48256
 Alpha  occ. eigenvalues --   -0.47597  -0.47269  -0.46013  -0.45923  -0.45669
 Alpha  occ. eigenvalues --   -0.45307  -0.45067  -0.44703  -0.44168  -0.43500
 Alpha  occ. eigenvalues --   -0.43432  -0.43021  -0.42743  -0.42602  -0.42449
 Alpha  occ. eigenvalues --   -0.41939  -0.41709  -0.41018  -0.40231  -0.39073
 Alpha  occ. eigenvalues --   -0.38851  -0.38574  -0.38443  -0.38164  -0.36944
 Alpha  occ. eigenvalues --   -0.36779  -0.36150  -0.35403  -0.35122  -0.35082
 Alpha  occ. eigenvalues --   -0.34610  -0.34527  -0.33588  -0.33217  -0.33051
 Alpha  occ. eigenvalues --   -0.31677  -0.31567  -0.31353  -0.29960  -0.27089
 Alpha  occ. eigenvalues --   -0.26757  -0.26121  -0.26065  -0.25459  -0.24519
 Alpha  occ. eigenvalues --   -0.24318  -0.23615  -0.21552  -0.18890
 Alpha virt. eigenvalues --   -0.06338  -0.05714  -0.05204  -0.04490  -0.02991
 Alpha virt. eigenvalues --   -0.02491  -0.01793  -0.01085   0.01281   0.02097
 Alpha virt. eigenvalues --    0.02792   0.02862   0.03601   0.03928   0.04570

 Mulliken charges:
               1
     1  P    0.166957
     2  C    0.048630
     3  C   -0.179091
     4  C   -0.196690
     5  C    0.245197
     6  C   -0.213660
     7  C   -0.148969
     8  H    0.134885
     9  H    0.094807
    10  H    0.098134
    11  H    0.107219
    12  C    0.030581
    13  C   -0.142626
    14  C   -0.165338
    15  C    0.243103
    16  C   -0.172189
    17  C   -0.192943
    18  H    0.123091
    19  H    0.096757
    20  H    0.104362
    21  H    0.113624
    22  C   -0.376869
    23  P    0.159768
    24  C    0.046090
    25  C   -0.150633
    26  C   -0.211852
    27  C    0.243808
    28  C   -0.194483
    29  C   -0.197036
    30  H    0.129956
    31  H    0.099028
    32  H    0.094563
    33  H    0.137236
    34  C    0.047935
    35  C   -0.211033
    36  C   -0.164488
    37  C    0.239082
    38  C   -0.163549
    39  C   -0.144354
    40  H    0.113344
    41  H    0.104342
    42  H    0.096983
    43  H    0.123815
    44  H    0.131778
    45  H    0.134487
    46  C   -0.145826
    47  H    0.098180
    48  C   -0.250831
    49  H    0.113844
    50  H    0.103142
    51  C   -0.143132
    52  H    0.101413
    53  C   -0.243568
    54  H    0.106430
    55  H    0.117874
    56  C   -0.145571
    57  H    0.098229
    58  C   -0.250221
    59  H    0.114111
    60  H    0.103274
    61  C   -0.143353
    62  H    0.101602
    63  C   -0.243793
    64  H    0.106364
    65  H    0.118068
 Sum of Mulliken charges =  -0.00000

 Dipole moment (field-independent basis, Debye):
    X=              0.0637    Y=              2.3077    Z=             -1.8620  Tot=              2.9659
 Quadrupole moment (field-independent basis, Debye-Ang):
   XX=           -219.7595   YY=           -201.0160   ZZ=           -223.1828
   XY=             -0.4046   XZ=             -0.6910   YZ=              7.1067

 Summary of Natural Population Analysis:

                                       Natural Population
                Natural  -----------------------------------------------
    Atom  No    Charge         Core      Valence    Rydberg      Total
 -----------------------------------------------------------------------
      P    1    0.83331      9.99814     4.13469    0.03387    14.16669
      C    2   -0.31528      1.99898     4.28709    0.02920     6.31528
      C    3   -0.21062      1.99908     4.19199    0.01955     6.21062
      C    4   -0.17124      1.99913     4.15411    0.01800     6.17124
      C    5   -0.08761      1.99907     4.06616    0.02238     6.08761
      C    6   -0.17093      1.99909     4.15403    0.01780     6.17093
      C    7   -0.20379      1.99909     4.18549    0.01920     6.20379
      H    8    0.21407      0.00000     0.78414    0.00179     0.78593
      H    9    0.20248      0.00000     0.79578    0.00174     0.79752
      H   10    0.20419      0.00000     0.79440    0.00141     0.79581
      H   11    0.19823      0.00000     0.79973    0.00203     0.80177
      C   12   -0.33893      1.99901     4.30724    0.03268     6.33893
      C   13   -0.18091      1.99910     4.16131    0.02050     6.18091
      C   14   -0.18307      1.99913     4.16557    0.01838     6.18307
      C   15   -0.06424      1.99907     4.04317    0.02200     6.06424
      C   16   -0.18256      1.99909     4.16545    0.01801     6.18256
      C   17   -0.18441      1.99909     4.16603    0.01929     6.18441
      H   18    0.20956      0.00000     0.78813    0.00231     0.79044
      H   19    0.20321      0.00000     0.79493    0.00185     0.79679
      H   20    0.20664      0.00000     0.79194    0.00142     0.79336
      H   21    0.21982      0.00000     0.77859    0.00158     0.78018
      C   22   -0.98863      1.99944     4.95590    0.03329     6.98863
      P   23    0.83181      9.99814     4.13624    0.03381    14.16819
      C   24   -0.31540      1.99898     4.28730    0.02912     6.31540
      C   25   -0.20412      1.99909     4.18580    0.01923     6.20412
      C   26   -0.17155      1.99909     4.15461    0.01786     6.17155
      C   27   -0.08628      1.99907     4.06485    0.02235     6.08628
      C   28   -0.17181      1.99913     4.15467    0.01800     6.17181
      C   29   -0.20941      1.99908     4.19065    0.01967     6.20941
      H   30    0.20026      0.00000     0.79786    0.00188     0.79974
      H   31    0.20452      0.00000     0.79406    0.00141     0.79548
      H   32    0.20235      0.00000     0.79590    0.00175     0.79765
      H   33    0.21471      0.00000     0.78347    0.00181     0.78529
      C   34   -0.33938      1.99901     4.30786    0.03251     6.33938
      C   35   -0.18561      1.99909     4.16727    0.01925     6.18561
      C   36   -0.18300      1.99909     4.16590    0.01801     6.18300
      C   37   -0.06458      1.99907     4.04354    0.02197     6.06458
      C   38   -0.18244      1.99913     4.16495    0.01836     6.18244
      C   39   -0.18018      1.99910     4.16059    0.02049     6.18018
      H   40    0.21959      0.00000     0.77882    0.00158     0.78041
      H   41    0.20665      0.00000     0.79193    0.00142     0.79335
      H   42    0.20325      0.00000     0.79490    0.00185     0.79675
      H   43    0.20946      0.00000     0.78823    0.00231     0.79054
      H   44    0.24845      0.00000     0.74974    0.00181     0.75155
      H   45    0.24192      0.00000     0.75572    0.00236     0.75808
      C   46   -0.18882      1.99915     4.17019    0.01948     6.18882
      H   47    0.19426      0.00000     0.80380    0.00194     0.80574
      C   48   -0.36859      1.99920     4.35292    0.01647     6.36859
      H   49    0.19641      0.00000     0.80221    0.00138     0.80359
      H   50    0.18412      0.00000     0.81431    0.00156     0.81588
      C   51   -0.19295      1.99914     4.17448    0.01933     6.19295
      H   52    0.19646      0.00000     0.80168    0.00186     0.80354
      C   53   -0.35421      1.99920     4.33897    0.01605     6.35421
      H   54    0.18522      0.00000     0.81322    0.00157     0.81478
      H   55    0.19831      0.00000     0.80036    0.00133     0.80169
      C   56   -0.18906      1.99914     4.17041    0.01951     6.18906
      H   57    0.19432      0.00000     0.80374    0.00194     0.80568
      C   58   -0.36754      1.99920     4.35188    0.01646     6.36754
      H   59    0.19650      0.00000     0.80212    0.00138     0.80350
      H   60    0.18410      0.00000     0.81433    0.00157     0.81590
      C   61   -0.19269      1.99915     4.17426    0.01929     6.19269
      H   62    0.19649      0.00000     0.80165    0.00186     0.80351
      C   63   -0.35416      1.99920     4.33895    0.01601     6.35416
      H   64    0.18506      0.00000     0.81338    0.00156     0.81494
      H   65    0.19823      0.00000     0.80044    0.00133     0.80177
 =======================================================================
   * Total *    0.00000     85.96698   171.22407    0.80895   258.00000

 Normal termination of Gaussian 16 at Fri Jan 24 02:42:30 2025.
