 Gaussian 16, Revision B.01,
 Gaussian 16:  ES64L-G16RevB.01 20-Dec-2017

 --------------------------------------------
 # nmr=giao b3lyp/def2TZVP pop=nbo scfcyc=200
 --------------------------------------------

 ------------------
 Ligand 26 SPE NoRh
 ------------------
 Symbolic Z-matrix:
 Charge =  0 Multiplicity = 1

                         Standard orientation:
 ---------------------------------------------------------------------
 Center     Atomic      Atomic             Coordinates (Angstroms)
 Number     Number       Type             X           Y           Z
 ---------------------------------------------------------------------
      1          6           0       -0.044832   -2.807002   -0.052445
      2          1           0        0.931169   -3.057698   -0.463422
      3          1           0       -0.807078   -3.361512   -0.590184
      4          1           0       -0.068271   -3.095888    0.997961
      5          6           0        1.872177    0.960807    0.344422
      6          6           0        2.895050    1.022483    1.336321
      7          1           0        3.618136    1.814978    1.436558
      8          6           0        2.832517   -0.135350    2.151330
      9          1           0        3.494292   -0.375033    2.968909
     10          6           0        1.776723   -0.947232    1.674261
     11          1           0        1.497239   -1.903852    2.084144
     12          6           0        1.164652   -0.286337    0.550789
     13          6           0        5.066087   -0.514504   -0.701257
     14          1           0        5.707685    0.347008   -0.608120
     15          6           0        5.030911   -1.627715    0.183390
     16          1           0        5.638298   -1.754142    1.064845
     17          6           0        4.038700   -2.532671   -0.284939
     18          1           0        3.771997   -3.471562    0.175108
     19          6           0        4.094195   -0.729567   -1.718318
     20          1           0        3.883805   -0.070811   -2.545392
     21          6           0        1.566811    2.069719   -0.637499
     22          1           0        1.120535    1.610930   -1.523222
     23          6           0        2.837221    2.815310   -1.088109
     24          1           0        2.605712    3.536837   -1.871343
     25          1           0        3.570399    2.115903   -1.486462
     26          1           0        3.307237    3.359381   -0.268396
     27          6           0        0.045330    3.924868   -1.096178
     28          1           0       -0.864200    4.410687   -0.739740
     29          1           0       -0.190014    3.414385   -2.032502
     30          1           0        0.776943    4.716500   -1.311683
     31          6           0        0.808222    3.623035    1.159829
     32          1           0        1.067169    2.892648    1.924851
     33          1           0       -0.080826    4.159829    1.497399
     34          1           0        1.626281    4.356537    1.087132
     35         26           0        3.172131   -0.680033    0.165243
     36          7           0        0.499952    2.956082   -0.103069
     37         15           0       -0.321470   -0.985413   -0.260810
     38         15           0       -3.116794   -0.334912   -0.434654
     39          6           0       -1.764576   -0.562740    0.854700
     40          1           0       -1.547065    0.400457    1.313645
     41          1           0       -1.968167   -1.280471    1.648985
     42          6           0       -4.343815   -1.802530   -0.186964
     43          6           0       -3.934523    1.350815    0.023479
     44          6           0       -2.948315    2.435154   -0.440034
     45          1           0       -1.958005    2.333222    0.005863
     46          1           0       -2.824021    2.432093   -1.522520
     47          1           0       -3.345535    3.412542   -0.154128
     48          6           0       -5.262316    1.536099   -0.726616
     49          1           0       -6.055105    0.897795   -0.339082
     50          1           0       -5.592192    2.570956   -0.602052
     51          1           0       -5.165764    1.355992   -1.799308
     52          6           0       -4.169974    1.520544    1.534003
     53          1           0       -4.578980    2.519048    1.707761
     54          1           0       -4.880170    0.804432    1.939795
     55          1           0       -3.247045    1.452279    2.111236
     56          6           0       -5.083310   -1.738029    1.157767
     57          1           0       -5.809257   -0.929130    1.193197
     58          1           0       -5.634958   -2.672456    1.298866
     59          1           0       -4.404534   -1.632551    2.006396
     60          6           0       -5.364877   -1.840826   -1.338614
     61          1           0       -4.880039   -2.010717   -2.298684
     62          1           0       -6.047865   -2.678171   -1.169498
     63          1           0       -5.968220   -0.939430   -1.410228
     64          6           0       -3.532931   -3.106959   -0.243277
     65          1           0       -2.854747   -3.213964    0.602731
     66          1           0       -4.226577   -3.951166   -0.207568
     67          1           0       -2.961832   -3.187140   -1.170073
     68          6           0        3.462079   -1.978111   -1.460478
     69          1           0        2.695225   -2.431155   -2.068027
 ---------------------------------------------------------------------

 SCF Done:  E(RB3LYP) =  -2940.85753273     A.U. after   18 cycles

      1  C    Isotropic =   169.3573   Anisotropy =    15.8914

      2  H    Isotropic =    30.2333   Anisotropy =     9.8848

      3  H    Isotropic =    30.0537   Anisotropy =     9.3590

      4  H    Isotropic =    30.5190   Anisotropy =     6.8439

      5  C    Isotropic =    81.1247   Anisotropy =   100.8438

      6  C    Isotropic =   109.4752   Anisotropy =    87.6167

      7  H    Isotropic =    27.9604   Anisotropy =     3.6911

      8  C    Isotropic =   111.1869   Anisotropy =    87.3827

      9  H    Isotropic =    27.9700   Anisotropy =     6.4105

     10  C    Isotropic =   110.1315   Anisotropy =    87.2263

     11  H    Isotropic =    27.9312   Anisotropy =     5.7866

     12  C    Isotropic =    94.2679   Anisotropy =   103.4953

     13  C    Isotropic =   111.0489   Anisotropy =    89.4357

     14  H    Isotropic =    28.1527   Anisotropy =     4.2949

     15  C    Isotropic =   111.7439   Anisotropy =    86.0554

     16  H    Isotropic =    28.1154   Anisotropy =     5.4861

     17  C    Isotropic =   112.4701   Anisotropy =    88.4227

     18  H    Isotropic =    28.2339   Anisotropy =     4.1920

     19  C    Isotropic =   107.9373   Anisotropy =    94.4349

     20  H    Isotropic =    28.3564   Anisotropy =     2.9327

     21  C    Isotropic =   123.6032   Anisotropy =    51.4095

     22  H    Isotropic =    27.7135   Anisotropy =     4.5514

     23  C    Isotropic =   174.8212   Anisotropy =    17.0573

     24  H    Isotropic =    30.4505   Anisotropy =     9.1830

     25  H    Isotropic =    30.4436   Anisotropy =     8.0584

     26  H    Isotropic =    30.5213   Anisotropy =     7.1653

     27  C    Isotropic =   137.0416   Anisotropy =    62.9488

     28  H    Isotropic =    29.8271   Anisotropy =     8.1015

     29  H    Isotropic =    29.6386   Anisotropy =     7.4183

     30  H    Isotropic =    29.7194   Anisotropy =     8.8268

     31  C    Isotropic =   147.1475   Anisotropy =    52.2499

     32  H    Isotropic =    29.9996   Anisotropy =     4.9338

     33  H    Isotropic =    30.3140   Anisotropy =     9.0820

     34  H    Isotropic =    30.1524   Anisotropy =     9.6321

     35  Fe   Isotropic = -5867.3474   Anisotropy = 10177.6727

     36  N    Isotropic =   202.6401   Anisotropy =    58.7950

     37  P    Isotropic =   294.3125   Anisotropy =   118.9401

     38  P    Isotropic =   195.9652   Anisotropy =    84.6234

     39  C    Isotropic =   155.5964   Anisotropy =    32.3914

     40  H    Isotropic =    30.9076   Anisotropy =     6.3103

     41  H    Isotropic =    30.5718   Anisotropy =     4.4975

     42  C    Isotropic =   142.2217   Anisotropy =    18.0936

     43  C    Isotropic =   140.6174   Anisotropy =    18.8985

     44  C    Isotropic =   150.8260   Anisotropy =    48.4458

     45  H    Isotropic =    30.0933   Anisotropy =    14.7044

     46  H    Isotropic =    30.8654   Anisotropy =     7.0687

     47  H    Isotropic =    31.6218   Anisotropy =     7.5275

     48  C    Isotropic =   152.9650   Anisotropy =    36.9226

     49  H    Isotropic =    30.7739   Anisotropy =     7.7729

     50  H    Isotropic =    31.1541   Anisotropy =     9.3492

     51  H    Isotropic =    30.6546   Anisotropy =     7.3230

     52  C    Isotropic =   156.4252   Anisotropy =    37.6904

     53  H    Isotropic =    31.4353   Anisotropy =     9.4829

     54  H    Isotropic =    30.6163   Anisotropy =     7.1757

     55  H    Isotropic =    30.9221   Anisotropy =     4.2158

     56  C    Isotropic =   153.9779   Anisotropy =    33.9317

     57  H    Isotropic =    30.5899   Anisotropy =     6.6121

     58  H    Isotropic =    31.1319   Anisotropy =    10.0349

     59  H    Isotropic =    30.7181   Anisotropy =     4.9620

     60  C    Isotropic =   152.5985   Anisotropy =    44.4730

     61  H    Isotropic =    30.7519   Anisotropy =     7.8897

     62  H    Isotropic =    31.2782   Anisotropy =     9.8163

     63  H    Isotropic =    30.4793   Anisotropy =     7.0572

     64  C    Isotropic =   148.7362   Anisotropy =    40.9841

     65  H    Isotropic =    31.0222   Anisotropy =     7.2496

     66  H    Isotropic =    31.2174   Anisotropy =     8.5008

     67  H    Isotropic =    30.7006   Anisotropy =     6.7350

     68  C    Isotropic =   108.5111   Anisotropy =    93.5165

     69  H    Isotropic =    28.2815   Anisotropy =     3.5160

 The electronic state is 1-A.
 Alpha  occ. eigenvalues -- -256.04361 -77.03644 -77.02983 -29.98447 -25.85879
 Alpha  occ. eigenvalues --  -25.83905 -25.83895 -14.30610 -10.20345 -10.18688
 Alpha  occ. eigenvalues --  -10.18642 -10.18434 -10.18219 -10.18173 -10.18074
 Alpha  occ. eigenvalues --  -10.18025 -10.18006 -10.17963 -10.17923 -10.17885
 Alpha  occ. eigenvalues --  -10.17744 -10.17734 -10.17540 -10.17075 -10.16091
 Alpha  occ. eigenvalues --  -10.16040 -10.15785 -10.15761 -10.15738 -10.15573
 Alpha  occ. eigenvalues --  -10.15347 -10.14841  -6.52132  -6.51494  -4.68292
 Alpha  occ. eigenvalues --   -4.68258  -4.67759  -4.67658  -4.67590  -4.67124
 Alpha  occ. eigenvalues --   -3.39983  -2.20236  -2.15758  -2.15740  -0.91921
 Alpha  occ. eigenvalues --   -0.89063  -0.87633  -0.81574  -0.79993  -0.76840
 Alpha  occ. eigenvalues --   -0.75118  -0.71410  -0.71354  -0.70864  -0.70605
 Alpha  occ. eigenvalues --   -0.69723  -0.69334  -0.68796  -0.68640  -0.68026
 Alpha  occ. eigenvalues --   -0.67786  -0.65474  -0.60140  -0.58300  -0.56549
 Alpha  occ. eigenvalues --   -0.54975  -0.54652  -0.54461  -0.54354  -0.53433
 Alpha  occ. eigenvalues --   -0.51067  -0.50487  -0.48556  -0.47858  -0.46427
 Alpha  occ. eigenvalues --   -0.45447  -0.44853  -0.44575  -0.44245  -0.43673
 Alpha  occ. eigenvalues --   -0.42888  -0.42821  -0.42356  -0.41986  -0.41499
 Alpha  occ. eigenvalues --   -0.41264  -0.40926  -0.40893  -0.40235  -0.40102
 Alpha  occ. eigenvalues --   -0.39596  -0.39343  -0.38890  -0.38437  -0.38251
 Alpha  occ. eigenvalues --   -0.38182  -0.37908  -0.37857  -0.37635  -0.37249
 Alpha  occ. eigenvalues --   -0.36832  -0.36569  -0.36268  -0.36054  -0.35921
 Alpha  occ. eigenvalues --   -0.34759  -0.34269  -0.33775  -0.33574  -0.33272
 Alpha  occ. eigenvalues --   -0.32824  -0.32475  -0.29958  -0.27794  -0.27090
 Alpha  occ. eigenvalues --   -0.26914  -0.25280  -0.24952  -0.23324  -0.21549
 Alpha  occ. eigenvalues --   -0.21112  -0.20307  -0.20161  -0.18284
 Alpha virt. eigenvalues --   -0.01886  -0.01719   0.01785   0.02266   0.02741
 Alpha virt. eigenvalues --    0.03230   0.03485   0.04152   0.04779   0.04962
 Alpha virt. eigenvalues --    0.05216   0.05440   0.05506   0.05896   0.06221

 Mulliken charges:
               1
     1  C   -0.471047
     2  H    0.136178
     3  H    0.146483
     4  H    0.111169
     5  C    0.305663
     6  C   -0.255423
     7  H    0.099930
     8  C   -0.049814
     9  H    0.097860
    10  C   -0.232097
    11  H    0.099754
    12  C    0.096882
    13  C   -0.143675
    14  H    0.105491
    15  C   -0.115851
    16  H    0.102619
    17  C   -0.158893
    18  H    0.105911
    19  C   -0.202391
    20  H    0.111159
    21  C   -0.063739
    22  H    0.082110
    23  C   -0.386868
    24  H    0.120428
    25  H    0.114843
    26  H    0.108307
    27  C   -0.287595
    28  H    0.124773
    29  H    0.121961
    30  H    0.102611
    31  C   -0.288424
    32  H    0.138284
    33  H    0.117464
    34  H    0.088758
    35  Fe   0.224135
    36  N   -0.180744
    37  P    0.109659
    38  P    0.112489
    39  C   -0.366432
    40  H    0.132747
    41  H    0.103236
    42  C    0.101612
    43  C    0.102414
    44  C   -0.401244
    45  H    0.152578
    46  H    0.110788
    47  H    0.094630
    48  C   -0.397639
    49  H    0.108837
    50  H    0.107206
    51  H    0.127271
    52  C   -0.340243
    53  H    0.096781
    54  H    0.113414
    55  H    0.106115
    56  C   -0.372548
    57  H    0.105642
    58  H    0.100264
    59  H    0.117562
    60  C   -0.360453
    61  H    0.117136
    62  H    0.101810
    63  H    0.118497
    64  C   -0.405685
    65  H    0.122317
    66  H    0.110443
    67  H    0.124682
    68  C   -0.196080
    69  H    0.115978
 Sum of Mulliken charges =  -0.00000

 Dipole moment (field-independent basis, Debye):
    X=              0.6790    Y=              0.2781    Z=              1.7818  Tot=              1.9270
 Quadrupole moment (field-independent basis, Debye-Ang):
   XX=           -196.3784   YY=           -193.0316   ZZ=           -201.4822
   XY=              4.1905   XZ=              2.5683   YZ=             -3.8889

 Summary of Natural Population Analysis:

                                       Natural Population
                Natural  -----------------------------------------------
    Atom  No    Charge         Core      Valence    Rydberg      Total
 -----------------------------------------------------------------------
      C    1   -0.91063      1.99944     4.89129    0.01990     6.91063
      H    2    0.23183      0.00000     0.76697    0.00120     0.76817
      H    3    0.22946      0.00000     0.76955    0.00099     0.77054
      H    4    0.20085      0.00000     0.79654    0.00261     0.79915
      C    5    0.01871      1.99878     3.94493    0.03758     5.98129
      C    6   -0.19701      1.99883     4.17430    0.02387     6.19701
      H    7    0.23126      0.00000     0.76678    0.00196     0.76874
      C    8   -0.18508      1.99893     4.16231    0.02385     6.18508
      H    9    0.23062      0.00000     0.76804    0.00134     0.76938
      C   10   -0.18884      1.99885     4.16465    0.02535     6.18884
      H   11    0.22629      0.00000     0.77060    0.00311     0.77371
      C   12   -0.31319      1.99866     4.27466    0.03987     6.31319
      C   13   -0.19137      1.99893     4.16726    0.02519     6.19137
      H   14    0.23281      0.00000     0.76581    0.00138     0.76719
      C   15   -0.18764      1.99893     4.16320    0.02551     6.18764
      H   16    0.23264      0.00000     0.76602    0.00134     0.76736
      C   17   -0.19492      1.99893     4.17082    0.02517     6.19492
      H   18    0.23339      0.00000     0.76524    0.00138     0.76661
      C   19   -0.19482      1.99893     4.17050    0.02539     6.19482
      H   20    0.23410      0.00000     0.76446    0.00144     0.76590
      C   21   -0.05885      1.99921     4.03932    0.02033     6.05885
      H   22    0.21022      0.00000     0.78699    0.00279     0.78978
      C   23   -0.61396      1.99942     4.60189    0.01266     6.61396
      H   24    0.20603      0.00000     0.79281    0.00117     0.79397
      H   25    0.21363      0.00000     0.78517    0.00119     0.78637
      H   26    0.19551      0.00000     0.80315    0.00134     0.80449
      C   27   -0.40325      1.99937     4.39301    0.01087     6.40325
      H   28    0.19604      0.00000     0.80214    0.00182     0.80396
      H   29    0.19783      0.00000     0.80059    0.00158     0.80217
      H   30    0.15913      0.00000     0.83679    0.00408     0.84087
      C   31   -0.40867      1.99935     4.39809    0.01123     6.40867
      H   32    0.20496      0.00000     0.79350    0.00154     0.79504
      H   33    0.19416      0.00000     0.80418    0.00166     0.80584
      H   34    0.15584      0.00000     0.84007    0.00409     0.84416
     Fe   35   -0.37859     17.99304     8.34310    0.04246    26.37859
      N   36   -0.42016      1.99956     5.39146    0.02913     7.42016
      P   37    0.83235      9.99832     4.13312    0.03621    14.16765
      P   38    0.78148      9.99844     4.19067    0.02941    14.21852
      C   39   -1.02182      1.99945     4.98986    0.03251     7.02182
      H   40    0.25144      0.00000     0.74614    0.00242     0.74856
      H   41    0.22739      0.00000     0.76930    0.00331     0.77261
      C   42   -0.27366      1.99945     4.24909    0.02512     6.27366
      C   43   -0.26700      1.99946     4.24269    0.02486     6.26700
      C   44   -0.61672      1.99937     4.60244    0.01491     6.61672
      H   45    0.22644      0.00000     0.77178    0.00177     0.77356
      H   46    0.21113      0.00000     0.78744    0.00142     0.78887
      H   47    0.19537      0.00000     0.80249    0.00214     0.80463
      C   48   -0.60194      1.99937     4.59050    0.01207     6.60194
      H   49    0.19860      0.00000     0.79987    0.00153     0.80140
      H   50    0.20166      0.00000     0.79619    0.00215     0.79834
      H   51    0.21039      0.00000     0.78801    0.00160     0.78961
      C   52   -0.60387      1.99936     4.59227    0.01223     6.60387
      H   53    0.19483      0.00000     0.80285    0.00232     0.80517
      H   54    0.20356      0.00000     0.79508    0.00135     0.79644
      H   55    0.20017      0.00000     0.79851    0.00132     0.79983
      C   56   -0.60362      1.99937     4.59191    0.01235     6.60362
      H   57    0.19989      0.00000     0.79856    0.00155     0.80011
      H   58    0.19462      0.00000     0.80299    0.00240     0.80538
      H   59    0.20108      0.00000     0.79720    0.00172     0.79892
      C   60   -0.60108      1.99937     4.58931    0.01241     6.60108
      H   61    0.21116      0.00000     0.78742    0.00142     0.78884
      H   62    0.19778      0.00000     0.80018    0.00204     0.80222
      H   63    0.20677      0.00000     0.79197    0.00126     0.79323
      C   64   -0.60343      1.99937     4.59154    0.01251     6.60343
      H   65    0.20167      0.00000     0.79664    0.00169     0.79833
      H   66    0.20395      0.00000     0.79393    0.00212     0.79605
      H   67    0.20931      0.00000     0.78924    0.00145     0.79069
      C   68   -0.19187      1.99893     4.16750    0.02543     6.19187
      H   69    0.23562      0.00000     0.76292    0.00146     0.76438
 =======================================================================
   * Total *    0.00000     87.96940   159.30580    0.72480   248.00000

 Normal termination of Gaussian 16 at Wed Nov  6 16:31:05 2024.
