 Gaussian 16, Revision B.01,
 Gaussian 16:  ES64L-G16RevB.01 20-Dec-2017

 --------------------------------------------
 # nmr=giao b3lyp/def2TZVP pop=nbo scfcyc=200
 --------------------------------------------

 ---------------
 MB-109 SPE NoRh
 ---------------
 Symbolic Z-matrix:
 Charge =  0 Multiplicity = 1

                         Standard orientation:
 ---------------------------------------------------------------------
 Center     Atomic      Atomic             Coordinates (Angstroms)
 Number     Number       Type             X           Y           Z
 ---------------------------------------------------------------------
      1         15           0       -1.391684    0.398247   -0.666118
      2          6           0       -2.755998    1.579664   -0.292258
      3          6           0       -2.466775    2.934711   -0.100768
      4          6           0       -3.486268    3.860905    0.101148
      5          6           0       -4.808313    3.407342    0.088212
      6          6           0       -5.126414    2.066272   -0.114085
      7          6           0       -4.083736    1.155219   -0.308772
      8          1           0       -4.320494    0.110408   -0.464094
      9          1           0       -5.610216    4.123187    0.235244
     10          1           0       -1.440944    3.284571   -0.115560
     11          6           0       -2.031832   -1.270999   -0.247462
     12          6           0       -2.113870   -2.243323   -1.240408
     13          6           0       -2.606056   -3.519287   -0.952035
     14          6           0       -3.011792   -3.790131    0.351576
     15          6           0       -2.935861   -2.833600    1.370488
     16          6           0       -2.442885   -1.570902    1.055632
     17          1           0       -2.394740   -0.815197    1.832178
     18          1           0       -3.400949   -4.775948    0.587022
     19          1           0       -1.786806   -2.009582   -2.247080
     20          6           0        0.005960    0.725947    0.540965
     21         15           0        1.396297    0.381786   -0.671547
     22          6           0        2.758209    1.575643   -0.329099
     23          6           0        4.085857    1.154370   -0.270699
     24          6           0        5.120399    2.078278   -0.095770
     25          6           0        4.795318    3.427805    0.012531
     26          6           0        3.472992    3.879751   -0.050956
     27          6           0        2.462258    2.939934   -0.234197
     28          1           0        1.437737    3.284096   -0.314065
     29          1           0        5.591581    4.153272    0.144274
     30          1           0        4.327226    0.102071   -0.354161
     31          6           0        2.042385   -1.279620   -0.224635
     32          6           0        2.458674   -1.553735    1.082673
     33          6           0        2.940842   -2.814485    1.422815
     34          6           0        3.001719   -3.794482    0.425968
     35          6           0        2.596131   -3.547668   -0.882411
     36          6           0        2.108163   -2.274563   -1.195799
     37          1           0        1.766911   -2.066088   -2.202505
     38          1           0        3.374664   -4.780222    0.683168
     39          1           0        2.416939   -0.782744    1.843215
     40          1           0        0.015095    1.777357    0.825106
     41          1           0        0.004526    0.112765    1.440929
     42          6           0       -3.387088   -3.170927    2.768612
     43          1           0       -4.436436   -3.475695    2.780844
     44          1           0       -2.806023   -3.998408    3.181264
     45          1           0       -3.280152   -2.318730    3.439484
     46          6           0       -2.668261   -4.581978   -2.019348
     47          1           0       -1.738550   -5.159157   -2.048743
     48          1           0       -3.480494   -5.285008   -1.834114
     49          1           0       -2.815999   -4.147312   -3.008637
     50          6           0       -6.559529    1.599600   -0.094995
     51          1           0       -6.862079    1.319595    0.917647
     52          1           0       -7.237887    2.383654   -0.433480
     53          1           0       -6.703617    0.725759   -0.731968
     54          6           0       -3.179823    5.317395    0.340057
     55          1           0       -3.373268    5.592130    1.380414
     56          1           0       -2.135779    5.548559    0.124955
     57          1           0       -3.803417    5.960686   -0.284126
     58          6           0        3.384964   -3.126701    2.829106
     59          1           0        2.769446   -3.915095    3.268832
     60          1           0        4.419246   -3.478476    2.845754
     61          1           0        3.318083   -2.250698    3.473881
     62          6           0        2.701913   -4.614250   -1.942347
     63          1           0        3.664330   -4.555598   -2.458802
     64          1           0        2.625121   -5.613094   -1.510569
     65          1           0        1.920152   -4.507787   -2.696020
     66          6           0        6.551708    1.615983    0.003000
     67          1           0        6.811689    1.376554    1.038040
     68          1           0        6.723480    0.718008   -0.591995
     69          1           0        7.243299    2.387847   -0.336499
     70          6           0        3.158257    5.346975    0.083919
     71          1           0        2.125854    5.562609   -0.191434
     72          1           0        3.305489    5.684557    1.112965
     73          1           0        3.810299    5.951793   -0.550335
 ---------------------------------------------------------------------

 SCF Done:  E(RB3LYP) =  -1963.64884706     A.U. after   14 cycles

      1  P    Isotropic =   235.5498   Anisotropy =   104.2523

      2  C    Isotropic =    27.6593   Anisotropy =   191.3756

      3  C    Isotropic =    53.0462   Anisotropy =   151.0317

      4  C    Isotropic =    38.3441   Anisotropy =   193.4323

      5  C    Isotropic =    52.2839   Anisotropy =   142.7761

      6  C    Isotropic =    37.6785   Anisotropy =   195.5698

      7  C    Isotropic =    53.0679   Anisotropy =   159.5108

      8  H    Isotropic =    25.6479   Anisotropy =    14.5764

      9  H    Isotropic =    24.9490   Anisotropy =     8.1819

     10  H    Isotropic =    24.3600   Anisotropy =    11.6183

     11  C    Isotropic =    36.3440   Anisotropy =   201.1365

     12  C    Isotropic =    41.5589   Anisotropy =   161.3199

     13  C    Isotropic =    38.6233   Anisotropy =   195.9391

     14  C    Isotropic =    47.0687   Anisotropy =   154.9994

     15  C    Isotropic =    36.5714   Anisotropy =   198.7958

     16  C    Isotropic =    42.8076   Anisotropy =   159.1963

     17  H    Isotropic =    24.5793   Anisotropy =    11.1182

     18  H    Isotropic =    24.7399   Anisotropy =     7.7041

     19  H    Isotropic =    24.1535   Anisotropy =     9.0049

     20  C    Isotropic =   145.1061   Anisotropy =    18.5724

     21  P    Isotropic =   236.6980   Anisotropy =   102.5091

     22  C    Isotropic =    27.7418   Anisotropy =   191.2595

     23  C    Isotropic =    52.9031   Anisotropy =   159.8088

     24  C    Isotropic =    37.9230   Anisotropy =   195.1007

     25  C    Isotropic =    52.0730   Anisotropy =   142.7938

     26  C    Isotropic =    38.0378   Anisotropy =   193.7108

     27  C    Isotropic =    52.3746   Anisotropy =   151.3606

     28  H    Isotropic =    24.3377   Anisotropy =    11.5501

     29  H    Isotropic =    24.9218   Anisotropy =     8.1859

     30  H    Isotropic =    25.5619   Anisotropy =    14.5621

     31  C    Isotropic =    36.2895   Anisotropy =   201.0834

     32  C    Isotropic =    42.7661   Anisotropy =   159.0056

     33  C    Isotropic =    36.6046   Anisotropy =   198.6078

     34  C    Isotropic =    47.3565   Anisotropy =   154.5435

     35  C    Isotropic =    38.2727   Anisotropy =   196.4339

     36  C    Isotropic =    41.7957   Anisotropy =   161.2336

     37  H    Isotropic =    24.1926   Anisotropy =     9.0741

     38  H    Isotropic =    24.7503   Anisotropy =     7.6801

     39  H    Isotropic =    24.5354   Anisotropy =    11.1420

     40  H    Isotropic =    29.3159   Anisotropy =     7.3677

     41  H    Isotropic =    28.9321   Anisotropy =     3.3606

     42  C    Isotropic =   160.8998   Anisotropy =    40.7209

     43  H    Isotropic =    29.5237   Anisotropy =     9.0511

     44  H    Isotropic =    29.6239   Anisotropy =     7.9502

     45  H    Isotropic =    30.0814   Anisotropy =     5.3581

     46  C    Isotropic =   160.5755   Anisotropy =    41.0407

     47  H    Isotropic =    29.3992   Anisotropy =     7.4646

     48  H    Isotropic =    29.7389   Anisotropy =     8.4985

     49  H    Isotropic =    29.5958   Anisotropy =     6.5441

     50  C    Isotropic =   160.8774   Anisotropy =    40.9912

     51  H    Isotropic =    29.6261   Anisotropy =     7.8454

     52  H    Isotropic =    29.8776   Anisotropy =     8.6519

     53  H    Isotropic =    30.0487   Anisotropy =     6.0248

     54  C    Isotropic =   160.0928   Anisotropy =    41.6872

     55  H    Isotropic =    29.2946   Anisotropy =     8.1820

     56  H    Isotropic =    29.7037   Anisotropy =     6.7567

     57  H    Isotropic =    29.3725   Anisotropy =     8.3937

     58  C    Isotropic =   160.8206   Anisotropy =    40.7129

     59  H    Isotropic =    29.5834   Anisotropy =     7.9174

     60  H    Isotropic =    29.5081   Anisotropy =     9.0277

     61  H    Isotropic =    30.0414   Anisotropy =     5.4023

     62  C    Isotropic =   160.4774   Anisotropy =    41.1021

     63  H    Isotropic =    29.3218   Anisotropy =     9.0919

     64  H    Isotropic =    29.7779   Anisotropy =     7.4335

     65  H    Isotropic =    29.6218   Anisotropy =     5.9917

     66  C    Isotropic =   160.8282   Anisotropy =    41.0852

     67  H    Isotropic =    29.5844   Anisotropy =     7.8194

     68  H    Isotropic =    30.0192   Anisotropy =     6.0716

     69  H    Isotropic =    29.8802   Anisotropy =     8.6273

     70  C    Isotropic =   160.1352   Anisotropy =    41.5765

     71  H    Isotropic =    29.6965   Anisotropy =     6.6784

     72  H    Isotropic =    29.2821   Anisotropy =     8.1546

     73  H    Isotropic =    29.3633   Anisotropy =     8.4222

 The electronic state is 1-A.
 Alpha  occ. eigenvalues --  -77.04110 -77.04082 -10.18426 -10.18396 -10.18392
 Alpha  occ. eigenvalues --  -10.18377 -10.17872 -10.17830 -10.17783 -10.17741
 Alpha  occ. eigenvalues --  -10.17727 -10.17699 -10.17667 -10.17541 -10.17492
 Alpha  occ. eigenvalues --  -10.17131 -10.17124 -10.17123 -10.17110 -10.17073
 Alpha  occ. eigenvalues --  -10.17068 -10.16993 -10.16977 -10.16971 -10.16941
 Alpha  occ. eigenvalues --  -10.16543 -10.16527 -10.16496 -10.16456 -10.16380
 Alpha  occ. eigenvalues --  -10.16341 -10.16129 -10.16083 -10.16043 -10.15979
 Alpha  occ. eigenvalues --   -6.52676  -6.52650  -4.68829  -4.68804  -4.68794
 Alpha  occ. eigenvalues --   -4.68767  -4.68313  -4.68287  -0.86417  -0.86349
 Alpha  occ. eigenvalues --   -0.85587  -0.85546  -0.78561  -0.78533  -0.78121
 Alpha  occ. eigenvalues --   -0.77921  -0.77879  -0.77097  -0.75476  -0.75402
 Alpha  occ. eigenvalues --   -0.72477  -0.69611  -0.69458  -0.68935  -0.68806
 Alpha  occ. eigenvalues --   -0.68403  -0.68368  -0.67777  -0.67747  -0.63470
 Alpha  occ. eigenvalues --   -0.61432  -0.58946  -0.58905  -0.57640  -0.57571
 Alpha  occ. eigenvalues --   -0.56909  -0.56866  -0.53463  -0.52876  -0.50333
 Alpha  occ. eigenvalues --   -0.50071  -0.49671  -0.49008  -0.47751  -0.47655
 Alpha  occ. eigenvalues --   -0.47096  -0.47058  -0.43803  -0.43077  -0.42956
 Alpha  occ. eigenvalues --   -0.42869  -0.42749  -0.42514  -0.42407  -0.42339
 Alpha  occ. eigenvalues --   -0.41929  -0.41873  -0.41795  -0.41335  -0.41304
 Alpha  occ. eigenvalues --   -0.41055  -0.40706  -0.40641  -0.40176  -0.40163
 Alpha  occ. eigenvalues --   -0.40105  -0.40077  -0.39786  -0.39635  -0.39444
 Alpha  occ. eigenvalues --   -0.38564  -0.38031  -0.37918  -0.37617  -0.37365
 Alpha  occ. eigenvalues --   -0.36759  -0.35193  -0.35090  -0.34864  -0.34810
 Alpha  occ. eigenvalues --   -0.34348  -0.34276  -0.34144  -0.33656  -0.33625
 Alpha  occ. eigenvalues --   -0.31676  -0.31300  -0.30815  -0.26343  -0.25774
 Alpha  occ. eigenvalues --   -0.25483  -0.24675  -0.24449  -0.24233  -0.23725
 Alpha  occ. eigenvalues --   -0.23684  -0.21137  -0.18007
 Alpha virt. eigenvalues --   -0.03461  -0.02480  -0.02050  -0.01510  -0.01107
 Alpha virt. eigenvalues --   -0.00720  -0.00558   0.00205   0.02335   0.02620
 Alpha virt. eigenvalues --    0.03392   0.03937   0.04242   0.04960   0.05245

 Mulliken charges:
               1
     1  P    0.161578
     2  C    0.078717
     3  C   -0.288914
     4  C    0.185093
     5  C   -0.265087
     6  C    0.188223
     7  C   -0.265827
     8  H    0.131824
     9  H    0.086484
    10  H    0.113991
    11  C    0.097338
    12  C   -0.265085
    13  C    0.222983
    14  C   -0.255866
    15  C    0.230657
    16  C   -0.333666
    17  H    0.113379
    18  H    0.093933
    19  H    0.103333
    20  C   -0.371528
    21  P    0.155929
    22  C    0.076078
    23  C   -0.266926
    24  C    0.189483
    25  C   -0.264107
    26  C    0.183900
    27  C   -0.304436
    28  H    0.136357
    29  H    0.086804
    30  H    0.132340
    31  C    0.108131
    32  C   -0.346863
    33  C    0.236736
    34  C   -0.259806
    35  C    0.224952
    36  C   -0.265326
    37  H    0.103210
    38  H    0.094193
    39  H    0.113686
    40  H    0.129838
    41  H    0.128896
    42  C   -0.369868
    43  H    0.118883
    44  H    0.119355
    45  H    0.114862
    46  C   -0.371453
    47  H    0.123460
    48  H    0.115251
    49  H    0.121027
    50  C   -0.370851
    51  H    0.119561
    52  H    0.114348
    53  H    0.117506
    54  C   -0.379459
    55  H    0.119379
    56  H    0.111526
    57  H    0.118218
    58  C   -0.369643
    59  H    0.119576
    60  H    0.118608
    61  H    0.114992
    62  C   -0.368625
    63  H    0.123403
    64  H    0.114692
    65  H    0.119220
    66  C   -0.370696
    67  H    0.119580
    68  H    0.117660
    69  H    0.114231
    70  C   -0.379454
    71  H    0.112332
    72  H    0.119524
    73  H    0.118225
 Sum of Mulliken charges =  -0.00000

 Dipole moment (field-independent basis, Debye):
    X=              0.0770    Y=             -1.9839    Z=              2.3703  Tot=              3.0919
 Quadrupole moment (field-independent basis, Debye-Ang):
   XX=           -213.5806   YY=           -202.8068   ZZ=           -226.4747
   XY=              0.0834   XZ=              0.1449   YZ=              4.0704

 Summary of Natural Population Analysis:

                                       Natural Population
                Natural  -----------------------------------------------
    Atom  No    Charge         Core      Valence    Rydberg      Total
 -----------------------------------------------------------------------
      P    1    0.82841      9.99814     4.14050    0.03295    14.17159
      C    2   -0.29592      1.99899     4.26810    0.02883     6.29592
      C    3   -0.22397      1.99898     4.20579    0.01919     6.22397
      C    4   -0.00122      1.99912     3.98369    0.01841     6.00122
      C    5   -0.21879      1.99899     4.20221    0.01760     6.21879
      C    6    0.00101      1.99912     3.98127    0.01861     5.99899
      C    7   -0.22420      1.99899     4.20731    0.01790     6.22420
      H    8    0.20899      0.00000     0.78838    0.00263     0.79101
      H    9    0.19501      0.00000     0.80330    0.00169     0.80499
      H   10    0.19338      0.00000     0.80454    0.00208     0.80662
      C   11   -0.31700      1.99901     4.28589    0.03210     6.31700
      C   12   -0.19488      1.99899     4.17625    0.01964     6.19488
      C   13   -0.01027      1.99911     3.99295    0.01821     6.01027
      C   14   -0.19478      1.99899     4.17931    0.01648     6.19478
      C   15   -0.01056      1.99912     3.99297    0.01847     6.01056
      C   16   -0.20438      1.99898     4.18710    0.01829     6.20438
      H   17    0.20409      0.00000     0.79315    0.00276     0.79591
      H   18    0.19660      0.00000     0.80183    0.00157     0.80340
      H   19    0.21266      0.00000     0.78537    0.00197     0.78734
      C   20   -0.99087      1.99944     4.95878    0.03266     6.99087
      P   21    0.82731      9.99814     4.14167    0.03287    14.17269
      C   22   -0.29597      1.99899     4.26822    0.02875     6.29597
      C   23   -0.22402      1.99898     4.20714    0.01789     6.22402
      C   24    0.00001      1.99912     3.98224    0.01863     5.99999
      C   25   -0.21771      1.99899     4.20114    0.01758     6.21771
      C   26   -0.00141      1.99912     3.98390    0.01840     6.00141
      C   27   -0.22326      1.99899     4.20502    0.01925     6.22326
      H   28    0.19456      0.00000     0.80348    0.00197     0.80544
      H   29    0.19507      0.00000     0.80324    0.00169     0.80493
      H   30    0.20944      0.00000     0.78796    0.00260     0.79056
      C   31   -0.31611      1.99901     4.28513    0.03197     6.31611
      C   32   -0.20585      1.99899     4.18859    0.01828     6.20585
      C   33   -0.01052      1.99912     3.99293    0.01848     6.01052
      C   34   -0.19586      1.99899     4.18035    0.01652     6.19586
      C   35   -0.00964      1.99911     3.99234    0.01819     6.00964
      C   36   -0.19472      1.99899     4.17614    0.01959     6.19472
      H   37    0.21268      0.00000     0.78535    0.00197     0.78732
      H   38    0.19659      0.00000     0.80183    0.00159     0.80341
      H   39    0.20426      0.00000     0.79301    0.00273     0.79574
      H   40    0.24798      0.00000     0.75017    0.00185     0.75202
      H   41    0.24126      0.00000     0.75650    0.00224     0.75874
      C   42   -0.60915      1.99941     4.59803    0.01172     6.60915
      H   43    0.21324      0.00000     0.78558    0.00118     0.78676
      H   44    0.21334      0.00000     0.78548    0.00118     0.78666
      H   45    0.20977      0.00000     0.78924    0.00099     0.79023
      C   46   -0.60855      1.99941     4.59756    0.01158     6.60855
      H   47    0.21467      0.00000     0.78403    0.00130     0.78533
      H   48    0.21009      0.00000     0.78884    0.00107     0.78991
      H   49    0.21260      0.00000     0.78638    0.00103     0.78740
      C   50   -0.60857      1.99941     4.59725    0.01190     6.60857
      H   51    0.21296      0.00000     0.78575    0.00130     0.78704
      H   52    0.20963      0.00000     0.78928    0.00109     0.79037
      H   53    0.21121      0.00000     0.78772    0.00106     0.78879
      C   54   -0.60794      1.99941     4.59677    0.01177     6.60794
      H   55    0.21286      0.00000     0.78588    0.00127     0.78714
      H   56    0.20750      0.00000     0.79145    0.00105     0.79250
      H   57    0.21253      0.00000     0.78629    0.00118     0.78747
      C   58   -0.60918      1.99941     4.59805    0.01172     6.60918
      H   59    0.21354      0.00000     0.78527    0.00120     0.78646
      H   60    0.21298      0.00000     0.78586    0.00117     0.78702
      H   61    0.20984      0.00000     0.78917    0.00099     0.79016
      C   62   -0.60844      1.99941     4.59739    0.01163     6.60844
      H   63    0.21540      0.00000     0.78335    0.00125     0.78460
      H   64    0.20944      0.00000     0.78948    0.00108     0.79056
      H   65    0.21215      0.00000     0.78676    0.00109     0.78785
      C   66   -0.60845      1.99941     4.59714    0.01190     6.60845
      H   67    0.21292      0.00000     0.78578    0.00130     0.78708
      H   68    0.21132      0.00000     0.78762    0.00107     0.78868
      H   69    0.20954      0.00000     0.78938    0.00108     0.79046
      C   70   -0.60807      1.99941     4.59688    0.01178     6.60807
      H   71    0.20794      0.00000     0.79102    0.00104     0.79206
      H   72    0.21290      0.00000     0.78584    0.00127     0.78710
      H   73    0.21261      0.00000     0.78621    0.00118     0.78739
 =======================================================================
   * Total *    0.00000     85.96781   179.29572    0.73647   266.00000

 Normal termination of Gaussian 16 at Fri Jan 24 02:41:42 2025.
