 Gaussian 16, Revision B.01,
 Gaussian 16:  ES64L-G16RevB.01 20-Dec-2017

 --------------------------------------------
 # nmr=giao b3lyp/def2TZVP pop=nbo scfcyc=200
 --------------------------------------------

 --------------
 MB-15 SPE NoRh
 --------------
 Symbolic Z-matrix:
 Charge =  0 Multiplicity = 1

                         Standard orientation:
 ---------------------------------------------------------------------
 Center     Atomic      Atomic             Coordinates (Angstroms)
 Number     Number       Type             X           Y           Z
 ---------------------------------------------------------------------
      1          6           0        0.000908   -0.621843    0.635741
      2          1           0       -0.004196   -1.651488    0.993979
      3          1           0        0.003477    0.055956    1.487285
      4         15           0       -1.397427   -0.407428   -0.599031
      5         15           0        1.399572   -0.419714   -0.599572
      6          6           0        2.846454   -1.384220   -0.099940
      7          1           0        2.877147   -2.463559   -0.066933
      8          6           0        3.886086   -0.564408    0.148914
      9          6           0        3.558186    0.889719    0.028414
     10          6           0        2.275936    1.137025   -0.300205
     11          1           0        1.846974    2.117211   -0.449401
     12          6           0       -3.559052    0.890955    0.041443
     13          6           0       -2.276210    1.144353   -0.280991
     14          1           0       -1.848200    2.126816   -0.410813
     15          6           0       -3.886102   -0.565056    0.138581
     16          6           0       -2.844618   -1.379917   -0.116986
     17          1           0       -2.874870   -2.459844   -0.101626
     18          6           0       -5.262502   -1.031186    0.500958
     19          1           0       -5.562318   -0.644243    1.478900
     20          1           0       -6.001642   -0.674167   -0.221267
     21          1           0       -5.314863   -2.118211    0.534033
     22          6           0       -4.596980    1.939887    0.298589
     23          1           0       -5.435239    1.843831   -0.395933
     24          1           0       -5.008099    1.847486    1.306784
     25          1           0       -4.180929    2.940931    0.192448
     26          6           0        5.260762   -1.023697    0.524831
     27          1           0        6.003603   -0.676343   -0.198583
     28          1           0        5.554071   -0.622774    1.498471
     29          1           0        5.314353   -2.109760    0.574466
     30          6           0        4.594397    1.943577    0.271543
     31          1           0        5.004388    1.865342    1.281979
     32          1           0        5.433110    1.837409   -0.420616
     33          1           0        4.177455    2.941402    0.150514
 ---------------------------------------------------------------------

 SCF Done:  E(RB3LYP) =  -1189.11307903     A.U. after   17 cycles

      1  C    Isotropic =   162.7756   Anisotropy =    24.8193

      2  H    Isotropic =    29.4595   Anisotropy =     7.3953

      3  H    Isotropic =    29.6972   Anisotropy =     6.1123

      4  P    Isotropic =   237.6946   Anisotropy =    74.6679

      5  P    Isotropic =   237.9164   Anisotropy =    73.7882

      6  C    Isotropic =    48.4643   Anisotropy =   142.0095

      7  H    Isotropic =    25.2478   Anisotropy =     4.9585

      8  C    Isotropic =    29.8129   Anisotropy =   153.8657

      9  C    Isotropic =    28.7861   Anisotropy =   155.4086

     10  C    Isotropic =    48.8730   Anisotropy =   147.4325

     11  H    Isotropic =    25.0808   Anisotropy =     5.5731

     12  C    Isotropic =    28.8546   Anisotropy =   155.1922

     13  C    Isotropic =    48.7085   Anisotropy =   147.3671

     14  H    Isotropic =    25.0903   Anisotropy =     5.5917

     15  C    Isotropic =    29.8321   Anisotropy =   153.8511

     16  C    Isotropic =    48.6577   Anisotropy =   141.8280

     17  H    Isotropic =    25.2466   Anisotropy =     4.9436

     18  C    Isotropic =   163.7093   Anisotropy =    30.1304

     19  H    Isotropic =    29.8785   Anisotropy =     7.2752

     20  H    Isotropic =    29.7957   Anisotropy =     7.5637

     21  H    Isotropic =    29.8603   Anisotropy =     6.7498

     22  C    Isotropic =   163.5263   Anisotropy =    30.4080

     23  H    Isotropic =    29.8009   Anisotropy =     7.6296

     24  H    Isotropic =    29.8770   Anisotropy =     7.3201

     25  H    Isotropic =    29.8132   Anisotropy =     6.5150

     26  C    Isotropic =   163.7738   Anisotropy =    30.0728

     27  H    Isotropic =    29.7923   Anisotropy =     7.5681

     28  H    Isotropic =    29.8936   Anisotropy =     7.2757

     29  H    Isotropic =    29.8682   Anisotropy =     6.7493

     30  C    Isotropic =   163.5664   Anisotropy =    30.3092

     31  H    Isotropic =    29.8634   Anisotropy =     7.3111

     32  H    Isotropic =    29.8045   Anisotropy =     7.6335

     33  H    Isotropic =    29.8308   Anisotropy =     6.5081

 The electronic state is 1-A.
 Alpha  occ. eigenvalues --  -77.04775 -77.04762 -10.19384 -10.18309 -10.18305
 Alpha  occ. eigenvalues --  -10.18240 -10.18232 -10.16959 -10.16955 -10.16921
 Alpha  occ. eigenvalues --  -10.16905 -10.16305 -10.16298 -10.16134 -10.16117
 Alpha  occ. eigenvalues --   -6.53335  -6.53322  -4.69480  -4.69467  -4.69437
 Alpha  occ. eigenvalues --   -4.69424  -4.69030  -4.69016  -0.84618  -0.84445
 Alpha  occ. eigenvalues --   -0.75590  -0.75525  -0.75518  -0.72847  -0.70647
 Alpha  occ. eigenvalues --   -0.66818  -0.66766  -0.61225  -0.59717  -0.54284
 Alpha  occ. eigenvalues --   -0.53790  -0.50097  -0.49572  -0.47178  -0.46488
 Alpha  occ. eigenvalues --   -0.44415  -0.43648  -0.43628  -0.43247  -0.42372
 Alpha  occ. eigenvalues --   -0.40674  -0.40668  -0.40097  -0.40002  -0.39542
 Alpha  occ. eigenvalues --   -0.39511  -0.37936  -0.35496  -0.34641  -0.34550
 Alpha  occ. eigenvalues --   -0.33074  -0.32817  -0.32217  -0.28931  -0.23050
 Alpha  occ. eigenvalues --   -0.22838  -0.22708  -0.19991
 Alpha virt. eigenvalues --   -0.05198  -0.02372   0.00554   0.03127   0.03245
 Alpha virt. eigenvalues --    0.05039   0.05337   0.06039   0.06114   0.06886
 Alpha virt. eigenvalues --    0.06965   0.07439   0.08018   0.08677   0.08881

 Mulliken charges:
               1
     1  C   -0.323339
     2  H    0.130995
     3  H    0.138127
     4  P    0.248222
     5  P    0.248602
     6  C   -0.271355
     7  H    0.108870
     8  C    0.069125
     9  C    0.039888
    10  C   -0.259742
    11  H    0.110150
    12  C    0.040494
    13  C   -0.259596
    14  H    0.110071
    15  C    0.069377
    16  C   -0.272440
    17  H    0.109016
    18  C   -0.356648
    19  H    0.116225
    20  H    0.116516
    21  H    0.115029
    22  C   -0.358141
    23  H    0.116881
    24  H    0.116836
    25  H    0.115010
    26  C   -0.356716
    27  H    0.116339
    28  H    0.116255
    29  H    0.115023
    30  C   -0.357763
    31  H    0.116648
    32  H    0.116942
    33  H    0.115100
 Sum of Mulliken charges =  -0.00000

 Dipole moment (field-independent basis, Debye):
    X=             -0.0056    Y=              0.3800    Z=              2.3275  Tot=              2.3583
 Quadrupole moment (field-independent basis, Debye-Ang):
   XX=            -92.6271   YY=            -99.1714   ZZ=           -113.0307
   XY=              0.0635   XZ=              0.0158   YZ=             -1.7782

 Summary of Natural Population Analysis:

                                       Natural Population
                Natural  -----------------------------------------------
    Atom  No    Charge         Core      Valence    Rydberg      Total
 -----------------------------------------------------------------------
      C    1   -0.95853      1.99940     4.92478    0.03435     6.95853
      H    2    0.25291      0.00000     0.74591    0.00118     0.74709
      H    3    0.24918      0.00000     0.74872    0.00211     0.75082
      P    4    0.82982      9.99842     4.13115    0.04060    14.17018
      P    5    0.83004      9.99842     4.13089    0.04064    14.16996
      C    6   -0.51577      1.99895     4.49030    0.02653     6.51577
      H    7    0.22013      0.00000     0.77806    0.00181     0.77987
      C    8   -0.02429      1.99901     4.00319    0.02209     6.02429
      C    9   -0.02393      1.99901     4.00279    0.02213     6.02393
      C   10   -0.51617      1.99894     4.49028    0.02695     6.51617
      H   11    0.22051      0.00000     0.77766    0.00183     0.77949
      C   12   -0.02423      1.99901     4.00309    0.02213     6.02423
      C   13   -0.51577      1.99894     4.48991    0.02692     6.51577
      H   14    0.22036      0.00000     0.77781    0.00183     0.77964
      C   15   -0.02409      1.99901     4.00300    0.02209     6.02409
      C   16   -0.51587      1.99895     4.49041    0.02652     6.51587
      H   17    0.22025      0.00000     0.77793    0.00181     0.77975
      C   18   -0.61911      1.99939     4.60690    0.01282     6.61911
      H   19    0.21261      0.00000     0.78596    0.00143     0.78739
      H   20    0.21062      0.00000     0.78766    0.00172     0.78938
      H   21    0.21438      0.00000     0.78445    0.00117     0.78562
      C   22   -0.61887      1.99939     4.60667    0.01281     6.61887
      H   23    0.21104      0.00000     0.78725    0.00171     0.78896
      H   24    0.21277      0.00000     0.78581    0.00142     0.78723
      H   25    0.21429      0.00000     0.78454    0.00117     0.78571
      C   26   -0.61912      1.99939     4.60691    0.01283     6.61912
      H   27    0.21056      0.00000     0.78772    0.00172     0.78944
      H   28    0.21254      0.00000     0.78603    0.00143     0.78746
      H   29    0.21437      0.00000     0.78446    0.00117     0.78563
      C   30   -0.61878      1.99939     4.60658    0.01281     6.61878
      H   31    0.21278      0.00000     0.78580    0.00142     0.78722
      H   32    0.21107      0.00000     0.78722    0.00171     0.78893
      H   33    0.21432      0.00000     0.78451    0.00117     0.78568
 =======================================================================
   * Total *    0.00000     45.98562    79.62432    0.39006   126.00000

 Normal termination of Gaussian 16 at Thu Jan 23 19:53:25 2025.
