 Gaussian 16, Revision B.01,
 Gaussian 16:  ES64L-G16RevB.01 20-Dec-2017

 --------------------------------------------
 # nmr=giao b3lyp/def2TZVP pop=nbo scfcyc=200
 --------------------------------------------

 ---------------
 MB-113 SPE NoRh
 ---------------
 Symbolic Z-matrix:
 Charge =  0 Multiplicity = 1

                         Standard orientation:
 ---------------------------------------------------------------------
 Center     Atomic      Atomic             Coordinates (Angstroms)
 Number     Number       Type             X           Y           Z
 ---------------------------------------------------------------------
      1         15           0       -1.465564   -0.052175   -0.617482
      2         15           0        1.368985    0.028750   -0.665087
      3          6           0       -0.027664   -0.025552    0.589900
      4          1           0       -0.044140   -0.917080    1.211030
      5          1           0        0.002263    0.841294    1.244945
      6          6           0       -2.367167   -1.605552   -0.159005
      7          6           0       -2.290144   -2.644907   -1.095161
      8          1           0       -1.736480   -2.486799   -2.012122
      9          6           0       -2.902068   -3.869172   -0.867206
     10          1           0       -2.829506   -4.658752   -1.603835
     11          6           0       -3.613405   -4.062759    0.310480
     12          1           0       -4.112710   -5.004205    0.500284
     13          6           0       -3.679628   -3.043424    1.250178
     14          1           0       -4.234322   -3.206525    2.167182
     15          6           0       -3.054463   -1.805773    1.056377
     16          6           0       -3.153006   -0.785849    2.171343
     17          1           0       -2.799084    0.188572    1.840462
     18          1           0       -4.209671   -0.646935    2.420607
     19          6           0       -2.516605    1.447571   -0.315816
     20          6           0       -1.925368    2.551574    0.308717
     21          1           0       -0.900647    2.509901    0.648562
     22          6           0       -2.627356    3.734596    0.497266
     23          1           0       -2.148370    4.573417    0.986647
     24          6           0       -3.937249    3.826573    0.050691
     25          1           0       -4.501635    4.739091    0.193325
     26          6           0       -4.522837    2.744248   -0.595011
     27          1           0       -5.538848    2.841662   -0.950416
     28          6           0       -3.839378    1.545022   -0.806800
     29          6           0       -4.523610    0.394308   -1.525008
     30          1           0       -3.796313   -0.100051   -2.172610
     31          1           0       -4.807218   -0.363999   -0.789221
     32          6           0        2.463260   -1.445541   -0.400819
     33          6           0        1.933276   -2.556343    0.263754
     34          1           0        0.928286   -2.533730    0.661949
     35          6           0        2.669812   -3.722833    0.422962
     36          1           0        2.237918   -4.566150    0.945199
     37          6           0        3.954570   -3.790803   -0.094791
     38          1           0        4.545654   -4.689945    0.022147
     39          6           0        4.480916   -2.701251   -0.779169
     40          1           0        5.478840   -2.778970   -1.187781
     41          6           0        3.760039   -1.519167   -0.961217
     42          6           0        4.381533   -0.356129   -1.714301
     43          1           0        3.612173    0.118274   -2.328955
     44          1           0        4.680404    0.412923   -0.995286
     45          6           0        2.248610    1.598490   -0.226973
     46          6           0        2.094038    2.650168   -1.135620
     47          1           0        1.516052    2.485428   -2.035884
     48          6           0        2.654574    3.898128   -0.895977
     49          1           0        2.521782    4.700290   -1.610574
     50          6           0        3.381336    4.098546    0.267548
     51          1           0        3.831038    5.061682    0.472385
     52          6           0        3.528806    3.062018    1.183815
     53          1           0        4.089804    3.247923    2.088372
     54          6           0        2.970459    1.798442    0.973453
     55          6           0        3.153807    0.696211    2.001550
     56          1           0        2.188359    0.213496    2.177591
     57          1           0        3.784118   -0.085657    1.568616
     58          6           0       -5.752305    0.749473   -2.363374
     59          1           0       -6.101456   -0.135741   -2.895948
     60          1           0       -6.582639    1.100993   -1.749344
     61          1           0       -5.530505    1.520084   -3.104849
     62          6           0       -2.398521   -1.196153    3.446010
     63          1           0       -2.773061   -2.138446    3.849971
     64          1           0       -1.330289   -1.323303    3.257891
     65          1           0       -2.515125   -0.433824    4.217948
     66          6           0        3.740163    1.109063    3.351777
     67          1           0        3.772802    0.243820    4.015766
     68          1           0        4.761972    1.481537    3.257670
     69          1           0        3.140443    1.879491    3.839640
     70          6           0        5.578995   -0.684715   -2.607753
     71          1           0        5.881815    0.207021   -3.157834
     72          1           0        6.444162   -1.013205   -2.030775
     73          1           0        5.342295   -1.463265   -3.335116
 ---------------------------------------------------------------------

 SCF Done:  E(RB3LYP) =  -1963.60850587     A.U. after   14 cycles

      1  P    Isotropic =   235.9873   Anisotropy =    98.6895

      2  P    Isotropic =   238.8716   Anisotropy =    96.3949

      3  C    Isotropic =   150.8999   Anisotropy =    18.3026

      4  H    Isotropic =    29.1374   Anisotropy =     6.4591

      5  H    Isotropic =    29.4707   Anisotropy =     5.4100

      6  C    Isotropic =    34.3259   Anisotropy =   185.6189

      7  C    Isotropic =    40.3356   Anisotropy =   174.6187

      8  H    Isotropic =    23.6072   Anisotropy =     8.5216

      9  C    Isotropic =    52.8158   Anisotropy =   179.7232

     10  H    Isotropic =    24.4241   Anisotropy =     4.9583

     11  C    Isotropic =    48.3756   Anisotropy =   186.2354

     12  H    Isotropic =    24.2554   Anisotropy =     3.9073

     13  C    Isotropic =    48.4635   Anisotropy =   173.3466

     14  H    Isotropic =    24.4286   Anisotropy =     8.7935

     15  C    Isotropic =    23.5835   Anisotropy =   204.8608

     16  C    Isotropic =   151.6888   Anisotropy =    21.0198

     17  H    Isotropic =    29.2431   Anisotropy =    14.1074

     18  H    Isotropic =    29.7079   Anisotropy =     6.3812

     19  C    Isotropic =    34.8790   Anisotropy =   187.4241

     20  C    Isotropic =    53.2495   Anisotropy =   179.4273

     21  H    Isotropic =    24.8099   Anisotropy =     9.4513

     22  C    Isotropic =    53.0248   Anisotropy =   178.8666

     23  H    Isotropic =    24.7492   Anisotropy =     7.2482

     24  C    Isotropic =    52.9251   Anisotropy =   178.0884

     25  H    Isotropic =    24.5826   Anisotropy =     4.5544

     26  C    Isotropic =    52.2131   Anisotropy =   182.0655

     27  H    Isotropic =    24.4886   Anisotropy =     9.6028

     28  C    Isotropic =    32.6551   Anisotropy =   196.5229

     29  C    Isotropic =   151.7540   Anisotropy =     9.5755

     30  H    Isotropic =    29.6601   Anisotropy =    10.0416

     31  H    Isotropic =    30.4513   Anisotropy =    12.2115

     32  C    Isotropic =    36.0038   Anisotropy =   187.5692

     33  C    Isotropic =    52.9783   Anisotropy =   179.9750

     34  H    Isotropic =    24.6544   Anisotropy =     9.6689

     35  C    Isotropic =    52.8535   Anisotropy =   179.3343

     36  H    Isotropic =    24.6941   Anisotropy =     7.0533

     37  C    Isotropic =    52.9244   Anisotropy =   178.3418

     38  H    Isotropic =    24.5610   Anisotropy =     4.4625

     39  C    Isotropic =    52.6607   Anisotropy =   181.2901

     40  H    Isotropic =    24.4799   Anisotropy =     9.5799

     41  C    Isotropic =    32.6213   Anisotropy =   196.9388

     42  C    Isotropic =   152.2924   Anisotropy =     9.6991

     43  H    Isotropic =    29.5362   Anisotropy =     9.9062

     44  H    Isotropic =    30.4332   Anisotropy =    11.9834

     45  C    Isotropic =    35.0983   Anisotropy =   190.0234

     46  C    Isotropic =    40.6297   Anisotropy =   174.3896

     47  H    Isotropic =    23.5860   Anisotropy =     8.3743

     48  C    Isotropic =    53.0127   Anisotropy =   179.4871

     49  H    Isotropic =    24.3798   Anisotropy =     4.9708

     50  C    Isotropic =    48.3875   Anisotropy =   186.7695

     51  H    Isotropic =    24.2037   Anisotropy =     4.2523

     52  C    Isotropic =    53.1439   Anisotropy =   181.1873

     53  H    Isotropic =    24.4587   Anisotropy =     9.8943

     54  C    Isotropic =    25.5522   Anisotropy =   201.8441

     55  C    Isotropic =   151.3717   Anisotropy =     9.0502

     56  H    Isotropic =    29.3414   Anisotropy =    11.5454

     57  H    Isotropic =    29.8474   Anisotropy =    12.5944

     58  C    Isotropic =   170.4574   Anisotropy =    18.7022

     59  H    Isotropic =    30.9624   Anisotropy =     9.5342

     60  H    Isotropic =    30.6312   Anisotropy =     9.4859

     61  H    Isotropic =    31.0226   Anisotropy =     9.4199

     62  C    Isotropic =   163.9882   Anisotropy =    29.0702

     63  H    Isotropic =    30.7363   Anisotropy =     9.6005

     64  H    Isotropic =    30.8529   Anisotropy =     5.9704

     65  H    Isotropic =    30.8226   Anisotropy =    10.0772

     66  C    Isotropic =   170.5934   Anisotropy =    16.4312

     67  H    Isotropic =    30.8936   Anisotropy =     9.1212

     68  H    Isotropic =    30.6853   Anisotropy =     9.8635

     69  H    Isotropic =    30.9026   Anisotropy =     9.0082

     70  C    Isotropic =   170.5752   Anisotropy =    18.5859

     71  H    Isotropic =    30.9261   Anisotropy =     9.5786

     72  H    Isotropic =    30.6207   Anisotropy =     9.4197

     73  H    Isotropic =    31.0068   Anisotropy =     9.4697

 The electronic state is 1-A.
 Alpha  occ. eigenvalues --  -77.04912 -77.04897 -10.18940 -10.18861 -10.18551
 Alpha  occ. eigenvalues --  -10.18400 -10.18381 -10.18334 -10.18333 -10.18309
 Alpha  occ. eigenvalues --  -10.18214 -10.17922 -10.17813 -10.17746 -10.17715
 Alpha  occ. eigenvalues --  -10.17524 -10.17508 -10.17466 -10.17423 -10.17334
 Alpha  occ. eigenvalues --  -10.17309 -10.17250 -10.17234 -10.16997 -10.16977
 Alpha  occ. eigenvalues --  -10.16960 -10.16933 -10.16909 -10.16883 -10.16829
 Alpha  occ. eigenvalues --  -10.16793 -10.16628 -10.16463 -10.16001 -10.15970
 Alpha  occ. eigenvalues --   -6.53445  -6.53431  -4.69611  -4.69596  -4.69549
 Alpha  occ. eigenvalues --   -4.69536  -4.69086  -4.69074  -0.86524  -0.86423
 Alpha  occ. eigenvalues --   -0.85770  -0.85767  -0.79243  -0.79183  -0.78665
 Alpha  occ. eigenvalues --   -0.78630  -0.77439  -0.75857  -0.74557  -0.74516
 Alpha  occ. eigenvalues --   -0.72916  -0.72791  -0.72357  -0.72303  -0.71985
 Alpha  occ. eigenvalues --   -0.64404  -0.64247  -0.63932  -0.63786  -0.63493
 Alpha  occ. eigenvalues --   -0.61903  -0.60088  -0.59894  -0.58507  -0.58096
 Alpha  occ. eigenvalues --   -0.57817  -0.57456  -0.55181  -0.54570  -0.51370
 Alpha  occ. eigenvalues --   -0.51051  -0.49516  -0.49047  -0.47512  -0.46732
 Alpha  occ. eigenvalues --   -0.46438  -0.46360  -0.45870  -0.45451  -0.45133
 Alpha  occ. eigenvalues --   -0.44928  -0.44765  -0.44464  -0.43966  -0.43853
 Alpha  occ. eigenvalues --   -0.43450  -0.43134  -0.43018  -0.42910  -0.42426
 Alpha  occ. eigenvalues --   -0.41393  -0.40588  -0.39886  -0.39712  -0.38504
 Alpha  occ. eigenvalues --   -0.38226  -0.38113  -0.37892  -0.37737  -0.37711
 Alpha  occ. eigenvalues --   -0.37508  -0.37301  -0.36662  -0.36372  -0.36224
 Alpha  occ. eigenvalues --   -0.35398  -0.35217  -0.34853  -0.34740  -0.34687
 Alpha  occ. eigenvalues --   -0.34139  -0.33994  -0.33744  -0.33636  -0.33598
 Alpha  occ. eigenvalues --   -0.32446  -0.31785  -0.31024  -0.26948  -0.26560
 Alpha  occ. eigenvalues --   -0.26164  -0.25702  -0.25229  -0.24910  -0.24742
 Alpha  occ. eigenvalues --   -0.24615  -0.21529  -0.18687
 Alpha virt. eigenvalues --   -0.03200  -0.02948  -0.02218  -0.02106  -0.01593
 Alpha virt. eigenvalues --   -0.01193  -0.00975  -0.00846   0.02270   0.02726
 Alpha virt. eigenvalues --    0.03653   0.03976   0.04605   0.04757   0.05309

 Mulliken charges:
               1
     1  P    0.150218
     2  P    0.130933
     3  C   -0.423773
     4  H    0.130389
     5  H    0.140838
     6  C   -0.033864
     7  C   -0.106400
     8  H    0.116787
     9  C   -0.132381
    10  H    0.109064
    11  C   -0.089077
    12  H    0.108424
    13  C   -0.196484
    14  H    0.103698
    15  C    0.073094
    16  C   -0.175300
    17  H    0.132280
    18  H    0.099170
    19  C   -0.067377
    20  C   -0.095139
    21  H    0.121323
    22  C   -0.176106
    23  H    0.103120
    24  C   -0.094867
    25  H    0.102674
    26  C   -0.226143
    27  H    0.107512
    28  C    0.091784
    29  C   -0.147320
    30  H    0.109165
    31  H    0.110035
    32  C    0.007403
    33  C   -0.103358
    34  H    0.114864
    35  C   -0.175160
    36  H    0.102761
    37  C   -0.100038
    38  H    0.102811
    39  C   -0.218444
    40  H    0.108578
    41  C    0.048702
    42  C   -0.142259
    43  H    0.110649
    44  H    0.110601
    45  C   -0.020491
    46  C   -0.106449
    47  H    0.116210
    48  C   -0.130860
    49  H    0.108170
    50  C   -0.094837
    51  H    0.108030
    52  C   -0.218936
    53  H    0.114005
    54  C    0.031819
    55  C   -0.129986
    56  H    0.103249
    57  H    0.123636
    58  C   -0.353937
    59  H    0.117481
    60  H    0.106447
    61  H    0.119357
    62  C   -0.336544
    63  H    0.106637
    64  H    0.103362
    65  H    0.111997
    66  C   -0.359864
    67  H    0.120079
    68  H    0.111673
    69  H    0.116418
    70  C   -0.354018
    71  H    0.117708
    72  H    0.106384
    73  H    0.119871
 Sum of Mulliken charges =  -0.00000

 Dipole moment (field-independent basis, Debye):
    X=             -0.0396    Y=             -0.0924    Z=              1.9713  Tot=              1.9738
 Quadrupole moment (field-independent basis, Debye-Ang):
   XX=           -215.2907   YY=           -215.1190   ZZ=           -226.0513
   XY=              5.8635   XZ=             -0.6093   YZ=             -0.2414

 Summary of Natural Population Analysis:

                                       Natural Population
                Natural  -----------------------------------------------
    Atom  No    Charge         Core      Valence    Rydberg      Total
 -----------------------------------------------------------------------
      P    1    0.82394      9.99812     4.14556    0.03239    14.17606
      P    2    0.82390      9.99811     4.14576    0.03223    14.17610
      C    3   -1.00692      1.99945     4.97686    0.03061     7.00692
      H    4    0.24627      0.00000     0.75080    0.00293     0.75373
      H    5    0.24707      0.00000     0.75051    0.00242     0.75293
      C    6   -0.32492      1.99890     4.29447    0.03154     6.32492
      C    7   -0.19171      1.99911     4.17229    0.02031     6.19171
      H    8    0.22051      0.00000     0.77797    0.00152     0.77949
      C    9   -0.21435      1.99917     4.19570    0.01949     6.21435
      H   10    0.21052      0.00000     0.78823    0.00125     0.78948
      C   11   -0.19123      1.99918     4.17343    0.01862     6.19123
      H   12    0.20813      0.00000     0.79063    0.00124     0.79187
      C   13   -0.20803      1.99909     4.19061    0.01833     6.20803
      H   14    0.20041      0.00000     0.79780    0.00178     0.79959
      C   15   -0.00126      1.99900     3.98005    0.02221     6.00126
      C   16   -0.42031      1.99936     4.40732    0.01363     6.42031
      H   17    0.22084      0.00000     0.77661    0.00255     0.77916
      H   18    0.20701      0.00000     0.79124    0.00175     0.79299
      C   19   -0.31202      1.99891     4.28364    0.02946     6.31202
      C   20   -0.21489      1.99908     4.19683    0.01897     6.21489
      H   21    0.20220      0.00000     0.79573    0.00208     0.79780
      C   22   -0.20505      1.99917     4.18709    0.01879     6.20505
      H   23    0.20765      0.00000     0.79108    0.00127     0.79235
      C   24   -0.20807      1.99918     4.18918    0.01971     6.20807
      H   25    0.20608      0.00000     0.79271    0.00121     0.79392
      C   26   -0.20402      1.99910     4.18642    0.01850     6.20402
      H   27    0.20687      0.00000     0.79158    0.00155     0.79313
      C   28   -0.01499      1.99901     3.99527    0.02071     6.01499
      C   29   -0.41220      1.99937     4.39955    0.01329     6.41220
      H   30    0.21275      0.00000     0.78504    0.00221     0.78725
      H   31    0.21431      0.00000     0.78337    0.00232     0.78569
      C   32   -0.30812      1.99890     4.27985    0.02937     6.30812
      C   33   -0.21232      1.99908     4.19415    0.01908     6.21232
      H   34    0.20000      0.00000     0.79798    0.00201     0.80000
      C   35   -0.20532      1.99917     4.18736    0.01879     6.20532
      H   36    0.20744      0.00000     0.79130    0.00126     0.79256
      C   37   -0.20828      1.99918     4.18938    0.01972     6.20828
      H   38    0.20611      0.00000     0.79267    0.00121     0.79389
      C   39   -0.20581      1.99910     4.18813    0.01858     6.20581
      H   40    0.20713      0.00000     0.79132    0.00155     0.79287
      C   41   -0.01653      1.99901     3.99650    0.02101     6.01653
      C   42   -0.41339      1.99937     4.40065    0.01337     6.41339
      H   43    0.21355      0.00000     0.78421    0.00224     0.78645
      H   44    0.21322      0.00000     0.78445    0.00234     0.78678
      C   45   -0.32227      1.99892     4.29175    0.03160     6.32227
      C   46   -0.19098      1.99910     4.17161    0.02027     6.19098
      H   47    0.22031      0.00000     0.77811    0.00158     0.77969
      C   48   -0.21602      1.99916     4.19726    0.01960     6.21602
      H   49    0.21042      0.00000     0.78833    0.00125     0.78958
      C   50   -0.18992      1.99919     4.17159    0.01914     6.18992
      H   51    0.20732      0.00000     0.79146    0.00122     0.79268
      C   52   -0.21658      1.99910     4.19922    0.01825     6.21658
      H   53    0.20738      0.00000     0.79093    0.00169     0.79262
      C   54   -0.00261      1.99900     3.98185    0.02176     6.00261
      C   55   -0.41437      1.99936     4.40174    0.01327     6.41437
      H   56    0.20747      0.00000     0.78994    0.00259     0.79253
      H   57    0.22092      0.00000     0.77648    0.00260     0.77908
      C   58   -0.58762      1.99947     4.58050    0.00765     6.58762
      H   59    0.20834      0.00000     0.79047    0.00119     0.79166
      H   60    0.19504      0.00000     0.80346    0.00150     0.80496
      H   61    0.20173      0.00000     0.79677    0.00150     0.79827
      C   62   -0.57572      1.99945     4.56896    0.00730     6.57572
      H   63    0.19763      0.00000     0.80095    0.00142     0.80237
      H   64    0.19478      0.00000     0.80377    0.00145     0.80522
      H   65    0.20462      0.00000     0.79406    0.00132     0.79538
      C   66   -0.59032      1.99947     4.58307    0.00778     6.59032
      H   67    0.20972      0.00000     0.78909    0.00119     0.79028
      H   68    0.19765      0.00000     0.80083    0.00152     0.80235
      H   69    0.19907      0.00000     0.79939    0.00154     0.80093
      C   70   -0.58766      1.99947     4.58052    0.00767     6.58766
      H   71    0.20851      0.00000     0.79030    0.00119     0.79149
      H   72    0.19502      0.00000     0.80348    0.00150     0.80498
      H   73    0.20191      0.00000     0.79659    0.00150     0.79809
 =======================================================================
   * Total *   -0.00000     85.96882   179.27371    0.75748   266.00000

 Normal termination of Gaussian 16 at Fri Jan 24 03:03:28 2025.
