 Gaussian 16, Revision B.01,
 Gaussian 16:  ES64L-G16RevB.01 20-Dec-2017

 --------------------------------------------
 # nmr=giao b3lyp/def2TZVP pop=nbo scfcyc=200
 --------------------------------------------

 --------------
 MB-11 SPE NoRh
 --------------
 Symbolic Z-matrix:
 Charge =  0 Multiplicity = 1

                         Standard orientation:
 ---------------------------------------------------------------------
 Center     Atomic      Atomic             Coordinates (Angstroms)
 Number     Number       Type             X           Y           Z
 ---------------------------------------------------------------------
      1         15           0       -3.355882    0.035597   -0.173119
      2         15           0       -0.744616   -0.629336   -0.903027
      3          6           0       -4.484728   -1.381845    0.182855
      4          1           0       -4.081262   -2.298132   -0.244289
      5          1           0       -5.457080   -1.191835   -0.272479
      6          1           0       -4.615184   -1.509826    1.259076
      7          6           0       -0.734712   -2.474117   -1.081105
      8          1           0       -0.169718   -2.753757   -1.970045
      9          1           0       -1.763082   -2.806757   -1.219217
     10          1           0       -0.308582   -2.974002   -0.213533
     11          6           0       -1.733923   -0.366507    0.668747
     12          1           0       -1.751074   -1.204524    1.366827
     13          1           0       -1.376672    0.515087    1.199434
     14          6           0        0.999774   -0.028096   -0.685086
     15          1           0        1.383992   -0.043435   -1.714618
     16          6           0       -4.116766    1.424093    0.777153
     17          1           0       -5.091274    1.664076    0.348915
     18          1           0       -3.486056    2.309511    0.711142
     19          1           0       -4.249253    1.150020    1.824446
     20          6           0        1.173576    2.126781    1.661207
     21          1           0        1.292777    3.194550    1.863321
     22          1           0        0.247427    1.811478    2.146679
     23          1           0        1.996692    1.610587    2.155603
     24          6           0       -0.289448    2.896982   -0.907543
     25          1           0       -0.315804    2.876203   -1.997205
     26          1           0       -1.273697    2.591211   -0.549089
     27          1           0       -0.136619    3.936253   -0.601549
     28          6           0        2.713996    2.547845   -1.018132
     29          1           0        2.705267    2.387657   -2.100023
     30          1           0        2.761906    3.626451   -0.850461
     31          1           0        3.630183    2.113481   -0.622522
     32          6           0        2.666075   -2.712185   -0.763935
     33          1           0        1.865937   -3.442152   -0.867306
     34          1           0        2.985205   -2.415620   -1.766112
     35          1           0        3.513630   -3.224509   -0.299166
     36          6           0        3.879826   -0.339003    0.628479
     37          1           0        4.396333   -0.074136   -0.295990
     38          1           0        3.809233    0.553672    1.248628
     39          1           0        4.515754   -1.051952    1.158777
     40          6           0        1.475098   -1.730269    1.949338
     41          1           0        1.219299   -0.872767    2.575038
     42          1           0        0.580345   -2.346995    1.842317
     43          1           0        2.208647   -2.325281    2.498784
     44         14           0        2.224947   -1.198661    0.291944
     45         14           0        1.144881    1.864338   -0.216592
 ---------------------------------------------------------------------

 SCF Done:  E(RB3LYP) =  -1699.28822295     A.U. after   13 cycles

      1  P    Isotropic =   281.2242   Anisotropy =   140.4441

      2  P    Isotropic =   269.8316   Anisotropy =   111.2253

      3  C    Isotropic =   167.5280   Anisotropy =    24.7537

      4  H    Isotropic =    30.7965   Anisotropy =     6.6735

      5  H    Isotropic =    31.0622   Anisotropy =    10.8475

      6  H    Isotropic =    30.5710   Anisotropy =     8.7002

      7  C    Isotropic =   167.3100   Anisotropy =    16.6132

      8  H    Isotropic =    30.9700   Anisotropy =     8.2944

      9  H    Isotropic =    30.7909   Anisotropy =     8.6528

     10  H    Isotropic =    30.2299   Anisotropy =     5.8317

     11  C    Isotropic =   155.2127   Anisotropy =    24.9940

     12  H    Isotropic =    30.5823   Anisotropy =     3.7462

     13  H    Isotropic =    30.6588   Anisotropy =     7.1673

     14  C    Isotropic =   158.3541   Anisotropy =    21.0465

     15  H    Isotropic =    31.6995   Anisotropy =     5.1957

     16  C    Isotropic =   166.0180   Anisotropy =    25.9454

     17  H    Isotropic =    31.0758   Anisotropy =    10.6356

     18  H    Isotropic =    30.6457   Anisotropy =     6.6657

     19  H    Isotropic =    30.5270   Anisotropy =     8.4537

     20  C    Isotropic =   181.8909   Anisotropy =     6.3098

     21  H    Isotropic =    31.9418   Anisotropy =    10.0984

     22  H    Isotropic =    31.8139   Anisotropy =     6.7559

     23  H    Isotropic =    31.6111   Anisotropy =     7.2532

     24  C    Isotropic =   181.3637   Anisotropy =     6.5555

     25  H    Isotropic =    31.5975   Anisotropy =     8.5771

     26  H    Isotropic =    31.6109   Anisotropy =    10.1913

     27  H    Isotropic =    32.0517   Anisotropy =     9.1633

     28  C    Isotropic =   181.1017   Anisotropy =    11.9042

     29  H    Isotropic =    31.8583   Anisotropy =     8.1828

     30  H    Isotropic =    31.9827   Anisotropy =    10.0354

     31  H    Isotropic =    31.5955   Anisotropy =     8.0849

     32  C    Isotropic =   178.2628   Anisotropy =    14.4251

     33  H    Isotropic =    31.6783   Anisotropy =     7.0974

     34  H    Isotropic =    31.8862   Anisotropy =     7.7103

     35  H    Isotropic =    31.9353   Anisotropy =    10.0044

     36  C    Isotropic =   178.7458   Anisotropy =     6.6590

     37  H    Isotropic =    31.8229   Anisotropy =     7.0402

     38  H    Isotropic =    31.6629   Anisotropy =     6.2866

     39  H    Isotropic =    32.0520   Anisotropy =     9.7712

     40  C    Isotropic =   182.8513   Anisotropy =     5.0582

     41  H    Isotropic =    31.7927   Anisotropy =     6.5254

     42  H    Isotropic =    31.7151   Anisotropy =     7.2548

     43  H    Isotropic =    31.9873   Anisotropy =    10.4128

     44  Si   Isotropic =   313.1195   Anisotropy =    21.4563

     45  Si   Isotropic =   309.9143   Anisotropy =    18.0147

 The electronic state is 1-A.
 Alpha  occ. eigenvalues --  -77.03678 -77.03665 -66.09620 -66.09328 -10.17468
 Alpha  occ. eigenvalues --  -10.16550 -10.16456 -10.16436 -10.15170 -10.14968
 Alpha  occ. eigenvalues --  -10.14818 -10.14538 -10.14536 -10.14512 -10.14164
 Alpha  occ. eigenvalues --   -6.52226  -6.52148  -5.25606  -5.25338  -4.68389
 Alpha  occ. eigenvalues --   -4.68344  -4.68316  -4.68263  -4.67835  -4.67761
 Alpha  occ. eigenvalues --   -3.61439  -3.61380  -3.61372  -3.61150  -3.61125
 Alpha  occ. eigenvalues --   -3.61110  -0.76760  -0.73869  -0.71908  -0.71187
 Alpha  occ. eigenvalues --   -0.69241  -0.68899  -0.68397  -0.68062  -0.67922
 Alpha  occ. eigenvalues --   -0.67410  -0.66551  -0.53036  -0.52263  -0.46723
 Alpha  occ. eigenvalues --   -0.45527  -0.44567  -0.43833  -0.43139  -0.42626
 Alpha  occ. eigenvalues --   -0.42544  -0.41812  -0.41688  -0.40978  -0.40655
 Alpha  occ. eigenvalues --   -0.40458  -0.40312  -0.39810  -0.39661  -0.39471
 Alpha  occ. eigenvalues --   -0.38967  -0.38876  -0.38533  -0.38231  -0.37823
 Alpha  occ. eigenvalues --   -0.37308  -0.35840  -0.33300  -0.32789  -0.31369
 Alpha  occ. eigenvalues --   -0.30560  -0.30310  -0.29557  -0.29180  -0.27658
 Alpha  occ. eigenvalues --   -0.21467  -0.17580
 Alpha virt. eigenvalues --    0.01391   0.01872   0.03092   0.03790   0.04166
 Alpha virt. eigenvalues --    0.04774   0.05335   0.05907   0.06234   0.06362
 Alpha virt. eigenvalues --    0.06798   0.06899   0.07603   0.08132   0.08369

 Mulliken charges:
               1
     1  P    0.183767
     2  P    0.136577
     3  C   -0.415735
     4  H    0.120084
     5  H    0.124767
     6  H    0.108010
     7  C   -0.452061
     8  H    0.134261
     9  H    0.132221
    10  H    0.110253
    11  C   -0.360861
    12  H    0.114210
    13  H    0.116774
    14  C   -0.142451
    15  H    0.074630
    16  C   -0.413936
    17  H    0.123574
    18  H    0.124778
    19  H    0.106601
    20  C   -0.461291
    21  H    0.119388
    22  H    0.119448
    23  H    0.119720
    24  C   -0.429489
    25  H    0.122174
    26  H    0.112444
    27  H    0.107451
    28  C   -0.464203
    29  H    0.117654
    30  H    0.113641
    31  H    0.128300
    32  C   -0.471755
    33  H    0.126907
    34  H    0.115711
    35  H    0.113832
    36  C   -0.481841
    37  H    0.121110
    38  H    0.122773
    39  H    0.114644
    40  C   -0.450785
    41  H    0.126673
    42  H    0.112671
    43  H    0.118677
    44  Si   0.361423
    45  Si   0.339262
 Sum of Mulliken charges =  -0.00000

 Dipole moment (field-independent basis, Debye):
    X=              0.4933    Y=             -0.4623    Z=              1.6047  Tot=              1.7413
 Quadrupole moment (field-independent basis, Debye-Ang):
   XX=           -128.4244   YY=           -127.6995   ZZ=           -133.5476
   XY=              1.3323   XZ=             -4.9374   YZ=              1.2316

 Summary of Natural Population Analysis:

                                       Natural Population
                Natural  -----------------------------------------------
    Atom  No    Charge         Core      Valence    Rydberg      Total
 -----------------------------------------------------------------------
      P    1    0.79435      9.99885     4.16546    0.04134    14.20565
      P    2    0.83000      9.99866     4.12929    0.04205    14.17000
      C    3   -0.91513      1.99946     4.89690    0.01877     6.91513
      H    4    0.22352      0.00000     0.77532    0.00116     0.77648
      H    5    0.22866      0.00000     0.77043    0.00091     0.77134
      H    6    0.20422      0.00000     0.79260    0.00318     0.79578
      C    7   -0.92270      1.99945     4.90423    0.01902     6.92270
      H    8    0.22956      0.00000     0.76949    0.00096     0.77044
      H    9    0.22748      0.00000     0.77134    0.00118     0.77252
      H   10    0.20165      0.00000     0.79538    0.00297     0.79835
      C   11   -1.02377      1.99947     4.99258    0.03172     7.02377
      H   12    0.22784      0.00000     0.76857    0.00359     0.77216
      H   13    0.24243      0.00000     0.75581    0.00176     0.75757
      C   14   -1.43896      1.99932     5.40836    0.03128     7.43896
      H   15    0.26131      0.00000     0.73744    0.00125     0.73869
      C   16   -0.91487      1.99946     4.89690    0.01851     6.91487
      H   17    0.22865      0.00000     0.77040    0.00095     0.77135
      H   18    0.22481      0.00000     0.77407    0.00112     0.77519
      H   19    0.20381      0.00000     0.79303    0.00316     0.79619
      C   20   -1.10413      1.99943     5.08503    0.01968     7.10413
      H   21    0.23045      0.00000     0.76874    0.00081     0.76955
      H   22    0.22495      0.00000     0.77389    0.00117     0.77505
      H   23    0.22651      0.00000     0.77245    0.00104     0.77349
      C   24   -1.09617      1.99943     5.07686    0.01989     7.09617
      H   25    0.23563      0.00000     0.76350    0.00087     0.76437
      H   26    0.22736      0.00000     0.77124    0.00140     0.77264
      H   27    0.22340      0.00000     0.77571    0.00089     0.77660
      C   28   -1.09979      1.99943     5.08117    0.01919     7.09979
      H   29    0.22959      0.00000     0.76959    0.00082     0.77041
      H   30    0.22821      0.00000     0.77097    0.00081     0.77179
      H   31    0.23107      0.00000     0.76805    0.00088     0.76893
      C   32   -1.09964      1.99943     5.08079    0.01941     7.09964
      H   33    0.22920      0.00000     0.76970    0.00110     0.77080
      H   34    0.22802      0.00000     0.77117    0.00081     0.77198
      H   35    0.22663      0.00000     0.77252    0.00085     0.77337
      C   36   -1.10503      1.99944     5.08597    0.01963     7.10503
      H   37    0.22838      0.00000     0.77074    0.00087     0.77162
      H   38    0.22494      0.00000     0.77404    0.00102     0.77506
      H   39    0.22698      0.00000     0.77206    0.00096     0.77302
      C   40   -1.10475      1.99943     5.08564    0.01969     7.10475
      H   41    0.23118      0.00000     0.76794    0.00088     0.76882
      H   42    0.22562      0.00000     0.77311    0.00127     0.77438
      H   43    0.22867      0.00000     0.77055    0.00078     0.77133
     Si   44    1.68748      9.99824     2.28499    0.02929    12.31252
     Si   45    1.70241      9.99822     2.27011    0.02926    12.29759
 =======================================================================
   * Total *   -0.00000     61.98771    91.59415    0.41814   154.00000

 Normal termination of Gaussian 16 at Thu Jan 23 19:36:43 2025.
