 Gaussian 16, Revision B.01,
 Gaussian 16:  ES64L-G16RevB.01 20-Dec-2017

 --------------------------------------------
 # nmr=giao b3lyp/def2TZVP pop=nbo scfcyc=200
 --------------------------------------------

 ---------------
 MB-114 SPE NoRh
 ---------------
 Symbolic Z-matrix:
 Charge =  0 Multiplicity = 1

                         Standard orientation:
 ---------------------------------------------------------------------
 Center     Atomic      Atomic             Coordinates (Angstroms)
 Number     Number       Type             X           Y           Z
 ---------------------------------------------------------------------
      1         15           0        1.452573    0.042258   -0.550904
      2         15           0       -1.452279   -0.042281   -0.550805
      3          6           0        0.000253   -0.000940    0.660146
      4          1           0        0.053990    0.874616    1.293537
      5          1           0       -0.054373   -0.877503    1.292755
      6          6           0        2.381630    1.520053    0.152375
      7          6           0        2.412490    2.765887   -0.510644
      8          6           0        3.101908    3.830949    0.077997
      9          1           0        3.122221    4.784627   -0.436487
     10          6           0        3.744833    3.692374    1.292726
     11          1           0        4.276229    4.529051    1.731016
     12          6           0        3.685246    2.477791    1.956798
     13          1           0        4.167402    2.369026    2.920587
     14          6           0        3.008568    1.382535    1.419108
     15          6           0        3.011554    0.117144    2.245094
     16          1           0        2.035299   -0.364386    2.288406
     17          1           0        3.717105   -0.617454    1.857867
     18          1           0        3.303685    0.347962    3.269439
     19          6           0        2.660016   -1.396532   -0.458292
     20          6           0        2.359921   -2.666824    0.089711
     21          6           0        3.325121   -3.674230    0.030029
     22          1           0        3.090670   -4.641895    0.458507
     23          6           0        4.560902   -3.470116   -0.559746
     24          1           0        5.291928   -4.268503   -0.593077
     25          6           0        4.840673   -2.236632   -1.117806
     26          1           0        5.798149   -2.067256   -1.596614
     27          6           0        3.913784   -1.193512   -1.088070
     28          6           0        4.358104    0.102661   -1.727043
     29          1           0        5.125296   -0.098883   -2.474426
     30          1           0        3.550697    0.635548   -2.222130
     31          1           0        4.786178    0.785763   -0.989989
     32          6           0       -2.659698    1.397213   -0.458415
     33          6           0       -2.359506    2.666757    0.091583
     34          6           0       -3.323716    3.674347    0.030265
     35          1           0       -3.089187    4.641646    0.459787
     36          6           0       -4.558601    3.471104   -0.559960
     37          1           0       -5.289632    4.269597   -0.593630
     38          6           0       -4.839470    2.238406   -1.118901
     39          1           0       -5.796033    2.069549   -1.599094
     40          6           0       -3.912585    1.194191   -1.088638
     41          6           0       -4.358025   -0.101938   -1.727667
     42          1           0       -3.549707   -0.634258   -2.222580
     43          1           0       -4.785954   -0.784385   -0.991718
     44          1           0       -5.124355    0.099979   -2.476285
     45          6           0       -2.382214   -1.521308    0.152916
     46          6           0       -2.414189   -2.766020   -0.511064
     47          6           0       -3.103495   -3.830958    0.078297
     48          1           0       -3.123908   -4.784998   -0.436221
     49          6           0       -3.746189   -3.692252    1.293571
     50          1           0       -4.277497   -4.528325    1.731283
     51          6           0       -3.685478   -2.477793    1.957500
     52          1           0       -4.167444   -2.368098    2.921715
     53          6           0       -3.008904   -1.382824    1.419189
     54          6           0       -3.010739   -0.118072    2.245204
     55          1           0       -2.034478    0.363318    2.289892
     56          1           0       -3.716344    0.618760    1.857433
     57          1           0       -3.303671   -0.348143    3.268862
     58          6           0       -1.757872   -3.060674   -1.837588
     59          1           0       -2.489611   -3.018966   -2.649463
     60          1           0       -0.951804   -2.369325   -2.081552
     61          1           0       -1.349724   -4.072299   -1.833231
     62          6           0       -1.067169    3.034352    0.777065
     63          1           0       -0.994940    2.593114    1.774358
     64          1           0       -0.184755    2.741501    0.213527
     65          1           0       -1.015692    4.113732    0.909780
     66          6           0        1.755924    3.060765   -1.837123
     67          1           0        2.486515    3.019651   -2.649249
     68          1           0        0.949799    2.368191   -2.080162
     69          1           0        1.346768    4.071385   -1.832481
     70          6           0        1.066703   -3.035591    0.774228
     71          1           0        0.993652   -2.595521    1.771936
     72          1           0        0.185181   -2.742953    0.209764
     73          1           0        1.015248   -4.115393    0.906513
 ---------------------------------------------------------------------

 SCF Done:  E(RB3LYP) =  -1963.59095395     A.U. after   14 cycles

      1  P    Isotropic =   242.4542   Anisotropy =   118.6533

      2  P    Isotropic =   241.9696   Anisotropy =   119.0631

      3  C    Isotropic =   145.5687   Anisotropy =    32.2871

      4  H    Isotropic =    27.9011   Anisotropy =     4.5909

      5  H    Isotropic =    27.8867   Anisotropy =     4.5868

      6  C    Isotropic =    29.8705   Anisotropy =   181.3454

      7  C    Isotropic =    32.9616   Anisotropy =   197.8825

      8  C    Isotropic =    49.8753   Anisotropy =   159.2661

      9  H    Isotropic =    24.5163   Anisotropy =     7.2528

     10  C    Isotropic =    50.3067   Anisotropy =   180.1257

     11  H    Isotropic =    24.5315   Anisotropy =     3.6442

     12  C    Isotropic =    48.5092   Anisotropy =   152.8006

     13  H    Isotropic =    24.6904   Anisotropy =     7.9050

     14  C    Isotropic =    29.0136   Anisotropy =   194.2074

     15  C    Isotropic =   157.6751   Anisotropy =    31.1992

     16  H    Isotropic =    29.6365   Anisotropy =     6.6965

     17  H    Isotropic =    30.1849   Anisotropy =     8.0021

     18  H    Isotropic =    30.0359   Anisotropy =     9.4730

     19  C    Isotropic =    35.2203   Anisotropy =   166.2257

     20  C    Isotropic =    35.9930   Anisotropy =   186.8655

     21  C    Isotropic =    48.4738   Anisotropy =   146.7981

     22  H    Isotropic =    24.8956   Anisotropy =     8.3077

     23  C    Isotropic =    53.0092   Anisotropy =   174.6097

     24  H    Isotropic =    24.7702   Anisotropy =     3.9313

     25  C    Isotropic =    47.9623   Anisotropy =   153.0478

     26  H    Isotropic =    24.8451   Anisotropy =     7.7217

     27  C    Isotropic =    37.5626   Anisotropy =   191.3769

     28  C    Isotropic =   159.0581   Anisotropy =    24.3576

     29  H    Isotropic =    30.0500   Anisotropy =    10.0663

     30  H    Isotropic =    29.9353   Anisotropy =     6.5041

     31  H    Isotropic =    30.9124   Anisotropy =     7.2915

     32  C    Isotropic =    35.2524   Anisotropy =   166.1170

     33  C    Isotropic =    36.0577   Anisotropy =   186.8732

     34  C    Isotropic =    48.6186   Anisotropy =   146.6257

     35  H    Isotropic =    24.8997   Anisotropy =     8.3029

     36  C    Isotropic =    53.1079   Anisotropy =   174.5142

     37  H    Isotropic =    24.7736   Anisotropy =     3.9239

     38  C    Isotropic =    47.8407   Anisotropy =   153.1562

     39  H    Isotropic =    24.8451   Anisotropy =     7.7317

     40  C    Isotropic =    37.4856   Anisotropy =   191.4355

     41  C    Isotropic =   159.1012   Anisotropy =    24.3721

     42  H    Isotropic =    29.9256   Anisotropy =     6.5106

     43  H    Isotropic =    30.9375   Anisotropy =     7.2925

     44  H    Isotropic =    30.0437   Anisotropy =    10.0688

     45  C    Isotropic =    29.8208   Anisotropy =   181.2496

     46  C    Isotropic =    33.0539   Anisotropy =   197.7442

     47  C    Isotropic =    49.8000   Anisotropy =   159.2918

     48  H    Isotropic =    24.5125   Anisotropy =     7.2492

     49  C    Isotropic =    50.3480   Anisotropy =   180.1983

     50  H    Isotropic =    24.5402   Anisotropy =     3.6526

     51  C    Isotropic =    48.4862   Anisotropy =   152.7450

     52  H    Isotropic =    24.6851   Anisotropy =     7.9052

     53  C    Isotropic =    29.1638   Anisotropy =   194.0637

     54  C    Isotropic =   157.6633   Anisotropy =    31.1983

     55  H    Isotropic =    29.6367   Anisotropy =     6.6903

     56  H    Isotropic =    30.1464   Anisotropy =     8.0114

     57  H    Isotropic =    30.0453   Anisotropy =     9.4728

     58  C    Isotropic =   159.6331   Anisotropy =    31.4167

     59  H    Isotropic =    29.1399   Anisotropy =     8.0701

     60  H    Isotropic =    28.3836   Anisotropy =     7.2807

     61  H    Isotropic =    29.4940   Anisotropy =     7.1957

     62  C    Isotropic =   155.5915   Anisotropy =    27.1326

     63  H    Isotropic =    29.5977   Anisotropy =     2.9360

     64  H    Isotropic =    29.5750   Anisotropy =    13.9898

     65  H    Isotropic =    30.0819   Anisotropy =     7.3383

     66  C    Isotropic =   159.6600   Anisotropy =    31.4374

     67  H    Isotropic =    29.1562   Anisotropy =     8.0742

     68  H    Isotropic =    28.3712   Anisotropy =     7.2908

     69  H    Isotropic =    29.5091   Anisotropy =     7.1913

     70  C    Isotropic =   155.5557   Anisotropy =    27.1810

     71  H    Isotropic =    29.5968   Anisotropy =     2.9443

     72  H    Isotropic =    29.5798   Anisotropy =    13.9743

     73  H    Isotropic =    30.0757   Anisotropy =     7.3392

 The electronic state is 1-A.
 Alpha  occ. eigenvalues --  -77.05239 -77.05239 -10.18887 -10.18881 -10.18754
 Alpha  occ. eigenvalues --  -10.18744 -10.18710 -10.18709 -10.18477 -10.18475
 Alpha  occ. eigenvalues --  -10.18471 -10.18436 -10.18432 -10.18305 -10.18300
 Alpha  occ. eigenvalues --  -10.17464 -10.17457 -10.16948 -10.16942 -10.16879
 Alpha  occ. eigenvalues --  -10.16878 -10.16764 -10.16757 -10.16630 -10.16629
 Alpha  occ. eigenvalues --  -10.16571 -10.16562 -10.16540 -10.16538 -10.16466
 Alpha  occ. eigenvalues --  -10.16459 -10.16382 -10.16375 -10.16057 -10.16056
 Alpha  occ. eigenvalues --   -6.53698  -6.53697  -4.69864  -4.69863  -4.69809
 Alpha  occ. eigenvalues --   -4.69807  -4.69347  -4.69346  -0.86510  -0.86410
 Alpha  occ. eigenvalues --   -0.85858  -0.85828  -0.78673  -0.78647  -0.78422
 Alpha  occ. eigenvalues --   -0.78391  -0.77748  -0.76771  -0.75556  -0.75449
 Alpha  occ. eigenvalues --   -0.73186  -0.70220  -0.69733  -0.69609  -0.69495
 Alpha  occ. eigenvalues --   -0.67908  -0.67835  -0.67553  -0.67513  -0.63095
 Alpha  occ. eigenvalues --   -0.61042  -0.59213  -0.58990  -0.57559  -0.57527
 Alpha  occ. eigenvalues --   -0.57301  -0.57280  -0.54954  -0.54469  -0.49955
 Alpha  occ. eigenvalues --   -0.49898  -0.48617  -0.48368  -0.47925  -0.47600
 Alpha  occ. eigenvalues --   -0.47481  -0.47368  -0.45578  -0.44079  -0.43750
 Alpha  occ. eigenvalues --   -0.43692  -0.43515  -0.43221  -0.42785  -0.42713
 Alpha  occ. eigenvalues --   -0.42390  -0.41919  -0.41496  -0.41334  -0.41108
 Alpha  occ. eigenvalues --   -0.40932  -0.40647  -0.40457  -0.40409  -0.40324
 Alpha  occ. eigenvalues --   -0.40117  -0.40000  -0.39467  -0.39010  -0.38633
 Alpha  occ. eigenvalues --   -0.38430  -0.37465  -0.37268  -0.37148  -0.36855
 Alpha  occ. eigenvalues --   -0.36608  -0.35583  -0.35337  -0.34782  -0.34653
 Alpha  occ. eigenvalues --   -0.34540  -0.34510  -0.34233  -0.34177  -0.34095
 Alpha  occ. eigenvalues --   -0.31868  -0.31675  -0.30873  -0.26576  -0.26375
 Alpha  occ. eigenvalues --   -0.25608  -0.24607  -0.24438  -0.24427  -0.24089
 Alpha  occ. eigenvalues --   -0.23955  -0.21097  -0.19169
 Alpha virt. eigenvalues --   -0.02925  -0.02890  -0.02259  -0.01835  -0.01349
 Alpha virt. eigenvalues --   -0.01285  -0.00800  -0.00471   0.02181   0.02728
 Alpha virt. eigenvalues --    0.04019   0.04061   0.04497   0.04543   0.05219

 Mulliken charges:
               1
     1  P    0.086781
     2  P    0.086682
     3  C   -0.447046
     4  H    0.165428
     5  H    0.165459
     6  C   -0.259389
     7  C    0.235515
     8  C   -0.220089
     9  H    0.096523
    10  C   -0.075654
    11  H    0.104233
    12  C   -0.234149
    13  H    0.091308
    14  C    0.181898
    15  C   -0.340065
    16  H    0.110122
    17  H    0.151972
    18  H    0.111081
    19  C   -0.191015
    20  C    0.227474
    21  C   -0.214072
    22  H    0.088374
    23  C   -0.091311
    24  H    0.101384
    25  C   -0.222147
    26  H    0.092382
    27  C    0.176378
    28  C   -0.354787
    29  H    0.114544
    30  H    0.134410
    31  H    0.136278
    32  C   -0.192178
    33  C    0.228240
    34  C   -0.214110
    35  H    0.088309
    36  C   -0.091342
    37  H    0.101271
    38  C   -0.222198
    39  H    0.092435
    40  C    0.177097
    41  C   -0.354555
    42  H    0.134313
    43  H    0.136420
    44  H    0.114480
    45  C   -0.259657
    46  C    0.235341
    47  C   -0.219376
    48  H    0.096528
    49  C   -0.076800
    50  H    0.104259
    51  C   -0.233263
    52  H    0.091299
    53  C    0.182152
    54  C   -0.340459
    55  H    0.110011
    56  H    0.151886
    57  H    0.111189
    58  C   -0.361952
    59  H    0.125373
    60  H    0.148954
    61  H    0.120601
    62  C   -0.368490
    63  H    0.124100
    64  H    0.118485
    65  H    0.112978
    66  C   -0.361776
    67  H    0.125388
    68  H    0.148866
    69  H    0.120650
    70  C   -0.368564
    71  H    0.124038
    72  H    0.118582
    73  H    0.112975
 Sum of Mulliken charges =  -0.00000

 Dipole moment (field-independent basis, Debye):
    X=              0.0009    Y=              0.0033    Z=              1.7340  Tot=              1.7340
 Quadrupole moment (field-independent basis, Debye-Ang):
   XX=           -220.7636   YY=           -213.4370   ZZ=           -225.9887
   XY=              4.2739   XZ=              0.0083   YZ=              0.0003

 Summary of Natural Population Analysis:

                                       Natural Population
                Natural  -----------------------------------------------
    Atom  No    Charge         Core      Valence    Rydberg      Total
 -----------------------------------------------------------------------
      P    1    0.78767      9.99810     4.18391    0.03032    14.21233
      P    2    0.78669      9.99811     4.18491    0.03029    14.21331
      C    3   -1.00764      1.99939     4.97670    0.03155     7.00764
      H    4    0.25718      0.00000     0.74081    0.00201     0.74282
      H    5    0.25737      0.00000     0.74062    0.00201     0.74263
      C    6   -0.29850      1.99881     4.26882    0.03086     6.29850
      C    7   -0.01190      1.99904     3.99038    0.02248     6.01190
      C    8   -0.21430      1.99908     4.19692    0.01830     6.21430
      H    9    0.20394      0.00000     0.79473    0.00133     0.79606
      C   10   -0.18722      1.99916     4.16879    0.01927     6.18722
      H   11    0.20817      0.00000     0.79057    0.00126     0.79183
      C   12   -0.21479      1.99909     4.19716    0.01854     6.21479
      H   13    0.20209      0.00000     0.79651    0.00140     0.79791
      C   14   -0.01176      1.99903     3.99030    0.02243     6.01176
      C   15   -0.61772      1.99938     4.60651    0.01184     6.61772
      H   16    0.20876      0.00000     0.78909    0.00215     0.79124
      H   17    0.22749      0.00000     0.77037    0.00214     0.77251
      H   18    0.20934      0.00000     0.78931    0.00135     0.79066
      C   19   -0.29220      1.99880     4.26496    0.02844     6.29220
      C   20   -0.02650      1.99904     4.00753    0.01993     6.02650
      C   21   -0.20592      1.99910     4.18877    0.01805     6.20592
      H   22    0.20084      0.00000     0.79772    0.00144     0.79916
      C   23   -0.20203      1.99916     4.18320    0.01968     6.20203
      H   24    0.20744      0.00000     0.79132    0.00124     0.79256
      C   25   -0.20494      1.99908     4.18767    0.01819     6.20494
      H   26    0.20289      0.00000     0.79568    0.00144     0.79711
      C   27   -0.01668      1.99905     3.99658    0.02105     6.01668
      C   28   -0.61657      1.99939     4.60499    0.01219     6.61657
      H   29    0.21119      0.00000     0.78768    0.00113     0.78881
      H   30    0.21844      0.00000     0.77994    0.00162     0.78156
      H   31    0.22137      0.00000     0.77696    0.00167     0.77863
      C   32   -0.29193      1.99880     4.26469    0.02844     6.29193
      C   33   -0.02651      1.99904     4.00754    0.01993     6.02651
      C   34   -0.20595      1.99910     4.18878    0.01808     6.20595
      H   35    0.20081      0.00000     0.79774    0.00144     0.79919
      C   36   -0.20214      1.99916     4.18328    0.01970     6.20214
      H   37    0.20742      0.00000     0.79134    0.00124     0.79258
      C   38   -0.20474      1.99909     4.18748    0.01817     6.20474
      H   39    0.20289      0.00000     0.79567    0.00144     0.79711
      C   40   -0.01662      1.99905     3.99653    0.02103     6.01662
      C   41   -0.61653      1.99939     4.60496    0.01218     6.61653
      H   42    0.21842      0.00000     0.77996    0.00162     0.78158
      H   43    0.22135      0.00000     0.77698    0.00167     0.77865
      H   44    0.21117      0.00000     0.78771    0.00113     0.78883
      C   45   -0.29722      1.99881     4.26755    0.03085     6.29722
      C   46   -0.01247      1.99904     3.99095    0.02248     6.01247
      C   47   -0.21399      1.99908     4.19662    0.01829     6.21399
      H   48    0.20389      0.00000     0.79477    0.00133     0.79611
      C   49   -0.18748      1.99916     4.16907    0.01925     6.18748
      H   50    0.20817      0.00000     0.79058    0.00126     0.79183
      C   51   -0.21452      1.99909     4.19688    0.01855     6.21452
      H   52    0.20207      0.00000     0.79653    0.00140     0.79793
      C   53   -0.01245      1.99903     3.99098    0.02244     6.01245
      C   54   -0.61781      1.99938     4.60659    0.01184     6.61781
      H   55    0.20876      0.00000     0.78909    0.00215     0.79124
      H   56    0.22758      0.00000     0.77028    0.00214     0.77242
      H   57    0.20938      0.00000     0.78927    0.00135     0.79062
      C   58   -0.62738      1.99938     4.61577    0.01223     6.62738
      H   59    0.21767      0.00000     0.78088    0.00145     0.78233
      H   60    0.23042      0.00000     0.76859    0.00099     0.76958
      H   61    0.21310      0.00000     0.78576    0.00114     0.78690
      C   62   -0.61083      1.99938     4.59951    0.01194     6.61083
      H   63    0.20578      0.00000     0.79241    0.00181     0.79422
      H   64    0.21593      0.00000     0.78226    0.00182     0.78407
      H   65    0.21354      0.00000     0.78504    0.00143     0.78646
      C   66   -0.62744      1.99938     4.61583    0.01223     6.62744
      H   67    0.21765      0.00000     0.78090    0.00145     0.78235
      H   68    0.23038      0.00000     0.76862    0.00099     0.76962
      H   69    0.21309      0.00000     0.78578    0.00114     0.78691
      C   70   -0.61083      1.99938     4.59952    0.01193     6.61083
      H   71    0.20577      0.00000     0.79242    0.00181     0.79423
      H   72    0.21587      0.00000     0.78232    0.00181     0.78413
      H   73    0.21352      0.00000     0.78506    0.00143     0.78648
 =======================================================================
   * Total *    0.00000     85.96753   179.27191    0.76056   266.00000

 Normal termination of Gaussian 16 at Fri Jan 24 03:15:50 2025.
