 Gaussian 16, Revision B.01,
 Gaussian 16:  ES64L-G16RevB.01 20-Dec-2017

 --------------------------------------------
 # nmr=giao b3lyp/def2TZVP pop=nbo scfcyc=200
 --------------------------------------------

 ---------------
 MB-120 SPE NoRh
 ---------------
 Symbolic Z-matrix:
 Charge =  0 Multiplicity = 1

                         Standard orientation:
 ---------------------------------------------------------------------
 Center     Atomic      Atomic             Coordinates (Angstroms)
 Number     Number       Type             X           Y           Z
 ---------------------------------------------------------------------
      1         15           0        1.400812   -0.537141   -0.622306
      2         15           0       -1.391129   -0.518426   -0.625969
      3          8           0        4.001762   -0.712154   -1.921649
      4          8           0        2.328817    0.795879    1.916842
      5          8           0       -2.379642    0.721120    1.935042
      6          8           0       -3.990057   -0.658391   -1.937629
      7          6           0        0.001767   -0.849201    0.575843
      8          1           0        0.002556   -0.275306    1.498208
      9          1           0       -0.003800   -1.914176    0.802695
     10          6           0        2.811626   -1.607349   -0.105432
     11          6           0        3.999437   -1.566108   -0.860345
     12          6           0        5.082864   -2.370925   -0.508705
     13          1           0        5.998227   -2.342345   -1.082507
     14          6           0        4.985474   -3.223709    0.585406
     15          1           0        5.830954   -3.846620    0.848091
     16          6           0        3.819611   -3.276833    1.337864
     17          1           0        3.746653   -3.936065    2.192479
     18          6           0        2.744206   -2.466674    0.988487
     19          1           0        1.850752   -2.499642    1.595300
     20          6           0        5.207210   -0.533078   -2.666340
     21          1           0        6.018523   -0.184456   -2.022570
     22          1           0        4.985418    0.228604   -3.409707
     23          1           0        5.503871   -1.455809   -3.169443
     24          6           0        1.942584    1.200198   -0.370209
     25          6           0        2.374221    1.678394    0.882877
     26          6           0        2.808259    2.997502    1.009746
     27          1           0        3.143060    3.377726    1.963770
     28          6           0        2.811624    3.838661   -0.099268
     29          1           0        3.153263    4.859702    0.015041
     30          6           0        2.384053    3.380527   -1.338573
     31          1           0        2.386011    4.037938   -2.197957
     32          6           0        1.954031    2.065976   -1.462593
     33          1           0        1.619286    1.694609   -2.423142
     34          6           0        2.851997    1.185291    3.186764
     35          1           0        3.905503    1.463948    3.110427
     36          1           0        2.756468    0.310817    3.824874
     37          1           0        2.282033    2.012559    3.615255
     38          6           0       -1.938515    1.210084   -0.326096
     39          6           0       -2.401126    1.641874    0.933863
     40          6           0       -2.838204    2.956197    1.099013
     41          1           0       -3.196603    3.299266    2.059023
     42          6           0       -2.811715    3.838554    0.024204
     43          1           0       -3.154169    4.855782    0.169606
     44          6           0       -2.350033    3.429223   -1.218763
     45          1           0       -2.325972    4.119702   -2.051615
     46          6           0       -1.918941    2.118318   -1.382696
     47          1           0       -1.556483    1.785866   -2.346807
     48          6           0       -2.931705    1.063635    3.206242
     49          1           0       -2.370823    1.874353    3.677632
     50          1           0       -2.849279    0.165180    3.813329
     51          1           0       -3.983183    1.345229    3.115788
     52          6           0       -2.799366   -1.609274   -0.149556
     53          6           0       -3.984497   -1.550514   -0.907838
     54          6           0       -5.064113   -2.373342   -0.590820
     55          1           0       -5.976703   -2.330651   -1.166245
     56          6           0       -4.966617   -3.263408    0.474589
     57          1           0       -5.810170   -3.900452    0.710308
     58          6           0       -3.804538   -3.334431    1.229516
     59          1           0       -3.730584   -4.022369    2.061601
     60          6           0       -2.732902   -2.506183    0.914728
     61          1           0       -1.842415   -2.554874    1.525655
     62          6           0       -5.194560   -0.461069   -2.679963
     63          1           0       -5.483766   -1.368540   -3.214600
     64          1           0       -4.975279    0.326681   -3.395953
     65          1           0       -6.008414   -0.138795   -2.026926
 ---------------------------------------------------------------------

 SCF Done:  E(RB3LYP) =  -2107.27396450     A.U. after   15 cycles

      1  P    Isotropic =   267.4606   Anisotropy =    73.0243

      2  P    Isotropic =   267.9531   Anisotropy =    72.1769

      3  O    Isotropic =   214.3185   Anisotropy =   109.6764

      4  O    Isotropic =   211.6772   Anisotropy =    98.8153

      5  O    Isotropic =   211.0962   Anisotropy =    99.0468

      6  O    Isotropic =   214.1011   Anisotropy =   109.9710

      7  C    Isotropic =   163.3520   Anisotropy =    13.7451

      8  H    Isotropic =    28.6645   Anisotropy =     6.0609

      9  H    Isotropic =    29.3025   Anisotropy =     7.6541

     10  C    Isotropic =    44.2311   Anisotropy =   167.4357

     11  C    Isotropic =    16.2635   Anisotropy =   134.1047

     12  C    Isotropic =    71.9378   Anisotropy =   154.6543

     13  H    Isotropic =    25.2787   Anisotropy =     8.0099

     14  C    Isotropic =    51.5647   Anisotropy =   176.8431

     15  H    Isotropic =    24.6067   Anisotropy =     4.3757

     16  C    Isotropic =    59.8220   Anisotropy =   167.9106

     17  H    Isotropic =    24.7683   Anisotropy =     5.7699

     18  C    Isotropic =    47.5134   Anisotropy =   179.6872

     19  H    Isotropic =    23.9288   Anisotropy =    11.5989

     20  C    Isotropic =   127.1875   Anisotropy =    76.8190

     21  H    Isotropic =    28.7646   Anisotropy =     8.9901

     22  H    Isotropic =    28.1640   Anisotropy =     8.4870

     23  H    Isotropic =    28.3597   Anisotropy =    10.0799

     24  C    Isotropic =    50.1951   Anisotropy =   165.7006

     25  C    Isotropic =    12.5530   Anisotropy =   139.8726

     26  C    Isotropic =    72.1512   Anisotropy =   155.5534

     27  H    Isotropic =    25.5652   Anisotropy =     7.7151

     28  C    Isotropic =    47.1918   Anisotropy =   186.0262

     29  H    Isotropic =    24.6291   Anisotropy =     3.9454

     30  C    Isotropic =    60.1782   Anisotropy =   170.4206

     31  H    Isotropic =    24.9286   Anisotropy =     4.4336

     32  C    Isotropic =    37.3196   Anisotropy =   180.8682

     33  H    Isotropic =    23.6474   Anisotropy =     7.3416

     34  C    Isotropic =   127.3523   Anisotropy =    76.6448

     35  H    Isotropic =    28.8389   Anisotropy =     9.5463

     36  H    Isotropic =    28.1656   Anisotropy =     8.3705

     37  H    Isotropic =    28.4982   Anisotropy =     9.0762

     38  C    Isotropic =    49.6567   Anisotropy =   166.1097

     39  C    Isotropic =    12.5236   Anisotropy =   140.0534

     40  C    Isotropic =    72.3420   Anisotropy =   155.1418

     41  H    Isotropic =    25.5526   Anisotropy =     7.7220

     42  C    Isotropic =    47.5440   Anisotropy =   185.4882

     43  H    Isotropic =    24.6453   Anisotropy =     3.9566

     44  C    Isotropic =    60.2221   Anisotropy =   170.3698

     45  H    Isotropic =    24.9823   Anisotropy =     4.5039

     46  C    Isotropic =    37.3519   Anisotropy =   181.2239

     47  H    Isotropic =    23.7320   Anisotropy =     7.2480

     48  C    Isotropic =   127.2551   Anisotropy =    76.5738

     49  H    Isotropic =    28.4586   Anisotropy =     9.1412

     50  H    Isotropic =    28.1439   Anisotropy =     8.3668

     51  H    Isotropic =    28.8327   Anisotropy =     9.5165

     52  C    Isotropic =    44.4682   Anisotropy =   167.2805

     53  C    Isotropic =    16.2427   Anisotropy =   133.8902

     54  C    Isotropic =    71.8670   Anisotropy =   154.7673

     55  H    Isotropic =    25.2872   Anisotropy =     8.0044

     56  C    Isotropic =    51.5500   Anisotropy =   176.9187

     57  H    Isotropic =    24.5941   Anisotropy =     4.3647

     58  C    Isotropic =    59.9412   Anisotropy =   167.8028

     59  H    Isotropic =    24.7644   Anisotropy =     5.7610

     60  C    Isotropic =    47.4864   Anisotropy =   180.2811

     61  H    Isotropic =    23.9224   Anisotropy =    11.5879

     62  C    Isotropic =   127.1538   Anisotropy =    76.9090

     63  H    Isotropic =    28.3620   Anisotropy =    10.0765

     64  H    Isotropic =    28.1881   Anisotropy =     8.4914

     65  H    Isotropic =    28.7869   Anisotropy =     8.9956

 The electronic state is 1-A.
 Alpha  occ. eigenvalues --  -77.03415 -77.03373 -19.15741 -19.15730 -19.15079
 Alpha  occ. eigenvalues --  -19.15070 -10.23297 -10.23292 -10.22754 -10.22740
 Alpha  occ. eigenvalues --  -10.22686 -10.22681 -10.22098 -10.22097 -10.17432
 Alpha  occ. eigenvalues --  -10.17403 -10.17000 -10.16990 -10.16944 -10.16934
 Alpha  occ. eigenvalues --  -10.16921 -10.16910 -10.16835 -10.16781 -10.16691
 Alpha  occ. eigenvalues --  -10.16673 -10.16586 -10.16557 -10.16532 -10.16495
 Alpha  occ. eigenvalues --  -10.16492 -10.16241 -10.16227 -10.15910 -10.15902
 Alpha  occ. eigenvalues --   -6.51925  -6.51884  -4.68085  -4.68047  -4.68045
 Alpha  occ. eigenvalues --   -4.68005  -4.67557  -4.67516  -1.06678  -1.06660
 Alpha  occ. eigenvalues --   -1.05946  -1.05928  -0.85114  -0.85020  -0.84598
 Alpha  occ. eigenvalues --   -0.84568  -0.77103  -0.76220  -0.75238  -0.75196
 Alpha  occ. eigenvalues --   -0.74745  -0.74522  -0.74192  -0.74057  -0.71642
 Alpha  occ. eigenvalues --   -0.69768  -0.69648  -0.69214  -0.68895  -0.63283
 Alpha  occ. eigenvalues --   -0.61802  -0.60182  -0.60139  -0.59154  -0.59128
 Alpha  occ. eigenvalues --   -0.58708  -0.58436  -0.55618  -0.54793  -0.53264
 Alpha  occ. eigenvalues --   -0.53183  -0.51688  -0.51489  -0.48461  -0.48342
 Alpha  occ. eigenvalues --   -0.47855  -0.47713  -0.47544  -0.47402  -0.47297
 Alpha  occ. eigenvalues --   -0.47265  -0.46663  -0.46633  -0.46498  -0.46047
 Alpha  occ. eigenvalues --   -0.44270  -0.43985  -0.43916  -0.43842  -0.42822
 Alpha  occ. eigenvalues --   -0.41843  -0.41743  -0.41296  -0.41228  -0.40923
 Alpha  occ. eigenvalues --   -0.40063  -0.39023  -0.38524  -0.38396  -0.37887
 Alpha  occ. eigenvalues --   -0.37613  -0.37519  -0.36494  -0.35791  -0.35740
 Alpha  occ. eigenvalues --   -0.35527  -0.35188  -0.35088  -0.34799  -0.33751
 Alpha  occ. eigenvalues --   -0.33024  -0.32542  -0.32449  -0.31869  -0.31855
 Alpha  occ. eigenvalues --   -0.31378  -0.31090  -0.30619  -0.26093  -0.25751
 Alpha  occ. eigenvalues --   -0.25341  -0.24527  -0.22654  -0.22604  -0.22447
 Alpha  occ. eigenvalues --   -0.22111  -0.20241  -0.17289
 Alpha virt. eigenvalues --   -0.02668  -0.01750  -0.01249  -0.00254  -0.00018
 Alpha virt. eigenvalues --    0.00667   0.00688   0.01151   0.02684   0.03383
 Alpha virt. eigenvalues --    0.04194   0.04324   0.04512   0.04839   0.05800

 Mulliken charges:
               1
     1  P    0.153170
     2  P    0.154604
     3  O   -0.279038
     4  O   -0.294457
     5  O   -0.293688
     6  O   -0.279666
     7  C   -0.320942
     8  H    0.138548
     9  H    0.097758
    10  C    0.016311
    11  C    0.293441
    12  C   -0.263465
    13  H    0.110905
    14  C   -0.106660
    15  H    0.101939
    16  C   -0.162458
    17  H    0.095622
    18  C   -0.157909
    19  H    0.103023
    20  C   -0.204173
    21  H    0.117965
    22  H    0.133604
    23  H    0.120616
    24  C   -0.030055
    25  C    0.322171
    26  C   -0.280592
    27  H    0.110827
    28  C   -0.085834
    29  H    0.104639
    30  C   -0.143571
    31  H    0.099124
    32  C   -0.113943
    33  H    0.107819
    34  C   -0.205120
    35  H    0.124256
    36  H    0.133716
    37  H    0.119662
    38  C   -0.035087
    39  C    0.321783
    40  C   -0.282061
    41  H    0.110577
    42  C   -0.085541
    43  H    0.104387
    44  C   -0.147029
    45  H    0.098823
    46  C   -0.100843
    47  H    0.106764
    48  C   -0.204685
    49  H    0.119036
    50  H    0.133895
    51  H    0.124055
    52  C    0.016630
    53  C    0.293434
    54  C   -0.264193
    55  H    0.111050
    56  C   -0.106286
    57  H    0.102064
    58  C   -0.162602
    59  H    0.095654
    60  C   -0.158008
    61  H    0.101717
    62  C   -0.203992
    63  H    0.120453
    64  H    0.133909
    65  H    0.117943
 Sum of Mulliken charges =  -0.00000

 Dipole moment (field-independent basis, Debye):
    X=             -0.0405    Y=              2.6775    Z=              2.8153  Tot=              3.8854
 Quadrupole moment (field-independent basis, Debye-Ang):
   XX=           -190.3671   YY=           -214.6970   ZZ=           -198.0143
   XY=              0.1674   XZ=             -0.3029   YZ=             -2.0649

 Summary of Natural Population Analysis:

                                       Natural Population
                Natural  -----------------------------------------------
    Atom  No    Charge         Core      Valence    Rydberg      Total
 -----------------------------------------------------------------------
      P    1    0.84068      9.99823     4.12838    0.03271    14.15932
      P    2    0.84171      9.99822     4.12740    0.03266    14.15829
      O    3   -0.45587      1.99975     6.43904    0.01708     8.45587
      O    4   -0.46364      1.99974     6.43817    0.02573     8.46364
      O    5   -0.46360      1.99974     6.43809    0.02577     8.46360
      O    6   -0.45609      1.99976     6.43928    0.01706     8.45609
      C    7   -1.00169      1.99944     4.97205    0.03020     7.00169
      H    8    0.24920      0.00000     0.74783    0.00297     0.75080
      H    9    0.24349      0.00000     0.75478    0.00173     0.75651
      C   10   -0.34708      1.99889     4.31719    0.03101     6.34708
      C   11    0.28948      1.99868     3.68774    0.02411     5.71052
      C   12   -0.29404      1.99906     4.27588    0.01911     6.29404
      H   13    0.21054      0.00000     0.78778    0.00169     0.78946
      C   14   -0.19439      1.99920     4.17518    0.02000     6.19439
      H   15    0.20472      0.00000     0.79406    0.00122     0.79528
      C   16   -0.23562      1.99918     4.21698    0.01947     6.23562
      H   17    0.20476      0.00000     0.79399    0.00125     0.79524
      C   18   -0.18530      1.99909     4.16698    0.01922     6.18530
      H   19    0.20036      0.00000     0.79748    0.00215     0.79964
      C   20   -0.24663      1.99927     4.23368    0.01369     6.24663
      H   21    0.17078      0.00000     0.82685    0.00237     0.82922
      H   22    0.19447      0.00000     0.80417    0.00136     0.80553
      H   23    0.16965      0.00000     0.82801    0.00234     0.83035
      C   24   -0.36715      1.99889     4.33459    0.03368     6.36715
      C   25    0.30011      1.99865     3.67749    0.02375     5.69989
      C   26   -0.29998      1.99906     4.28205    0.01888     6.29998
      H   27    0.20915      0.00000     0.78908    0.00178     0.79085
      C   28   -0.17488      1.99921     4.15631    0.01935     6.17488
      H   29    0.20530      0.00000     0.79347    0.00123     0.79470
      C   30   -0.24248      1.99917     4.22353    0.01979     6.24248
      H   31    0.20777      0.00000     0.79105    0.00118     0.79223
      C   32   -0.15569      1.99911     4.13567    0.02091     6.15569
      H   33    0.21909      0.00000     0.77931    0.00161     0.78091
      C   34   -0.24665      1.99927     4.23449    0.01289     6.24665
      H   35    0.17384      0.00000     0.82383    0.00233     0.82616
      H   36    0.19420      0.00000     0.80445    0.00135     0.80580
      H   37    0.16837      0.00000     0.82927    0.00235     0.83163
      C   38   -0.36677      1.99889     4.33428    0.03360     6.36677
      C   39    0.30002      1.99865     3.67760    0.02372     5.69998
      C   40   -0.30060      1.99906     4.28262    0.01892     6.30060
      H   41    0.20903      0.00000     0.78919    0.00178     0.79097
      C   42   -0.17565      1.99920     4.15703    0.01941     6.17565
      H   43    0.20529      0.00000     0.79348    0.00123     0.79471
      C   44   -0.24195      1.99917     4.22299    0.01979     6.24195
      H   45    0.20790      0.00000     0.79092    0.00118     0.79210
      C   46   -0.15543      1.99912     4.13547    0.02085     6.15543
      H   47    0.21871      0.00000     0.77967    0.00161     0.78129
      C   48   -0.24672      1.99927     4.23455    0.01290     6.24672
      H   49    0.16816      0.00000     0.82948    0.00236     0.83184
      H   50    0.19443      0.00000     0.80421    0.00136     0.80557
      H   51    0.17386      0.00000     0.82381    0.00233     0.82614
      C   52   -0.34662      1.99889     4.31674    0.03099     6.34662
      C   53    0.28935      1.99868     3.68787    0.02411     5.71065
      C   54   -0.29405      1.99906     4.27592    0.01908     6.29405
      H   55    0.21060      0.00000     0.78772    0.00169     0.78940
      C   56   -0.19407      1.99920     4.17485    0.02001     6.19407
      H   57    0.20479      0.00000     0.79399    0.00122     0.79521
      C   58   -0.23587      1.99917     4.21720    0.01949     6.23587
      H   59    0.20487      0.00000     0.79388    0.00125     0.79513
      C   60   -0.18468      1.99909     4.16638    0.01921     6.18468
      H   61    0.20007      0.00000     0.79775    0.00217     0.79993
      C   62   -0.24655      1.99927     4.23362    0.01367     6.24655
      H   63    0.16965      0.00000     0.82800    0.00234     0.83035
      H   64    0.19460      0.00000     0.80405    0.00136     0.80540
      H   65    0.17075      0.00000     0.82689    0.00237     0.82925
 =======================================================================
   * Total *    0.00000     85.96832   179.20574    0.82594   266.00000

 Normal termination of Gaussian 16 at Fri Jan 24 03:23:12 2025.
