 Gaussian 16, Revision B.01,
 Gaussian 16:  ES64L-G16RevB.01 20-Dec-2017

 --------------------------------------------
 # nmr=giao b3lyp/def2TZVP pop=nbo scfcyc=200
 --------------------------------------------

 --------------
 MB-19 SPE NoRh
 --------------
 Symbolic Z-matrix:
 Charge =  0 Multiplicity = 1

                         Standard orientation:
 ---------------------------------------------------------------------
 Center     Atomic      Atomic             Coordinates (Angstroms)
 Number     Number       Type             X           Y           Z
 ---------------------------------------------------------------------
      1         15           0       -2.319597   -1.872713   -0.311200
      2         15           0       -0.000589   -0.360988   -0.516259
      3          6           0       -2.814291   -3.569133    0.222244
      4          1           0       -3.110512   -3.573449    1.272341
      5          1           0       -1.982748   -4.257759    0.076899
      6          1           0       -3.655600   -3.908469   -0.383427
      7          6           0       -3.762450   -0.823535    0.157507
      8          1           0       -4.026859   -0.977527    1.205122
      9          1           0       -4.617579   -1.079864   -0.467808
     10          1           0       -3.519571    0.226299   -0.003996
     11          6           0       -0.919549   -1.331590    0.801889
     12          1           0       -0.332854   -2.204029    1.089721
     13          1           0       -1.193280   -0.776537    1.699546
     14          6           0        1.805969   -0.549585   -0.217173
     15          6           0        2.669241    0.546274   -0.302618
     16          1           0        2.278929    1.539802   -0.477844
     17          6           0        4.040941    0.368082   -0.149236
     18          1           0        4.700799    1.223956   -0.211012
     19          6           0        4.561699   -0.899337    0.085468
     20          1           0        5.628614   -1.033687    0.208226
     21          6           0        3.708103   -1.996463    0.159006
     22          1           0        4.108490   -2.986446    0.339019
     23          6           0        2.338204   -1.825304   -0.000059
     24          1           0        1.692227   -2.694975    0.042719
     25          6           0       -0.407458    1.399080   -0.176932
     26          6           0       -1.004459    2.175026   -1.173143
     27          1           0       -1.217269    1.737042   -2.140347
     28          6           0       -1.334174    3.504562   -0.923430
     29          1           0       -1.795706    4.100033   -1.700735
     30          6           0       -1.072201    4.063525    0.321553
     31          1           0       -1.327988    5.097182    0.516354
     32          6           0       -0.477290    3.295383    1.319938
     33          1           0       -0.271262    3.730834    2.289711
     34          6           0       -0.145804    1.969196    1.075087
     35          1           0        0.326074    1.386033    1.856803
 ---------------------------------------------------------------------

 SCF Done:  E(RB3LYP) =  -1265.39689366     A.U. after   18 cycles

      1  P    Isotropic =   278.5442   Anisotropy =   135.6141

      2  P    Isotropic =   240.1714   Anisotropy =   107.5415

      3  C    Isotropic =   166.8812   Anisotropy =    25.5091

      4  H    Isotropic =    30.5203   Anisotropy =     8.9036

      5  H    Isotropic =    30.5000   Anisotropy =     7.8422

      6  H    Isotropic =    31.0659   Anisotropy =    10.0622

      7  C    Isotropic =   169.1140   Anisotropy =    20.9141

      8  H    Isotropic =    30.9550   Anisotropy =     8.3738

      9  H    Isotropic =    31.1948   Anisotropy =    10.5352

     10  H    Isotropic =    31.2253   Anisotropy =     8.9550

     11  C    Isotropic =   149.2981   Anisotropy =    21.4225

     12  H    Isotropic =    30.2063   Anisotropy =     6.6187

     13  H    Isotropic =    29.7516   Anisotropy =     4.1609

     14  C    Isotropic =    29.1465   Anisotropy =   199.7512

     15  C    Isotropic =    51.0922   Anisotropy =   181.8543

     16  H    Isotropic =    25.1366   Anisotropy =    12.8733

     17  C    Isotropic =    49.7557   Anisotropy =   183.3721

     18  H    Isotropic =    24.6251   Anisotropy =     6.3420

     19  C    Isotropic =    53.8307   Anisotropy =   179.4623

     20  H    Isotropic =    24.6615   Anisotropy =     4.2434

     21  C    Isotropic =    50.2322   Anisotropy =   182.6655

     22  H    Isotropic =    24.3608   Anisotropy =     5.5943

     23  C    Isotropic =    50.7393   Anisotropy =   182.0717

     24  H    Isotropic =    24.2588   Anisotropy =    10.4297

     25  C    Isotropic =    35.0607   Anisotropy =   206.5157

     26  C    Isotropic =    39.2373   Anisotropy =   182.2984

     27  H    Isotropic =    23.6633   Anisotropy =     7.9607

     28  C    Isotropic =    50.0011   Anisotropy =   183.4943

     29  H    Isotropic =    24.1826   Anisotropy =     5.1520

     30  C    Isotropic =    48.2020   Anisotropy =   189.9822

     31  H    Isotropic =    24.1999   Anisotropy =     4.4255

     32  C    Isotropic =    48.3762   Anisotropy =   186.2381

     33  H    Isotropic =    24.1944   Anisotropy =     5.7551

     34  C    Isotropic =    39.4765   Anisotropy =   188.0818

     35  H    Isotropic =    23.9142   Anisotropy =    10.4931

 The electronic state is 1-A.
 Alpha  occ. eigenvalues --  -77.04734 -77.03845 -10.18706 -10.18547 -10.18471
 Alpha  occ. eigenvalues --  -10.18462 -10.18315 -10.18308 -10.18256 -10.18181
 Alpha  occ. eigenvalues --  -10.17613 -10.17496 -10.17375 -10.17268 -10.17158
 Alpha  occ. eigenvalues --  -10.16572 -10.16516  -6.53298  -6.52417  -4.69450
 Alpha  occ. eigenvalues --   -4.69418  -4.68929  -4.68585  -4.68528  -4.68024
 Alpha  occ. eigenvalues --   -0.86672  -0.85610  -0.77726  -0.75699  -0.75546
 Alpha  occ. eigenvalues --   -0.74811  -0.74563  -0.70576  -0.69283  -0.63072
 Alpha  occ. eigenvalues --   -0.61467  -0.60640  -0.60135  -0.55958  -0.52942
 Alpha  occ. eigenvalues --   -0.52395  -0.50366  -0.46289  -0.46150  -0.45413
 Alpha  occ. eigenvalues --   -0.45056  -0.44261  -0.43336  -0.43119  -0.42591
 Alpha  occ. eigenvalues --   -0.42391  -0.40851  -0.40582  -0.40209  -0.39363
 Alpha  occ. eigenvalues --   -0.37906  -0.37415  -0.36078  -0.35566  -0.34804
 Alpha  occ. eigenvalues --   -0.33509  -0.32523  -0.31565  -0.27328  -0.26745
 Alpha  occ. eigenvalues --   -0.26197  -0.25674  -0.22080  -0.18527
 Alpha virt. eigenvalues --   -0.03763  -0.02463  -0.01779  -0.01276   0.01791
 Alpha virt. eigenvalues --    0.02984   0.04284   0.04985   0.05336   0.06021
 Alpha virt. eigenvalues --    0.06952   0.07247   0.07703   0.08210   0.08563

 Mulliken charges:
               1
     1  P    0.172207
     2  P    0.176453
     3  C   -0.410526
     4  H    0.106628
     5  H    0.121652
     6  H    0.124398
     7  C   -0.424118
     8  H    0.107763
     9  H    0.123530
    10  H    0.141842
    11  C   -0.358922
    12  H    0.124925
    13  H    0.123796
    14  C    0.079395
    15  C   -0.166446
    16  H    0.136338
    17  C   -0.123332
    18  H    0.106049
    19  C   -0.110424
    20  H    0.106086
    21  C   -0.116028
    22  H    0.105300
    23  C   -0.202283
    24  H    0.104063
    25  C    0.009357
    26  C   -0.151869
    27  H    0.119283
    28  C   -0.101789
    29  H    0.112702
    30  C   -0.097626
    31  H    0.113605
    32  C   -0.099026
    33  H    0.110730
    34  C   -0.191168
    35  H    0.127455
 Sum of Mulliken charges =  -0.00000

 Dipole moment (field-independent basis, Debye):
    X=             -0.6484    Y=              0.7813    Z=              2.0353  Tot=              2.2745
 Quadrupole moment (field-independent basis, Debye-Ang):
   XX=           -112.3689   YY=           -106.0691   ZZ=           -120.4857
   XY=             -1.5157   XZ=              0.6686   YZ=             -3.2518

 Summary of Natural Population Analysis:

                                       Natural Population
                Natural  -----------------------------------------------
    Atom  No    Charge         Core      Valence    Rydberg      Total
 -----------------------------------------------------------------------
      P    1    0.78807      9.99886     4.17133    0.04175    14.21193
      P    2    0.82945      9.99817     4.13797    0.03441    14.17055
      C    3   -0.91660      1.99946     4.89896    0.01817     6.91660
      H    4    0.20419      0.00000     0.79269    0.00312     0.79581
      H    5    0.22530      0.00000     0.77381    0.00089     0.77470
      H    6    0.22921      0.00000     0.76985    0.00094     0.77079
      C    7   -0.91650      1.99946     4.89795    0.01908     6.91650
      H    8    0.20475      0.00000     0.79200    0.00326     0.79525
      H    9    0.22859      0.00000     0.77053    0.00089     0.77141
      H   10    0.23295      0.00000     0.76609    0.00096     0.76705
      C   11   -1.00229      1.99946     4.96970    0.03314     7.00229
      H   12    0.24634      0.00000     0.75206    0.00160     0.75366
      H   13    0.23552      0.00000     0.76179    0.00268     0.76448
      C   14   -0.31660      1.99899     4.28772    0.02989     6.31660
      C   15   -0.21323      1.99908     4.19400    0.02014     6.21323
      H   16    0.21305      0.00000     0.78510    0.00185     0.78695
      C   17   -0.19482      1.99919     4.17665    0.01898     6.19482
      H   18    0.20683      0.00000     0.79184    0.00133     0.79317
      C   19   -0.21835      1.99919     4.19942    0.01975     6.21835
      H   20    0.20704      0.00000     0.79175    0.00121     0.79296
      C   21   -0.19595      1.99919     4.17775    0.01901     6.19595
      H   22    0.20703      0.00000     0.79165    0.00132     0.79297
      C   23   -0.21312      1.99908     4.19396    0.02007     6.21312
      H   24    0.19937      0.00000     0.79827    0.00237     0.80063
      C   25   -0.33850      1.99901     4.30566    0.03382     6.33850
      C   26   -0.18993      1.99910     4.16992    0.02091     6.18993
      H   27    0.22113      0.00000     0.77726    0.00161     0.77887
      C   28   -0.20711      1.99918     4.18842    0.01951     6.20711
      H   29    0.21085      0.00000     0.78789    0.00126     0.78915
      C   30   -0.19554      1.99919     4.17733    0.01902     6.19554
      H   31    0.20943      0.00000     0.78941    0.00116     0.79057
      C   32   -0.20585      1.99919     4.18754    0.01913     6.20585
      H   33    0.20900      0.00000     0.78962    0.00138     0.79100
      C   34   -0.19394      1.99908     4.17452    0.02033     6.19394
      H   35    0.21023      0.00000     0.78731    0.00246     0.78977
 =======================================================================
   * Total *    0.00000     49.98489    87.57773    0.43738   138.00000

 Normal termination of Gaussian 16 at Thu Jan 23 20:03:01 2025.
