 Gaussian 16, Revision B.01,
 Gaussian 16:  ES64L-G16RevB.01 20-Dec-2017

 --------------------------------------------
 # nmr=giao b3lyp/def2TZVP pop=nbo scfcyc=200
 --------------------------------------------

 ---------------
 MB-127 SPE NoRh
 ---------------
 Symbolic Z-matrix:
 Charge =  0 Multiplicity = 1

                         Standard orientation:
 ---------------------------------------------------------------------
 Center     Atomic      Atomic             Coordinates (Angstroms)
 Number     Number       Type             X           Y           Z
 ---------------------------------------------------------------------
      1          6           0       -2.387914    1.782320   -0.388413
      2         16           0       -4.037073    2.009697   -0.982815
      3          6           0       -4.034403    3.616254   -0.287871
      4          6           0       -5.000602    4.603744   -0.251095
      5          6           0       -4.644784    5.654083    0.356496
      6          6           0       -3.506065    5.938195    0.964275
      7          6           0       -2.586677    5.077224    0.965390
      8          6           0       -2.717592    3.833576    0.362947
      9          7           0       -1.865888    2.773050    0.256201
     10          6           0       -2.565665   -1.083065   -0.302292
     11         16           0       -2.769641   -1.680036    1.358705
     12          6           0       -4.022727   -2.751818    0.755872
     13          6           0       -4.793971   -3.678834    1.453611
     14          6           0       -5.732671   -4.405935    0.737692
     15          6           0       -5.901628   -4.219663   -0.643246
     16          6           0       -5.134502   -3.302723   -1.336236
     17          6           0       -4.180526   -2.557431   -0.633760
     18          7           0       -3.337022   -1.614566   -1.191195
     19         15           0       -1.412094    0.263511   -0.770648
     20          6           0       -0.006662    0.308048    0.450088
     21         15           0        1.323623   -0.084241   -0.796484
     22          6           0        2.619311    1.179743   -0.465373
     23         16           0        4.218128    1.098740   -1.238130
     24          6           0        4.602246    2.625549   -0.454711
     25          6           0        5.781060    3.365597   -0.505589
     26          6           0        5.833051    4.547248    0.217624
     27          6           0        4.739358    4.983910    0.980052
     28          6           0        3.570524    4.247747    1.034140
     29          6           0        3.496462    3.052219    0.310361
     30          7           0        2.399252    2.210468    0.273282
     31          6           0        2.132620   -1.654668   -0.296687
     32         16           0        2.426058   -2.101871    1.398828
     33          6           0        3.222830   -3.552793    0.817519
     34          6           0        3.810741   -4.583512    1.547122
     35          6           0        4.387353   -5.627713    0.839906
     36          6           0        4.379558   -5.650886   -0.563049
     37          6           0        3.794534   -4.629280   -1.287793
     38          6           0        3.207212   -3.564747   -0.594321
     39          7           0        2.580720   -2.481641   -1.181358
     40          1           0       -4.671672   -3.827576    2.517585
     41          1           0       -6.347451   -5.129174    1.256463
     42          1           0       -6.646004   -4.803495   -1.169724
     43          1           0       -5.255770   -3.147987   -2.400079
     44          1           0        0.130049    1.326203    0.821091
     45          1           0       -0.085356   -0.386221    1.284581
     46          1           0        6.629986    3.035702   -1.090084
     47          1           0        6.736701    5.142168    0.193264
     48          1           0        4.815182    5.910747    1.533503
     49          1           0        2.719549    4.570634    1.619469
     50          1           0        3.822660   -4.573999    2.628771
     51          1           0        4.852876   -6.440060    1.383155
     52          1           0        4.840857   -6.481182   -1.081509
     53          1           0        3.783636   -4.634799   -2.369350
 ---------------------------------------------------------------------

 SCF Done:  E(RB3LYP) =  -3608.38434461     A.U. after   20 cycles

      1  C    Isotropic =    -7.3459   Anisotropy =   126.8230

      2  S    Isotropic =   143.4055   Anisotropy =   339.8370

      3  C    Isotropic =    27.1593   Anisotropy =    63.4836

      4  C    Isotropic =    -4.1953   Anisotropy =   186.6025

      5  C    Isotropic =   -10.8189   Anisotropy =   250.3366

      6  C    Isotropic =    -3.5222   Anisotropy =   232.3152

      7  C    Isotropic =   -33.7081   Anisotropy =   261.8974

      8  C    Isotropic =    32.9587   Anisotropy =    76.7396

      9  N    Isotropic =   -66.9062   Anisotropy =   447.0247

     10  C    Isotropic =     3.7330   Anisotropy =   116.8809

     11  S    Isotropic =   162.0119   Anisotropy =   244.2768

     12  C    Isotropic =    31.4369   Anisotropy =   139.5803

     13  C    Isotropic =    56.8309   Anisotropy =   172.4281

     14  C    Isotropic =    52.4278   Anisotropy =   180.7824

     15  C    Isotropic =    52.2271   Anisotropy =   181.9856

     16  C    Isotropic =    52.4135   Anisotropy =   170.5684

     17  C    Isotropic =    22.0769   Anisotropy =   129.3324

     18  N    Isotropic =  -122.2199   Anisotropy =   449.4457

     19  P    Isotropic =   240.0901   Anisotropy =   110.3471

     20  C    Isotropic =   159.1945   Anisotropy =    12.3229

     21  P    Isotropic =   245.7227   Anisotropy =   103.8381

     22  C    Isotropic =     0.4491   Anisotropy =   112.3306

     23  S    Isotropic =   172.3882   Anisotropy =   251.3078

     24  C    Isotropic =    32.2407   Anisotropy =   136.5468

     25  C    Isotropic =    57.1691   Anisotropy =   170.6553

     26  C    Isotropic =    53.9704   Anisotropy =   177.5513

     27  C    Isotropic =    52.7437   Anisotropy =   180.1287

     28  C    Isotropic =    53.8774   Anisotropy =   166.9714

     29  C    Isotropic =    22.8863   Anisotropy =   127.3056

     30  N    Isotropic =   -90.6932   Anisotropy =   417.9163

     31  C    Isotropic =     3.4745   Anisotropy =   117.8271

     32  S    Isotropic =   164.6219   Anisotropy =   230.7993

     33  C    Isotropic =    30.4422   Anisotropy =   140.2279

     34  C    Isotropic =    56.6929   Anisotropy =   172.1002

     35  C    Isotropic =    52.3690   Anisotropy =   180.6542

     36  C    Isotropic =    52.3904   Anisotropy =   181.7419

     37  C    Isotropic =    52.2151   Anisotropy =   171.1103

     38  C    Isotropic =    22.4356   Anisotropy =   128.8875

     39  N    Isotropic =  -124.6926   Anisotropy =   450.9350

     40  H    Isotropic =    23.8689   Anisotropy =     8.9368

     41  H    Isotropic =    24.3331   Anisotropy =     5.2177

     42  H    Isotropic =    24.1634   Anisotropy =     4.9708

     43  H    Isotropic =    23.3944   Anisotropy =     7.0497

     44  H    Isotropic =    26.1058   Anisotropy =     9.2408

     45  H    Isotropic =    28.4664   Anisotropy =     7.4780

     46  H    Isotropic =    23.9035   Anisotropy =     8.6482

     47  H    Isotropic =    24.3908   Anisotropy =     5.0351

     48  H    Isotropic =    24.1746   Anisotropy =     5.5943

     49  H    Isotropic =    23.3707   Anisotropy =     7.7878

     50  H    Isotropic =    23.8343   Anisotropy =     8.9464

     51  H    Isotropic =    24.3320   Anisotropy =     5.1797

     52  H    Isotropic =    24.1962   Anisotropy =     5.0139

     53  H    Isotropic =    23.4279   Anisotropy =     7.0464

 The electronic state is 1-A.
 Alpha  occ. eigenvalues --  -88.90758 -88.90200 -88.89927 -88.89459 -77.08895
 Alpha  occ. eigenvalues --  -77.08497 -14.34002 -14.33824 -14.33663 -14.32758
 Alpha  occ. eigenvalues --  -10.26189 -10.25924 -10.25658 -10.25593 -10.25327
 Alpha  occ. eigenvalues --  -10.25253 -10.23850 -10.23022 -10.22647 -10.22488
 Alpha  occ. eigenvalues --  -10.22412 -10.22251 -10.22031 -10.21825 -10.21677
 Alpha  occ. eigenvalues --  -10.20595 -10.20394 -10.19936 -10.19821 -10.19372
 Alpha  occ. eigenvalues --  -10.19290 -10.19235 -10.19231 -10.19141 -10.19059
 Alpha  occ. eigenvalues --  -10.18956 -10.18588 -10.18475 -10.18344  -7.98297
 Alpha  occ. eigenvalues --   -7.97795  -7.97527  -7.97034  -6.57391  -6.57008
 Alpha  occ. eigenvalues --   -5.94551  -5.94207  -5.94042  -5.93896  -5.93773
 Alpha  occ. eigenvalues --   -5.93703  -5.93434  -5.93399  -5.93294  -5.93132
 Alpha  occ. eigenvalues --   -5.92952  -5.92617  -4.73534  -4.73522  -4.73152
 Alpha  occ. eigenvalues --   -4.73137  -4.73022  -4.72637  -0.98949  -0.98281
 Alpha  occ. eigenvalues --   -0.98122  -0.97568  -0.90401  -0.86956  -0.86830
 Alpha  occ. eigenvalues --   -0.86245  -0.82128  -0.81445  -0.81228  -0.80578
 Alpha  occ. eigenvalues --   -0.79233  -0.76873  -0.76616  -0.75959  -0.75736
 Alpha  occ. eigenvalues --   -0.75096  -0.74645  -0.73886  -0.73625  -0.68164
 Alpha  occ. eigenvalues --   -0.65454  -0.63666  -0.63448  -0.61542  -0.61484
 Alpha  occ. eigenvalues --   -0.61323  -0.61006  -0.60686  -0.59912  -0.58375
 Alpha  occ. eigenvalues --   -0.57592  -0.54791  -0.54605  -0.52029  -0.50654
 Alpha  occ. eigenvalues --   -0.50512  -0.50092  -0.49895  -0.49788  -0.49331
 Alpha  occ. eigenvalues --   -0.48797  -0.48416  -0.48226  -0.46585  -0.45713
 Alpha  occ. eigenvalues --   -0.45536  -0.45364  -0.45131  -0.44956  -0.44147
 Alpha  occ. eigenvalues --   -0.43979  -0.43364  -0.42828  -0.41769  -0.41432
 Alpha  occ. eigenvalues --   -0.41118  -0.40807  -0.40170  -0.39450  -0.38762
 Alpha  occ. eigenvalues --   -0.38596  -0.38478  -0.38031  -0.36935  -0.36472
 Alpha  occ. eigenvalues --   -0.35999  -0.35692  -0.35498  -0.35081  -0.34951
 Alpha  occ. eigenvalues --   -0.34667  -0.33160  -0.32024  -0.31843  -0.31229
 Alpha  occ. eigenvalues --   -0.30515  -0.29522  -0.29306  -0.28971  -0.28730
 Alpha  occ. eigenvalues --   -0.27559  -0.26686  -0.26629  -0.25917  -0.25603
 Alpha  occ. eigenvalues --   -0.25376  -0.25193  -0.24615  -0.24527  -0.22132
 Alpha virt. eigenvalues --   -0.12392  -0.10949  -0.07344  -0.06744  -0.06384
 Alpha virt. eigenvalues --   -0.05201  -0.03072  -0.02908  -0.02329  -0.02211
 Alpha virt. eigenvalues --   -0.01998  -0.01531  -0.01043  -0.00691  -0.00032

 Mulliken charges:
               1
     1  C    0.066785
     2  S    0.062114
     3  C    0.056403
     4  C   -0.163214
     5  C    0.055633
     6  C    0.048560
     7  C   -0.108927
     8  C    0.089308
     9  N   -0.220138
    10  C    0.016941
    11  S    0.001007
    12  C    0.044978
    13  C   -0.178398
    14  C   -0.103325
    15  C   -0.073170
    16  C   -0.237082
    17  C    0.162008
    18  N   -0.183465
    19  P    0.194517
    20  C   -0.360924
    21  P    0.183231
    22  C    0.062382
    23  S    0.017736
    24  C    0.041070
    25  C   -0.179253
    26  C   -0.106503
    27  C   -0.076944
    28  C   -0.241832
    29  C    0.160419
    30  N   -0.221066
    31  C    0.003387
    32  S    0.003966
    33  C    0.046586
    34  C   -0.179572
    35  C   -0.103674
    36  C   -0.073283
    37  C   -0.237141
    38  C    0.156142
    39  N   -0.166967
    40  H    0.121686
    41  H    0.116211
    42  H    0.116295
    43  H    0.118264
    44  H    0.194963
    45  H    0.140925
    46  H    0.119455
    47  H    0.112926
    48  H    0.112711
    49  H    0.118601
    50  H    0.121286
    51  H    0.115506
    52  H    0.115610
    53  H    0.117265
 Sum of Mulliken charges =  -0.00000

 Dipole moment (field-independent basis, Debye):
    X=              1.1882    Y=             -3.0376    Z=              3.0030  Tot=              4.4336
 Quadrupole moment (field-independent basis, Debye-Ang):
   XX=           -239.8418   YY=           -238.3255   ZZ=           -263.2745
   XY=             11.1115   XZ=             -2.2446   YZ=             -3.3585

 Summary of Natural Population Analysis:

                                       Natural Population
                Natural  -----------------------------------------------
    Atom  No    Charge         Core      Valence    Rydberg      Total
 -----------------------------------------------------------------------
      C    1   -0.21996      1.99930     4.17828    0.04237     6.21996
      S    2    0.45521      9.99880     5.51670    0.02929    15.54479
      C    3   -0.27659      1.99882     4.24000    0.03777     6.27659
      C    4   -0.06330      1.99748     4.04034    0.02548     6.06330
      C    5    0.08708      1.99758     3.89187    0.02347     5.91292
      C    6   -0.01876      1.99717     3.99637    0.02522     6.01876
      C    7    0.07558      1.99760     3.90452    0.02229     5.92442
      C    8    0.03294      1.99883     3.93818    0.03005     5.96706
      N    9   -0.42124      1.99924     5.38368    0.03832     7.42124
      C   10   -0.23499      1.99930     4.19310    0.04259     6.23499
      S   11    0.37705      9.99886     5.59509    0.02900    15.62295
      C   12   -0.20959      1.99882     4.17987    0.03090     6.20959
      C   13   -0.21077      1.99905     4.19176    0.01996     6.21077
      C   14   -0.19115      1.99922     4.17362    0.01832     6.19115
      C   15   -0.20792      1.99921     4.18975    0.01896     6.20792
      C   16   -0.17896      1.99907     4.16079    0.01909     6.17896
      C   17    0.07665      1.99891     3.89853    0.02590     5.92335
      N   18   -0.39159      1.99930     5.35487    0.03742     7.39159
      P   19    0.86534      9.99797     4.10212    0.03457    14.13466
      C   20   -1.01511      1.99943     4.98133    0.03436     7.01511
      P   21    0.85116      9.99796     4.11643    0.03445    14.14884
      C   22   -0.21229      1.99930     4.17079    0.04220     6.21229
      S   23    0.38927      9.99888     5.58360    0.02825    15.61073
      C   24   -0.21235      1.99881     4.18285    0.03070     6.21235
      C   25   -0.21124      1.99905     4.19219    0.02000     6.21124
      C   26   -0.19801      1.99921     4.18032    0.01847     6.19801
      C   27   -0.20916      1.99921     4.19091    0.01904     6.20916
      C   28   -0.18532      1.99907     4.16711    0.01913     6.18532
      C   29    0.08302      1.99892     3.89215    0.02591     5.91698
      N   30   -0.42990      1.99926     5.39252    0.03812     7.42990
      C   31   -0.23225      1.99931     4.19034    0.04260     6.23225
      S   32    0.37604      9.99886     5.59623    0.02886    15.62396
      C   33   -0.21005      1.99882     4.18029    0.03094     6.21005
      C   34   -0.21133      1.99905     4.19228    0.02000     6.21133
      C   35   -0.19130      1.99922     4.17373    0.01835     6.19130
      C   36   -0.20942      1.99921     4.19123    0.01898     6.20942
      C   37   -0.17818      1.99907     4.16001    0.01910     6.17818
      C   38    0.07514      1.99891     3.89995    0.02600     5.92486
      N   39   -0.38614      1.99930     5.34925    0.03759     7.38614
      H   40    0.21681      0.00000     0.78165    0.00153     0.78319
      H   41    0.21284      0.00000     0.78603    0.00113     0.78716
      H   42    0.21392      0.00000     0.78499    0.00109     0.78608
      H   43    0.22592      0.00000     0.77275    0.00133     0.77408
      H   44    0.31191      0.00000     0.68540    0.00269     0.68809
      H   45    0.25984      0.00000     0.73816    0.00200     0.74016
      H   46    0.21586      0.00000     0.78260    0.00154     0.78414
      H   47    0.21144      0.00000     0.78743    0.00114     0.78856
      H   48    0.21199      0.00000     0.78690    0.00111     0.78801
      H   49    0.22381      0.00000     0.77483    0.00136     0.77619
      H   50    0.21651      0.00000     0.78195    0.00154     0.78349
      H   51    0.21245      0.00000     0.78642    0.00114     0.78755
      H   52    0.21344      0.00000     0.78546    0.00110     0.78656
      H   53    0.22562      0.00000     0.77305    0.00134     0.77438
 =======================================================================
   * Total *   -0.00000    125.95539   182.92055    1.12406   310.00000

 1\1\GINC-G4NODEC5\SP\RB3LYP\def2TZVP\C29H14N4P2S4\ROOT\24-Jan-2025\0\\
 # nmr=giao b3lyp/def2TZVP pop=nbo scfcyc=200\\MB-127 SPE NoRh\\0,1\C,0
 ,-2.361,1.81,0.588\S,0,-4.019,2.017,0.011\C,0,-4.016,3.637,0.674\C,0,-
 4.987,4.62,0.704\C,0,-4.629,5.684,1.286\C,0,-3.484,5.986,1.873\C,0,-2.
 56,5.13,1.879\C,0,-2.692,3.874,1.303\N,0,-1.836,2.816,1.206\C,0,-2.522
 ,-1.054,0.733\S,0,-2.701,-1.619,2.408\C,0,-3.956,-2.709,1.843\C,0,-4.7
 13,-3.626,2.569\C,0,-5.657,-4.372,1.88\C,0,-5.845,-4.214,0.498\C,0,-5.
 092,-3.307,-0.223\C,0,-4.133,-2.543,0.452\N,0,-3.302,-1.607,-0.135\P,0

 Normal termination of Gaussian 16 at Fri Jan 24 03:56:09 2025.
