 Gaussian 16, Revision B.01,
 Gaussian 16:  ES64L-G16RevB.01 20-Dec-2017

 --------------------------------------------
 # nmr=giao b3lyp/def2TZVP pop=nbo scfcyc=200
 --------------------------------------------

 ---------------
 MB-121 SPE NoRh
 ---------------
 Symbolic Z-matrix:
 Charge =  0 Multiplicity = 1

                         Standard orientation:
 ---------------------------------------------------------------------
 Center     Atomic      Atomic             Coordinates (Angstroms)
 Number     Number       Type             X           Y           Z
 ---------------------------------------------------------------------
      1         15           0        1.488856    0.154123   -0.712594
      2         15           0       -1.255689    0.380034   -0.231222
      3          7           0        1.531901    3.254165   -0.599168
      4          1           0        0.846076    2.728371   -1.134300
      5          7           0        2.879182   -1.083076    1.835455
      6          1           0        3.050641   -0.131216    1.553144
      7          7           0       -4.202528    0.657372   -0.985237
      8          1           0       -3.826386   -0.248215   -0.742500
      9          7           0       -1.870668   -2.371707   -1.775498
     10          1           0       -1.276929   -1.618391   -2.101691
     11          6           0        0.344340    0.552244    0.724913
     12          1           0        0.443823   -0.110315    1.581262
     13          1           0        0.518567    1.581658    1.027729
     14          6           0        2.951209    1.269594   -0.617481
     15          6           0        2.795389    2.682061   -0.578117
     16          6           0        3.951200    3.473831   -0.482275
     17          1           0        3.861310    4.549514   -0.428058
     18          6           0        5.214377    2.901337   -0.479710
     19          1           0        6.084434    3.542168   -0.411901
     20          6           0        5.370038    1.522734   -0.584642
     21          1           0        6.355639    1.076520   -0.607269
     22          6           0        4.239559    0.722886   -0.656778
     23          1           0        4.354991   -0.350872   -0.734509
     24          6           0        1.344912    4.696273   -0.663654
     25          1           0        0.276680    4.901626   -0.699476
     26          1           0        1.821179    5.155794   -1.538790
     27          1           0        1.742916    5.173301    0.233072
     28          6           0        2.081887   -1.552185   -0.425656
     29          6           0        2.657358   -1.975133    0.806236
     30          6           0        2.959521   -3.340099    0.955871
     31          1           0        3.385824   -3.694003    1.882978
     32          6           0        2.738724   -4.242637   -0.071900
     33          1           0        2.994585   -5.283897    0.078623
     34          6           0        2.208864   -3.824369   -1.289207
     35          1           0        2.051064   -4.527769   -2.096284
     36          6           0        1.880988   -2.487131   -1.446588
     37          1           0        1.445650   -2.150706   -2.378476
     38          6           0        3.555683   -1.467430    3.065805
     39          1           0        3.633062   -0.587547    3.701749
     40          1           0        4.564553   -1.860775    2.894810
     41          1           0        2.976412   -2.217815    3.605362
     42          6           0       -2.421889    1.692306    0.318876
     43          6           0       -3.756463    1.690907   -0.171848
     44          6           0       -4.584039    2.778116    0.150579
     45          1           0       -5.601086    2.801621   -0.212354
     46          6           0       -4.125590    3.818386    0.945227
     47          1           0       -4.792285    4.638166    1.179156
     48          6           0       -2.832092    3.804584    1.452434
     49          1           0       -2.478238    4.603934    2.089797
     50          6           0       -1.994582    2.743857    1.133014
     51          1           0       -0.987228    2.748278    1.526789
     52          6           0       -5.583263    0.596789   -1.443429
     53          1           0       -5.707312   -0.309195   -2.034221
     54          1           0       -5.811371    1.447942   -2.086507
     55          1           0       -6.309943    0.575965   -0.622807
     56          6           0       -1.983693   -1.207414    0.372931
     57          6           0       -2.165382   -2.363120   -0.432117
     58          6           0       -2.712427   -3.509606    0.183016
     59          1           0       -2.858551   -4.406607   -0.400994
     60          6           0       -3.065781   -3.511014    1.519807
     61          1           0       -3.483006   -4.411682    1.952639
     62          6           0       -2.892163   -2.374942    2.307932
     63          1           0       -3.171580   -2.374006    3.352945
     64          6           0       -2.353135   -1.241110    1.724304
     65          1           0       -2.225402   -0.349953    2.327409
     66          6           0       -1.854213   -3.584329   -2.572246
     67          1           0       -1.529328   -3.328867   -3.578852
     68          1           0       -2.852673   -4.019442   -2.650446
     69          1           0       -1.174831   -4.345541   -2.171429
 ---------------------------------------------------------------------

 SCF Done:  E(RB3LYP) =  -2027.79825512     A.U. after   15 cycles

      1  P    Isotropic =   263.1710   Anisotropy =    68.3634

      2  P    Isotropic =   270.1900   Anisotropy =    93.2688

      3  N    Isotropic =   175.7094   Anisotropy =    51.1749

      4  H    Isotropic =    28.6889   Anisotropy =    10.8450

      5  N    Isotropic =   174.8041   Anisotropy =    45.8327

      6  H    Isotropic =    28.3515   Anisotropy =    13.6829

      7  N    Isotropic =   181.0180   Anisotropy =    37.0403

      8  H    Isotropic =    29.0536   Anisotropy =    19.0568

      9  N    Isotropic =   180.0037   Anisotropy =    60.1494

     10  H    Isotropic =    26.6669   Anisotropy =    11.2369

     11  C    Isotropic =   161.5994   Anisotropy =    24.2969

     12  H    Isotropic =    29.6657   Anisotropy =     6.8522

     13  H    Isotropic =    28.2027   Anisotropy =     8.7850

     14  C    Isotropic =    53.6785   Anisotropy =   153.6768

     15  C    Isotropic =    27.2379   Anisotropy =   168.8433

     16  C    Isotropic =    69.1198   Anisotropy =   156.6871

     17  H    Isotropic =    25.0833   Anisotropy =     8.9477

     18  C    Isotropic =    50.2963   Anisotropy =   179.8823

     19  H    Isotropic =    24.5643   Anisotropy =     4.4703

     20  C    Isotropic =    61.2570   Anisotropy =   165.3684

     21  H    Isotropic =    25.1522   Anisotropy =     6.2512

     22  C    Isotropic =    50.4188   Anisotropy =   175.3755

     23  H    Isotropic =    25.0726   Anisotropy =    13.0674

     24  C    Isotropic =   151.2432   Anisotropy =    43.6275

     25  H    Isotropic =    28.9464   Anisotropy =     6.9502

     26  H    Isotropic =    29.2256   Anisotropy =    10.7482

     27  H    Isotropic =    29.0506   Anisotropy =     8.9494

     28  C    Isotropic =    61.2693   Anisotropy =   149.9622

     29  C    Isotropic =    24.2467   Anisotropy =   177.5529

     30  C    Isotropic =    69.3591   Anisotropy =   157.6460

     31  H    Isotropic =    25.3052   Anisotropy =     8.0114

     32  C    Isotropic =    45.1976   Anisotropy =   189.1476

     33  H    Isotropic =    24.3661   Anisotropy =     4.2032

     34  C    Isotropic =    63.3073   Anisotropy =   163.4072

     35  H    Isotropic =    24.9424   Anisotropy =     4.7348

     36  C    Isotropic =    38.1431   Anisotropy =   173.5312

     37  H    Isotropic =    23.9816   Anisotropy =     7.4315

     38  C    Isotropic =   151.7427   Anisotropy =    45.1753

     39  H    Isotropic =    29.2897   Anisotropy =     9.1478

     40  H    Isotropic =    29.3708   Anisotropy =    10.8169

     41  H    Isotropic =    29.3496   Anisotropy =     9.3679

     42  C    Isotropic =    50.6155   Anisotropy =   163.3132

     43  C    Isotropic =    28.2896   Anisotropy =   167.3888

     44  C    Isotropic =    68.7206   Anisotropy =   157.8242

     45  H    Isotropic =    25.2209   Anisotropy =     8.7818

     46  C    Isotropic =    50.6629   Anisotropy =   179.8217

     47  H    Isotropic =    24.5109   Anisotropy =     4.4858

     48  C    Isotropic =    62.4602   Anisotropy =   163.6250

     49  H    Isotropic =    24.8365   Anisotropy =     5.8440

     50  C    Isotropic =    50.4838   Anisotropy =   179.9625

     51  H    Isotropic =    24.0505   Anisotropy =    10.8020

     52  C    Isotropic =   151.3137   Anisotropy =    45.0120

     53  H    Isotropic =    29.2977   Anisotropy =     8.6395

     54  H    Isotropic =    29.2857   Anisotropy =    10.2404

     55  H    Isotropic =    29.5220   Anisotropy =    10.3263

     56  C    Isotropic =    59.3372   Anisotropy =   156.1463

     57  C    Isotropic =    24.0851   Anisotropy =   179.3371

     58  C    Isotropic =    71.4535   Anisotropy =   154.5738

     59  H    Isotropic =    25.5105   Anisotropy =     7.6725

     60  C    Isotropic =    47.0796   Anisotropy =   186.2164

     61  H    Isotropic =    24.7359   Anisotropy =     3.8664

     62  C    Isotropic =    62.2270   Anisotropy =   163.9549

     63  H    Isotropic =    25.3759   Anisotropy =     5.3363

     64  C    Isotropic =    37.3613   Anisotropy =   184.9655

     65  H    Isotropic =    24.5205   Anisotropy =    11.1131

     66  C    Isotropic =   151.6809   Anisotropy =    43.3598

     67  H    Isotropic =    28.8671   Anisotropy =     8.2335

     68  H    Isotropic =    29.0554   Anisotropy =    10.4303

     69  H    Isotropic =    29.2557   Anisotropy =     8.4189

 The electronic state is 1-A.
 Alpha  occ. eigenvalues --  -77.04627 -77.04396 -14.33029 -14.32863 -14.32649
 Alpha  occ. eigenvalues --  -14.31841 -10.22036 -10.22022 -10.21575 -10.20870
 Alpha  occ. eigenvalues --  -10.20538 -10.20309 -10.20129 -10.19572 -10.17792
 Alpha  occ. eigenvalues --  -10.17701 -10.17678 -10.17673 -10.17580 -10.17343
 Alpha  occ. eigenvalues --  -10.17280 -10.17227 -10.17142 -10.16973 -10.16921
 Alpha  occ. eigenvalues --  -10.16873 -10.16715 -10.16613 -10.16581 -10.16437
 Alpha  occ. eigenvalues --  -10.16437 -10.16072 -10.16021 -10.15948 -10.15674
 Alpha  occ. eigenvalues --   -6.53192  -6.52944  -4.69337  -4.69313  -4.69105
 Alpha  occ. eigenvalues --   -4.69060  -4.68848  -4.68592  -0.94128  -0.93752
 Alpha  occ. eigenvalues --   -0.93699  -0.92851  -0.84666  -0.84303  -0.84169
 Alpha  occ. eigenvalues --   -0.83702  -0.77445  -0.76051  -0.74575  -0.74526
 Alpha  occ. eigenvalues --   -0.74357  -0.74040  -0.73959  -0.73609  -0.71940
 Alpha  occ. eigenvalues --   -0.68789  -0.68407  -0.68344  -0.67674  -0.63971
 Alpha  occ. eigenvalues --   -0.62225  -0.60921  -0.60344  -0.59340  -0.58954
 Alpha  occ. eigenvalues --   -0.58898  -0.58465  -0.56465  -0.55381  -0.53322
 Alpha  occ. eigenvalues --   -0.52766  -0.51380  -0.51099  -0.49982  -0.49467
 Alpha  occ. eigenvalues --   -0.49344  -0.48927  -0.46832  -0.46550  -0.46061
 Alpha  occ. eigenvalues --   -0.45574  -0.45546  -0.45117  -0.44807  -0.44455
 Alpha  occ. eigenvalues --   -0.44286  -0.43848  -0.43705  -0.43678  -0.42972
 Alpha  occ. eigenvalues --   -0.42581  -0.42500  -0.41969  -0.41333  -0.41221
 Alpha  occ. eigenvalues --   -0.40244  -0.39657  -0.39452  -0.39249  -0.39067
 Alpha  occ. eigenvalues --   -0.38544  -0.37942  -0.37561  -0.37341  -0.37175
 Alpha  occ. eigenvalues --   -0.36777  -0.36187  -0.35708  -0.35288  -0.35104
 Alpha  occ. eigenvalues --   -0.34026  -0.32376  -0.32161  -0.31904  -0.30449
 Alpha  occ. eigenvalues --   -0.30321  -0.29850  -0.29413  -0.26867  -0.26306
 Alpha  occ. eigenvalues --   -0.25922  -0.24854  -0.22529  -0.21199  -0.20788
 Alpha  occ. eigenvalues --   -0.20291  -0.19854  -0.17952
 Alpha virt. eigenvalues --   -0.03104  -0.02286  -0.01787  -0.01061  -0.00231
 Alpha virt. eigenvalues --    0.00278   0.00506   0.00934   0.01714   0.02903
 Alpha virt. eigenvalues --    0.03379   0.03867   0.04497   0.04976   0.05087

 Mulliken charges:
               1
     1  P    0.088940
     2  P    0.126800
     3  N   -0.317129
     4  H    0.224679
     5  N   -0.266348
     6  H    0.229209
     7  N   -0.277083
     8  H    0.227194
     9  N   -0.248588
    10  H    0.208754
    11  C   -0.372195
    12  H    0.155516
    13  H    0.154287
    14  C   -0.088319
    15  C    0.216180
    16  C   -0.277823
    17  H    0.110461
    18  C   -0.097817
    19  H    0.101972
    20  C   -0.159399
    21  H    0.100508
    22  C   -0.127333
    23  H    0.136328
    24  C   -0.289751
    25  H    0.145814
    26  H    0.120736
    27  H    0.125320
    28  C   -0.084822
    29  C    0.269722
    30  C   -0.311701
    31  H    0.109174
    32  C   -0.067197
    33  H    0.105189
    34  C   -0.177106
    35  H    0.100578
    36  C   -0.095811
    37  H    0.108596
    38  C   -0.272401
    39  H    0.128131
    40  H    0.118527
    41  H    0.129863
    42  C   -0.099501
    43  C    0.286314
    44  C   -0.284567
    45  H    0.106692
    46  C   -0.091537
    47  H    0.099229
    48  C   -0.175000
    49  H    0.095242
    50  C   -0.141875
    51  H    0.099769
    52  C   -0.279419
    53  H    0.126419
    54  H    0.125578
    55  H    0.116735
    56  C   -0.179109
    57  C    0.286758
    58  C   -0.302891
    59  H    0.107716
    60  C   -0.063756
    61  H    0.103612
    62  C   -0.193269
    63  H    0.097439
    64  C   -0.089132
    65  H    0.131973
    66  C   -0.271483
    67  H    0.127214
    68  H    0.122525
    69  H    0.126670
 Sum of Mulliken charges =  -0.00000

 Dipole moment (field-independent basis, Debye):
    X=              0.1439    Y=             -1.0854    Z=              0.8103  Tot=              1.3622
 Quadrupole moment (field-independent basis, Debye-Ang):
   XX=           -217.0402   YY=           -206.3080   ZZ=           -218.7202
   XY=              3.6364   XZ=             12.4239   YZ=              4.3305

 Summary of Natural Population Analysis:

                                       Natural Population
                Natural  -----------------------------------------------
    Atom  No    Charge         Core      Valence    Rydberg      Total
 -----------------------------------------------------------------------
      P    1    0.79712      9.99819     4.17017    0.03451    14.20288
      P    2    0.78877      9.99815     4.17792    0.03516    14.21123
      N    3   -0.58189      1.99948     5.55824    0.02416     7.58189
      H    4    0.38701      0.00000     0.61014    0.00285     0.61299
      N    5   -0.57383      1.99947     5.55051    0.02385     7.57383
      H    6    0.39770      0.00000     0.59951    0.00279     0.60230
      N    7   -0.57034      1.99947     5.54618    0.02469     7.57034
      H    8    0.39401      0.00000     0.60386    0.00213     0.60599
      N    9   -0.56902      1.99947     5.54668    0.02288     7.56902
      H   10    0.40275      0.00000     0.59494    0.00231     0.59725
      C   11   -1.00111      1.99943     4.96926    0.03242     7.00111
      H   12    0.25380      0.00000     0.74322    0.00298     0.74620
      H   13    0.25787      0.00000     0.74020    0.00193     0.74213
      C   14   -0.37455      1.99894     4.34577    0.02984     6.37455
      C   15    0.15639      1.99895     3.82377    0.02089     5.84361
      C   16   -0.26930      1.99909     4.25051    0.01970     6.26930
      H   17    0.20881      0.00000     0.78967    0.00151     0.79119
      C   18   -0.18855      1.99920     4.16972    0.01963     6.18855
      H   19    0.20531      0.00000     0.79349    0.00120     0.79469
      C   20   -0.24530      1.99916     4.22624    0.01989     6.24530
      H   21    0.20744      0.00000     0.79132    0.00124     0.79256
      C   22   -0.20239      1.99910     4.18349    0.01980     6.20239
      H   23    0.21476      0.00000     0.78353    0.00171     0.78524
      C   24   -0.40012      1.99939     4.38986    0.01088     6.40012
      H   25    0.21128      0.00000     0.78742    0.00129     0.78872
      H   26    0.17616      0.00000     0.82095    0.00289     0.82384
      H   27    0.19085      0.00000     0.80717    0.00198     0.80915
      C   28   -0.39142      1.99895     4.36175    0.03072     6.39142
      C   29    0.17936      1.99892     3.79975    0.02197     5.82064
      C   30   -0.27498      1.99910     4.25624    0.01964     6.27498
      H   31    0.20842      0.00000     0.79003    0.00155     0.79158
      C   32   -0.16601      1.99920     4.14776    0.01905     6.16601
      H   33    0.20619      0.00000     0.79261    0.00120     0.79381
      C   34   -0.25977      1.99916     4.24031    0.02030     6.25977
      H   35    0.20812      0.00000     0.79063    0.00125     0.79188
      C   36   -0.16387      1.99911     4.14385    0.02092     6.16387
      H   37    0.20959      0.00000     0.78845    0.00196     0.79041
      C   38   -0.39883      1.99938     4.38885    0.01059     6.39883
      H   39    0.20522      0.00000     0.79365    0.00113     0.79478
      H   40    0.17755      0.00000     0.81947    0.00298     0.82245
      H   41    0.19295      0.00000     0.80497    0.00208     0.80705
      C   42   -0.35763      1.99894     4.32876    0.02993     6.35763
      C   43    0.16238      1.99894     3.81799    0.02070     5.83762
      C   44   -0.26776      1.99909     4.24902    0.01965     6.26776
      H   45    0.20773      0.00000     0.79073    0.00155     0.79227
      C   46   -0.19058      1.99920     4.17168    0.01970     6.19058
      H   47    0.20408      0.00000     0.79472    0.00121     0.79592
      C   48   -0.24881      1.99917     4.22946    0.02018     6.24881
      H   49    0.20478      0.00000     0.79397    0.00125     0.79522
      C   50   -0.19899      1.99909     4.18050    0.01940     6.19899
      H   51    0.19952      0.00000     0.79824    0.00224     0.80048
      C   52   -0.39799      1.99939     4.38823    0.01038     6.39799
      H   53    0.20344      0.00000     0.79538    0.00118     0.79656
      H   54    0.19147      0.00000     0.80648    0.00204     0.80853
      H   55    0.17364      0.00000     0.82334    0.00301     0.82636
      C   56   -0.40277      1.99895     4.37213    0.03169     6.40277
      C   57    0.17530      1.99893     3.80315    0.02262     5.82470
      C   58   -0.27786      1.99910     4.25908    0.01967     6.27786
      H   59    0.20878      0.00000     0.78976    0.00146     0.79122
      C   60   -0.16787      1.99920     4.14955    0.01913     6.16787
      H   61    0.20548      0.00000     0.79332    0.00120     0.79452
      C   62   -0.25878      1.99917     4.23937    0.02024     6.25878
      H   63    0.20771      0.00000     0.79102    0.00127     0.79229
      C   64   -0.16563      1.99910     4.14621    0.02032     6.16563
      H   65    0.20888      0.00000     0.78870    0.00242     0.79112
      C   66   -0.39910      1.99938     4.38898    0.01075     6.39910
      H   67    0.20475      0.00000     0.79409    0.00116     0.79525
      H   68    0.18730      0.00000     0.81044    0.00226     0.81270
      H   69    0.18234      0.00000     0.81456    0.00310     0.81766
 =======================================================================
   * Total *    0.00000     85.96896   179.20090    0.83015   266.00000

 Normal termination of Gaussian 16 at Fri Jan 24 03:35:16 2025.
