 Gaussian 16, Revision B.01,
 Gaussian 16:  ES64L-G16RevB.01 20-Dec-2017

 --------------------------------------------
 # nmr=giao b3lyp/def2TZVP pop=nbo scfcyc=200
 --------------------------------------------

 ---------------
 MB-137 SPE NoRh
 ---------------
 Symbolic Z-matrix:
 Charge =  0 Multiplicity = 1

                         Standard orientation:
 ---------------------------------------------------------------------
 Center     Atomic      Atomic             Coordinates (Angstroms)
 Number     Number       Type             X           Y           Z
 ---------------------------------------------------------------------
      1         15           0        1.409165   -1.146029    1.218279
      2          6           0        1.717885   -1.387971   -0.578285
      3          6           0        2.017933   -2.674976   -1.038725
      4          6           0        2.294357   -2.892610   -2.382649
      5          6           0        2.268748   -1.831249   -3.281264
      6          6           0        1.967696   -0.548577   -2.832015
      7          6           0        1.694218   -0.325168   -1.487106
      8          1           0        1.461442    0.680172   -1.161272
      9          1           0        1.945314    0.280448   -3.527295
     10          1           0        2.479969   -2.001846   -4.329241
     11          1           0        2.526984   -3.891947   -2.729025
     12          1           0        2.033325   -3.506446   -0.346786
     13          6           0        0.133949    0.210674    1.353127
     14         15           0       -1.345316   -0.919078    1.445851
     15          1           0        0.278184    0.698597    2.318096
     16          1           0        0.110944    0.965340    0.570788
     17          6           0       -2.668651   -0.089456    2.404898
     18          6           0       -3.796597   -0.832025    2.778906
     19          6           0       -2.591795    1.261893    2.756727
     20          6           0       -4.826684   -0.229729    3.490087
     21          1           0       -3.883240   -1.875356    2.503245
     22          6           0       -3.621770    1.856662    3.476174
     23          1           0       -1.739053    1.860482    2.465223
     24          6           0       -4.737731    1.112986    3.844173
     25          1           0       -5.696669   -0.809769    3.769076
     26          1           0       -3.554217    2.904021    3.740639
     27          1           0       -5.539091    1.579760    4.402845
     28          6           0        3.033156   -0.348107    1.905372
     29          1           0        2.915320   -0.396726    2.990789
     30          8           0        3.029723    1.022761    1.541134
     31          6           0        5.081986   -0.521028    0.503800
     32          5           0        3.846447    1.521718    0.548465
     33          8           0        4.809185    0.715941   -0.024091
     34          6           0        3.682572    2.990272    0.081184
     35          6           0        2.750500    3.845303    0.691523
     36          6           0        4.469920    3.505311   -0.960560
     37          6           0        2.611381    5.163758    0.278972
     38          1           0        2.141740    3.473153    1.506510
     39          6           0        4.329787    4.822527   -1.379064
     40          1           0        5.199343    2.866953   -1.442231
     41          6           0        3.400002    5.653685   -0.758436
     42          1           0        1.894873    5.813312    0.767035
     43          1           0        4.946486    5.205398   -2.183186
     44          1           0        3.295201    6.682606   -1.080645
     45          6           0        8.540985   -2.549172   -0.823034
     46          6           0        7.743800   -3.114242    0.139413
     47          6           0        6.579992   -2.450080    0.598434
     48          6           0        6.252705   -1.178737    0.039069
     49          6           0        7.094811   -0.616620   -0.949054
     50          6           0        8.213876   -1.290232   -1.370106
     51          1           0        6.012376   -3.949181    2.050071
     52          1           0        9.428794   -3.065985   -1.164108
     53          1           0        7.997395   -4.077909    0.564999
     54          6           0        5.745817   -2.996941    1.606390
     55          1           0        6.844242    0.348814   -1.364605
     56          1           0        8.854246   -0.854215   -2.126153
     57          6           0        4.271728   -1.077538    1.469379
     58          6           0        4.630797   -2.327020    2.028865
     59          1           0        4.021449   -2.751049    2.817789
     60          6           0       -1.976596   -0.879918   -0.374187
     61          1           0       -1.136102   -1.268633   -0.951223
     62          8           0       -2.154922    0.478264   -0.740959
     63          6           0       -3.199134   -1.719705   -0.596128
     64          5           0       -3.409063    1.053034   -0.799443
     65          6           0       -4.425918   -1.106249   -0.713510
     66          6           0       -3.113386   -3.127980   -0.711651
     67          8           0       -4.536612    0.260812   -0.681755
     68          6           0       -3.554472    2.578664   -1.025068
     69          6           0       -5.618261   -1.855590   -0.910358
     70          6           0       -4.236577   -3.887161   -0.897223
     71          1           0       -2.138361   -3.598823   -0.664240
     72          6           0       -2.428421    3.397511   -1.195914
     73          6           0       -4.821835    3.180096   -1.072402
     74          6           0       -5.515228   -3.276928   -0.990829
     75          6           0       -6.887053   -1.241265   -1.026987
     76          1           0       -4.161105   -4.963155   -0.993113
     77          6           0       -2.560167    4.764692   -1.407531
     78          1           0       -1.439798    2.955349   -1.174589
     79          6           0       -4.958556    4.547522   -1.277680
     80          1           0       -5.706162    2.568336   -0.947313
     81          6           0       -6.697494   -4.031616   -1.182400
     82          6           0       -8.012166   -2.006996   -1.210029
     83          1           0       -6.955704   -0.164176   -0.970113
     84          6           0       -3.827244    5.341511   -1.446433
     85          1           0       -1.679931    5.380272   -1.544813
     86          1           0       -5.944293    4.995441   -1.311948
     87          6           0       -7.917284   -3.412474   -1.288045
     88          1           0       -6.623858   -5.110965   -1.248051
     89          1           0       -8.980425   -1.530754   -1.299190
     90          1           0       -3.932732    6.406238   -1.612026
     91          1           0       -8.814023   -4.001377   -1.436550
 ---------------------------------------------------------------------

 SCF Done:  E(RB3LYP) =  -2847.06533339     A.U. after   14 cycles

      1  P    Isotropic =   222.4219   Anisotropy =   104.0352

      2  C    Isotropic =    42.1638   Anisotropy =   205.6600

      3  C    Isotropic =    40.7001   Anisotropy =   185.8119

      4  C    Isotropic =    50.5097   Anisotropy =   186.2629

      5  C    Isotropic =    47.9720   Anisotropy =   191.6996

      6  C    Isotropic =    49.1258   Anisotropy =   188.3120

      7  C    Isotropic =    43.4719   Anisotropy =   198.2342

      8  H    Isotropic =    23.5644   Anisotropy =     5.9578

      9  H    Isotropic =    24.4285   Anisotropy =     6.2942

     10  H    Isotropic =    24.5299   Anisotropy =     3.6594

     11  H    Isotropic =    24.7186   Anisotropy =     3.8973

     12  H    Isotropic =    24.2956   Anisotropy =     6.9288

     13  C    Isotropic =   164.0719   Anisotropy =    17.9195

     14  P    Isotropic =   217.8331   Anisotropy =   126.2360

     15  H    Isotropic =    29.4194   Anisotropy =     6.1248

     16  H    Isotropic =    28.0822   Anisotropy =     5.5499

     17  C    Isotropic =    39.9533   Anisotropy =   197.3473

     18  C    Isotropic =    45.0904   Anisotropy =   188.8113

     19  C    Isotropic =    46.3597   Anisotropy =   187.4284

     20  C    Isotropic =    50.5171   Anisotropy =   185.3902

     21  H    Isotropic =    25.2957   Anisotropy =     8.6132

     22  C    Isotropic =    49.7389   Anisotropy =   186.1292

     23  H    Isotropic =    24.1850   Anisotropy =     9.5317

     24  C    Isotropic =    50.3868   Anisotropy =   187.0313

     25  H    Isotropic =    24.8652   Anisotropy =     6.0336

     26  H    Isotropic =    24.6102   Anisotropy =     6.2911

     27  H    Isotropic =    24.5664   Anisotropy =     3.7371

     28  C    Isotropic =    94.2367   Anisotropy =    31.5939

     29  H    Isotropic =    25.6089   Anisotropy =     5.6907

     30  O    Isotropic =   201.8421   Anisotropy =   185.0546

     31  C    Isotropic =    30.1488   Anisotropy =   127.3824

     32  B    Isotropic =    75.3726   Anisotropy =    18.8896

     33  O    Isotropic =   168.5366   Anisotropy =   278.0261

     34  C    Isotropic =    46.3286   Anisotropy =   211.5754

     35  C    Isotropic =    42.0791   Anisotropy =   199.5850

     36  C    Isotropic =    41.8115   Anisotropy =   199.3401

     37  C    Isotropic =    50.3558   Anisotropy =   183.8315

     38  H    Isotropic =    23.0794   Anisotropy =     9.8193

     39  C    Isotropic =    50.2121   Anisotropy =   183.6864

     40  H    Isotropic =    23.2286   Anisotropy =    10.3083

     41  C    Isotropic =    45.6936   Anisotropy =   189.4747

     42  H    Isotropic =    23.9096   Anisotropy =     6.2569

     43  H    Isotropic =    23.9978   Anisotropy =     5.9070

     44  H    Isotropic =    23.9175   Anisotropy =     5.0725

     45  C    Isotropic =    52.3161   Anisotropy =   179.9417

     46  C    Isotropic =    50.4684   Anisotropy =   161.7801

     47  C    Isotropic =    42.0065   Anisotropy =   212.5381

     48  C    Isotropic =    51.5414   Anisotropy =   190.3872

     49  C    Isotropic =    56.4605   Anisotropy =   185.4442

     50  C    Isotropic =    52.8488   Anisotropy =   178.3186

     51  H    Isotropic =    24.0934   Anisotropy =     7.1152

     52  H    Isotropic =    24.2133   Anisotropy =     5.0667

     53  H    Isotropic =    23.8726   Anisotropy =     7.6689

     54  C    Isotropic =    55.8259   Anisotropy =   152.5140

     55  H    Isotropic =    23.3655   Anisotropy =    11.5621

     56  H    Isotropic =    24.2016   Anisotropy =     6.7241

     57  C    Isotropic =    60.6090   Anisotropy =   153.5429

     58  C    Isotropic =    55.6137   Anisotropy =   167.5474

     59  H    Isotropic =    24.2834   Anisotropy =     9.0934

     60  C    Isotropic =    97.6674   Anisotropy =    33.2126

     61  H    Isotropic =    26.9517   Anisotropy =     9.7158

     62  O    Isotropic =   208.0496   Anisotropy =   176.7735

     63  C    Isotropic =    60.1519   Anisotropy =   149.7014

     64  B    Isotropic =    76.2077   Anisotropy =    17.6851

     65  C    Isotropic =    29.3641   Anisotropy =   126.9832

     66  C    Isotropic =    54.4978   Anisotropy =   165.0617

     67  O    Isotropic =   169.0361   Anisotropy =   274.6173

     68  C    Isotropic =    46.7481   Anisotropy =   211.3460

     69  C    Isotropic =    51.6773   Anisotropy =   189.5497

     70  C    Isotropic =    55.9796   Anisotropy =   151.2432

     71  H    Isotropic =    24.6760   Anisotropy =    10.4637

     72  C    Isotropic =    42.7789   Anisotropy =   198.1841

     73  C    Isotropic =    42.1830   Anisotropy =   198.5703

     74  C    Isotropic =    42.1331   Anisotropy =   211.2216

     75  C    Isotropic =    55.9394   Anisotropy =   184.8667

     76  H    Isotropic =    24.1989   Anisotropy =     8.5698

     77  C    Isotropic =    50.8606   Anisotropy =   182.8409

     78  H    Isotropic =    23.6017   Anisotropy =     9.3823

     79  C    Isotropic =    50.8247   Anisotropy =   182.4048

     80  H    Isotropic =    23.7798   Anisotropy =    10.6026

     81  C    Isotropic =    50.5671   Anisotropy =   161.3473

     82  C    Isotropic =    52.9062   Anisotropy =   179.0294

     83  H    Isotropic =    23.4598   Anisotropy =    11.9444

     84  C    Isotropic =    46.5836   Anisotropy =   188.8697

     85  H    Isotropic =    24.2713   Anisotropy =     7.2759

     86  H    Isotropic =    24.3193   Anisotropy =     5.7103

     87  C    Isotropic =    52.3679   Anisotropy =   179.7314

     88  H    Isotropic =    23.8768   Anisotropy =     8.2520

     89  H    Isotropic =    24.2064   Anisotropy =     6.6835

     90  H    Isotropic =    24.1967   Anisotropy =     5.5321

     91  H    Isotropic =    24.1973   Anisotropy =     5.2187

 The electronic state is 1-A.
 Alpha  occ. eigenvalues --  -77.05235 -77.05016 -19.15850 -19.15552 -19.14688
 Alpha  occ. eigenvalues --  -19.14387 -10.24713 -10.24473 -10.24407 -10.24215
 Alpha  occ. eigenvalues --  -10.19167 -10.19039 -10.18949 -10.18948 -10.18895
 Alpha  occ. eigenvalues --  -10.18889 -10.18832 -10.18683 -10.18440 -10.18417
 Alpha  occ. eigenvalues --  -10.18416 -10.18394 -10.18358 -10.18273 -10.18208
 Alpha  occ. eigenvalues --  -10.18204 -10.18180 -10.18003 -10.17980 -10.17976
 Alpha  occ. eigenvalues --  -10.17914 -10.17900 -10.17871 -10.17869 -10.17865
 Alpha  occ. eigenvalues --  -10.17844 -10.17837 -10.17819 -10.17813 -10.17807
 Alpha  occ. eigenvalues --  -10.17784 -10.17768 -10.17706 -10.17692 -10.17653
 Alpha  occ. eigenvalues --  -10.17627 -10.17602 -10.17557 -10.17551 -10.17441
 Alpha  occ. eigenvalues --  -10.17432 -10.16491 -10.16044  -6.78984  -6.78695
 Alpha  occ. eigenvalues --   -6.53793  -6.53598  -4.69951  -4.69900  -4.69753
 Alpha  occ. eigenvalues --   -4.69705  -4.69422  -4.69233  -1.07780  -1.07459
 Alpha  occ. eigenvalues --   -1.03326  -1.03007  -0.88171  -0.88022  -0.86570
 Alpha  occ. eigenvalues --   -0.85980  -0.85883  -0.85466  -0.83540  -0.83387
 Alpha  occ. eigenvalues --   -0.78362  -0.78004  -0.77520  -0.76748  -0.76177
 Alpha  occ. eigenvalues --   -0.75660  -0.75627  -0.75155  -0.75107  -0.75068
 Alpha  occ. eigenvalues --   -0.74764  -0.74699  -0.73476  -0.72926  -0.72721
 Alpha  occ. eigenvalues --   -0.69797  -0.68794  -0.64133  -0.63720  -0.63005
 Alpha  occ. eigenvalues --   -0.62833  -0.62645  -0.61812  -0.61466  -0.61312
 Alpha  occ. eigenvalues --   -0.61169  -0.60718  -0.60573  -0.60210  -0.59951
 Alpha  occ. eigenvalues --   -0.59629  -0.56701  -0.55579  -0.55165  -0.54971
 Alpha  occ. eigenvalues --   -0.53748  -0.53555  -0.53415  -0.53104  -0.51790
 Alpha  occ. eigenvalues --   -0.51631  -0.51399  -0.51219  -0.48932  -0.48740
 Alpha  occ. eigenvalues --   -0.48098  -0.47879  -0.46873  -0.46748  -0.46541
 Alpha  occ. eigenvalues --   -0.46444  -0.46163  -0.45764  -0.45639  -0.45466
 Alpha  occ. eigenvalues --   -0.45346  -0.44994  -0.44952  -0.44650  -0.44498
 Alpha  occ. eigenvalues --   -0.43698  -0.43515  -0.43286  -0.43151  -0.42866
 Alpha  occ. eigenvalues --   -0.42648  -0.42504  -0.42307  -0.42076  -0.41964
 Alpha  occ. eigenvalues --   -0.41888  -0.41452  -0.41225  -0.40938  -0.40364
 Alpha  occ. eigenvalues --   -0.40174  -0.39465  -0.39118  -0.38745  -0.38067
 Alpha  occ. eigenvalues --   -0.37727  -0.37540  -0.37513  -0.37343  -0.36973
 Alpha  occ. eigenvalues --   -0.36921  -0.36076  -0.35907  -0.35556  -0.35215
 Alpha  occ. eigenvalues --   -0.35031  -0.34844  -0.34774  -0.34592  -0.34367
 Alpha  occ. eigenvalues --   -0.34257  -0.33976  -0.33134  -0.32812  -0.32441
 Alpha  occ. eigenvalues --   -0.31818  -0.31554  -0.30843  -0.30661  -0.27959
 Alpha  occ. eigenvalues --   -0.27713  -0.27090  -0.26843  -0.26561  -0.26320
 Alpha  occ. eigenvalues --   -0.26187  -0.26140  -0.25763  -0.25742  -0.25062
 Alpha  occ. eigenvalues --   -0.24820  -0.23359  -0.21961  -0.21411  -0.19459
 Alpha virt. eigenvalues --   -0.05557  -0.05254  -0.04065  -0.03784  -0.03600
 Alpha virt. eigenvalues --   -0.03082  -0.02824  -0.02268  -0.02161  -0.01653
 Alpha virt. eigenvalues --   -0.01530  -0.01130   0.01285   0.01895   0.02054

 Mulliken charges:
               1
     1  P    0.088026
     2  C   -0.024238
     3  C   -0.127811
     4  C   -0.108897
     5  C   -0.086327
     6  C   -0.139615
     7  C   -0.126261
     8  H    0.143320
     9  H    0.112603
    10  H    0.112494
    11  H    0.110963
    12  H    0.108858
    13  C   -0.370925
    14  P    0.128133
    15  H    0.141501
    16  H    0.146053
    17  C    0.092898
    18  C   -0.171689
    19  C   -0.207507
    20  C   -0.110765
    21  H    0.127575
    22  C   -0.105905
    23  H    0.123616
    24  C   -0.102687
    25  H    0.109603
    26  H    0.106827
    27  H    0.108333
    28  C    0.105962
    29  H    0.097670
    30  O   -0.347636
    31  C    0.249740
    32  B    0.343676
    33  O   -0.381093
    34  C    0.016335
    35  C   -0.160579
    36  C   -0.152165
    37  C   -0.102686
    38  H    0.124346
    39  C   -0.106877
    40  H    0.132129
    41  C   -0.086455
    42  H    0.108637
    43  H    0.106745
    44  H    0.111065
    45  C   -0.105740
    46  C   -0.158311
    47  C    0.105069
    48  C    0.060041
    49  C   -0.210778
    50  C   -0.084512
    51  H    0.098176
    52  H    0.107791
    53  H    0.101713
    54  C   -0.182472
    55  H    0.138240
    56  H    0.107310
    57  C    0.042735
    58  C   -0.225782
    59  H    0.105206
    60  C    0.096108
    61  H    0.134670
    62  O   -0.389050
    63  C    0.028201
    64  B    0.376972
    65  C    0.222936
    66  C   -0.206792
    67  O   -0.382692
    68  C    0.018473
    69  C    0.079342
    70  C   -0.195270
    71  H    0.112676
    72  C   -0.158770
    73  C   -0.145281
    74  C    0.106692
    75  C   -0.218205
    76  H    0.096604
    77  C   -0.116697
    78  H    0.134250
    79  C   -0.110988
    80  H    0.130035
    81  C   -0.154579
    82  C   -0.081369
    83  H    0.139190
    84  C   -0.082017
    85  H    0.108942
    86  H    0.104750
    87  C   -0.109008
    88  H    0.101617
    89  H    0.107350
    90  H    0.108720
    91  H    0.107517
 Sum of Mulliken charges =  -0.00000

 Dipole moment (field-independent basis, Debye):
    X=              0.2393    Y=              0.1923    Z=             -0.9577  Tot=              1.0057
 Quadrupole moment (field-independent basis, Debye-Ang):
   XX=           -310.8907   YY=           -304.2293   ZZ=           -329.3747
   XY=             -6.4350   XZ=            -11.2934   YZ=              1.5671

 Summary of Natural Population Analysis:

                                       Natural Population
                Natural  -----------------------------------------------
    Atom  No    Charge         Core      Valence    Rydberg      Total
 -----------------------------------------------------------------------
      P    1    0.76905      9.99840     4.19991    0.03263    14.23095
      C    2   -0.35010      1.99901     4.31869    0.03240     6.35010
      C    3   -0.18717      1.99910     4.16762    0.02045     6.18717
      C    4   -0.20301      1.99918     4.18454    0.01929     6.20301
      C    5   -0.19324      1.99919     4.17509    0.01896     6.19324
      C    6   -0.19888      1.99918     4.18100    0.01869     6.19888
      C    7   -0.20106      1.99907     4.18230    0.01969     6.20106
      H    8    0.20969      0.00000     0.78771    0.00260     0.79031
      H    9    0.21122      0.00000     0.78743    0.00135     0.78878
      H   10    0.21005      0.00000     0.78878    0.00118     0.78995
      H   11    0.21094      0.00000     0.78780    0.00126     0.78906
      H   12    0.21892      0.00000     0.77942    0.00166     0.78108
      C   13   -1.01110      1.99945     4.97972    0.03193     7.01110
      P   14    0.78266      9.99836     4.18693    0.03205    14.21734
      H   15    0.25823      0.00000     0.74029    0.00148     0.74177
      H   16    0.24694      0.00000     0.75042    0.00264     0.75306
      C   17   -0.34319      1.99902     4.31388    0.03030     6.34319
      C   18   -0.19280      1.99909     4.17402    0.01969     6.19280
      C   19   -0.20309      1.99908     4.18468    0.01932     6.20309
      C   20   -0.19817      1.99918     4.18046    0.01853     6.19817
      H   21    0.21628      0.00000     0.78170    0.00203     0.78372
      C   22   -0.19894      1.99918     4.18101    0.01875     6.19894
      H   23    0.20585      0.00000     0.79176    0.00240     0.79415
      C   24   -0.20232      1.99919     4.18385    0.01929     6.20232
      H   25    0.21035      0.00000     0.78839    0.00126     0.78965
      H   26    0.20870      0.00000     0.78999    0.00130     0.79130
      H   27    0.20810      0.00000     0.79072    0.00117     0.79190
      C   28   -0.13134      1.99919     4.10063    0.03152     6.13134
      H   29    0.20067      0.00000     0.79683    0.00251     0.79933
      O   30   -0.68875      1.99968     6.66790    0.02116     8.68875
      C   31    0.31991      1.99860     3.65881    0.02268     5.68009
      B   32    1.11268      1.99894     1.85976    0.02862     3.88732
      O   33   -0.66105      1.99967     6.64066    0.02072     8.66105
      C   34   -0.40141      1.99894     4.38072    0.02174     6.40141
      C   35   -0.15347      1.99917     4.13597    0.01833     6.15347
      C   36   -0.15181      1.99917     4.13460    0.01804     6.15181
      C   37   -0.21606      1.99918     4.19743    0.01944     6.21606
      H   38    0.21395      0.00000     0.78462    0.00143     0.78605
      C   39   -0.21467      1.99919     4.19616    0.01932     6.21467
      H   40    0.21256      0.00000     0.78600    0.00145     0.78744
      C   41   -0.18817      1.99919     4.16973    0.01925     6.18817
      H   42    0.20812      0.00000     0.79059    0.00129     0.79188
      H   43    0.20801      0.00000     0.79071    0.00128     0.79199
      H   44    0.20718      0.00000     0.79163    0.00119     0.79282
      C   45   -0.20415      1.99919     4.18574    0.01922     6.20415
      C   46   -0.17698      1.99913     4.15972    0.01813     6.17698
      C   47   -0.04627      1.99909     4.02680    0.02038     6.04627
      C   48   -0.08806      1.99901     4.06834    0.02071     6.08806
      C   49   -0.17384      1.99913     4.15572    0.01900     6.17384
      C   50   -0.20440      1.99919     4.18626    0.01894     6.20440
      H   51    0.20861      0.00000     0.79007    0.00132     0.79139
      H   52    0.20860      0.00000     0.79025    0.00116     0.79140
      H   53    0.20669      0.00000     0.79193    0.00138     0.79331
      C   54   -0.18781      1.99913     4.17042    0.01826     6.18781
      H   55    0.22119      0.00000     0.77737    0.00144     0.77881
      H   56    0.20834      0.00000     0.79050    0.00116     0.79166
      C   57   -0.12795      1.99892     4.10922    0.01980     6.12795
      C   58   -0.18468      1.99913     4.16630    0.01925     6.18468
      H   59    0.21562      0.00000     0.78300    0.00139     0.78438
      C   60   -0.13512      1.99917     4.10399    0.03196     6.13512
      H   61    0.21363      0.00000     0.78349    0.00288     0.78637
      O   62   -0.68991      1.99969     6.66916    0.02106     8.68991
      C   63   -0.13011      1.99892     4.11128    0.01991     6.13011
      B   64    1.11932      1.99894     1.85307    0.02867     3.88068
      C   65    0.32201      1.99859     3.65690    0.02250     5.67799
      C   66   -0.17963      1.99913     4.16147    0.01903     6.17963
      O   67   -0.66142      1.99967     6.64097    0.02077     8.66142
      C   68   -0.39968      1.99893     4.37901    0.02173     6.39968
      C   69   -0.09009      1.99901     4.07041    0.02067     6.09009
      C   70   -0.18988      1.99913     4.17260    0.01815     6.18988
      H   71    0.21664      0.00000     0.78199    0.00136     0.78336
      C   72   -0.15169      1.99917     4.13428    0.01823     6.15169
      C   73   -0.14964      1.99917     4.13243    0.01803     6.14964
      C   74   -0.04679      1.99909     4.02740    0.02030     6.04679
      C   75   -0.17405      1.99913     4.15589    0.01903     6.17405
      H   76    0.20872      0.00000     0.78996    0.00132     0.79128
      C   77   -0.21629      1.99919     4.19772    0.01939     6.21629
      H   78    0.21244      0.00000     0.78613    0.00143     0.78756
      C   79   -0.21548      1.99919     4.19696    0.01933     6.21548
      H   80    0.21207      0.00000     0.78649    0.00144     0.78793
      C   81   -0.17761      1.99912     4.16032    0.01817     6.17761
      C   82   -0.20518      1.99920     4.18702    0.01896     6.20518
      H   83    0.22201      0.00000     0.77654    0.00145     0.77799
      C   84   -0.18951      1.99919     4.17109    0.01923     6.18951
      H   85    0.20769      0.00000     0.79099    0.00132     0.79231
      H   86    0.20705      0.00000     0.79166    0.00129     0.79295
      C   87   -0.20441      1.99919     4.18599    0.01923     6.20441
      H   88    0.20676      0.00000     0.79186    0.00138     0.79324
      H   89    0.20835      0.00000     0.79049    0.00117     0.79165
      H   90    0.20610      0.00000     0.79271    0.00120     0.79390
      H   91    0.20858      0.00000     0.79026    0.00116     0.79142
 =======================================================================
   * Total *   -0.00000    125.95136   262.81304    1.23560   390.00000

 1\1\GINC-G4NODEC5\SP\RB3LYP\def2TZVP\C47H36B2O4P2\ROOT\24-Jan-2025\0\\
 # nmr=giao b3lyp/def2TZVP pop=nbo scfcyc=200\\MB-137 SPE NoRh\\0,1\P,0
 ,1.423,-0.562,0.415\C,0,1.737,-0.144,-1.348\C,0,2.026,-1.182,-2.241\C,
 0,2.306,-0.904,-3.573\C,0,2.295,0.41,-4.029\C,0,2.005,1.448,-3.148\C,0
 ,1.728,1.175,-1.813\H,0,1.504,1.998,-1.147\H,0,1.994,2.472,-3.498\H,0,
 2.509,0.626,-5.068\H,0,2.53,-1.714,-4.256\H,0,2.03,-2.207,-1.895\C,0,0
 .161,0.669,1.029\P,0,-1.33,-0.402,0.708\H,0,0.306,0.775,2.105\H,0,0.14
 9,1.655,0.571\C,0,-2.649,0.041,1.901\C,0,-3.786,-0.774,1.982\C,0,-2.56

 Normal termination of Gaussian 16 at Fri Jan 24 06:09:10 2025.
