 Gaussian 16, Revision B.01,
 Gaussian 16:  ES64L-G16RevB.01 20-Dec-2017

 --------------------------------------------
 # nmr=giao b3lyp/def2TZVP pop=nbo scfcyc=200
 --------------------------------------------

 ---------------
 MB-117 SPE NoRh
 ---------------
 Symbolic Z-matrix:
 Charge =  0 Multiplicity = 1

                         Standard orientation:
 ---------------------------------------------------------------------
 Center     Atomic      Atomic             Coordinates (Angstroms)
 Number     Number       Type             X           Y           Z
 ---------------------------------------------------------------------
      1         15           0        1.392661    0.410842   -0.683745
      2         15           0       -1.385304    0.430745   -0.673431
      3          6           0        0.009781    0.764735    0.535654
      4          6           0        2.011829   -1.263364   -0.236401
      5          6           0        2.071827   -2.243655   -1.227501
      6          6           0        2.527083   -3.509091   -0.885728
      7          6           0        2.917742   -3.839174    0.399824
      8          6           0        2.840953   -2.840679    1.359673
      9          6           0        2.396924   -1.560159    1.073868
     10          6           0        2.774734    1.576703   -0.318218
     11          6           0        2.497060    2.947770   -0.285313
     12          6           0        3.539468    3.833416   -0.074340
     13          6           0        4.852461    3.420825    0.088846
     14          6           0        5.092242    2.059742    0.031335
     15          6           0        4.086216    1.124503   -0.169550
     16          6           0       -2.002352   -1.251450   -0.252822
     17          6           0       -2.400532   -1.564619    1.049947
     18          6           0       -2.843642   -2.849545    1.314809
     19          6           0       -2.907720   -3.835885    0.340578
     20          6           0       -2.506097   -3.488984   -0.935560
     21          6           0       -2.051191   -2.217511   -1.256962
     22          6           0       -2.771637    1.580239   -0.271473
     23          6           0       -4.090495    1.124909   -0.267846
     24          6           0       -5.108852    2.041592   -0.045586
     25          6           0       -4.873671    3.388996    0.167982
     26          6           0       -3.553324    3.804802    0.146675
     27          6           0       -2.497353    2.936407   -0.076240
     28          1           0        0.022287    1.819993    0.805905
     29          1           0        0.007775    0.165648    1.444935
     30          1           0        1.764672   -2.045705   -2.243836
     31          1           0        2.372697   -0.825865    1.868659
     32          1           0        5.652594    4.130449    0.249950
     33          1           0       -2.387868   -0.839681    1.853547
     34          1           0       -1.737083   -2.002938   -2.268299
     35          1           0       -5.683852    4.083317    0.343573
     36          1           0        3.268390   -4.830892    0.646896
     37          1           0        1.500878    3.342296   -0.428990
     38          1           0        4.343972    0.076267   -0.196199
     39          1           0       -3.259202   -4.832673    0.572353
     40          1           0       -4.345742    0.085760   -0.417813
     41          1           0       -1.493192    3.339326   -0.094528
     42          9           0       -6.374530    1.599904   -0.035737
     43          9           0       -3.283751    5.104582    0.344774
     44          9           0        3.268076    5.147152   -0.034177
     45          9           0        6.350892    1.621252    0.178328
     46          9           0        2.582595   -4.450558   -1.840187
     47          9           0       -2.550447   -4.418255   -1.902505
     48          9           0       -3.227770   -3.155996    2.562457
     49          9           0        3.212114   -3.129442    2.614558
 ---------------------------------------------------------------------

 SCF Done:  E(RB3LYP) =  -2443.24683527     A.U. after   15 cycles

      1  P    Isotropic =   235.8260   Anisotropy =   105.3789

      2  P    Isotropic =   232.7652   Anisotropy =   107.7332

      3  C    Isotropic =   143.9495   Anisotropy =    19.1070

      4  C    Isotropic =    34.3418   Anisotropy =   207.3698

      5  C    Isotropic =    58.0502   Anisotropy =   143.8693

      6  C    Isotropic =     9.4690   Anisotropy =   107.2700

      7  C    Isotropic =    73.5223   Anisotropy =   126.8412

      8  C    Isotropic =     8.6883   Anisotropy =   108.5265

      9  C    Isotropic =    60.1389   Anisotropy =   147.0023

     10  C    Isotropic =    26.1627   Anisotropy =   198.1200

     11  C    Isotropic =    68.3909   Anisotropy =   139.0021

     12  C    Isotropic =     8.7895   Anisotropy =   103.4951

     13  C    Isotropic =    78.2758   Anisotropy =   116.3965

     14  C    Isotropic =     9.2031   Anisotropy =   103.7393

     15  C    Isotropic =    68.7571   Anisotropy =   139.6907

     16  C    Isotropic =    33.9133   Anisotropy =   207.5183

     17  C    Isotropic =    60.3111   Anisotropy =   146.7019

     18  C    Isotropic =     8.4782   Anisotropy =   108.6680

     19  C    Isotropic =    73.4994   Anisotropy =   126.7150

     20  C    Isotropic =     9.7803   Anisotropy =   106.9287

     21  C    Isotropic =    57.7376   Anisotropy =   144.1638

     22  C    Isotropic =    26.0863   Anisotropy =   198.0355

     23  C    Isotropic =    69.1948   Anisotropy =   139.4753

     24  C    Isotropic =     8.9728   Anisotropy =   104.0436

     25  C    Isotropic =    78.6020   Anisotropy =   115.5340

     26  C    Isotropic =     8.9393   Anisotropy =   103.1404

     27  C    Isotropic =    69.2236   Anisotropy =   138.5861

     28  H    Isotropic =    29.3995   Anisotropy =     6.8927

     29  H    Isotropic =    28.8490   Anisotropy =     3.3510

     30  H    Isotropic =    24.4333   Anisotropy =     6.9339

     31  H    Isotropic =    24.7416   Anisotropy =     9.1312

     32  H    Isotropic =    25.2055   Anisotropy =     3.9021

     33  H    Isotropic =    24.7977   Anisotropy =     9.1955

     34  H    Isotropic =    24.3872   Anisotropy =     6.8994

     35  H    Isotropic =    25.2419   Anisotropy =     3.8462

     36  H    Isotropic =    25.0702   Anisotropy =     3.4704

     37  H    Isotropic =    24.6249   Anisotropy =     9.7589

     38  H    Isotropic =    25.7346   Anisotropy =    12.9375

     39  H    Isotropic =    25.0532   Anisotropy =     3.4236

     40  H    Isotropic =    25.7913   Anisotropy =    12.8356

     41  H    Isotropic =    24.6462   Anisotropy =     9.9090

     42  F    Isotropic =   283.0469   Anisotropy =   107.6976

     43  F    Isotropic =   284.4368   Anisotropy =   102.0515

     44  F    Isotropic =   284.1478   Anisotropy =   102.7619

     45  F    Isotropic =   283.1159   Anisotropy =   106.9763

     46  F    Isotropic =   282.4561   Anisotropy =   108.1161

     47  F    Isotropic =   282.7759   Anisotropy =   107.5479

     48  F    Isotropic =   281.7776   Anisotropy =   109.7245

     49  F    Isotropic =   282.0464   Anisotropy =   110.2139

 The electronic state is 1-A.
 Alpha  occ. eigenvalues --  -77.07969 -77.07949 -24.71653 -24.71619 -24.71563
 Alpha  occ. eigenvalues --  -24.71551 -24.71030 -24.70989 -24.70937 -24.70902
 Alpha  occ. eigenvalues --  -10.29035 -10.29026 -10.29017 -10.29006 -10.28373
 Alpha  occ. eigenvalues --  -10.28313 -10.28267 -10.28227 -10.22132 -10.22115
 Alpha  occ. eigenvalues --  -10.21849 -10.21786 -10.21380 -10.21196 -10.21190
 Alpha  occ. eigenvalues --  -10.20820 -10.20815 -10.20807 -10.20783 -10.20122
 Alpha  occ. eigenvalues --  -10.20079 -10.20074 -10.19993 -10.19841 -10.19781
 Alpha  occ. eigenvalues --   -6.56516  -6.56494  -4.72663  -4.72641  -4.72641
 Alpha  occ. eigenvalues --   -4.72620  -4.72146  -4.72125  -1.25417  -1.25354
 Alpha  occ. eigenvalues --   -1.25246  -1.25232  -1.24727  -1.24687  -1.24655
 Alpha  occ. eigenvalues --   -1.24627  -0.90002  -0.89913  -0.89084  -0.89034
 Alpha  occ. eigenvalues --   -0.81210  -0.80061  -0.78473  -0.78358  -0.78165
 Alpha  occ. eigenvalues --   -0.78127  -0.77430  -0.77356  -0.75746  -0.68649
 Alpha  occ. eigenvalues --   -0.66846  -0.65434  -0.65415  -0.65246  -0.65172
 Alpha  occ. eigenvalues --   -0.64635  -0.64580  -0.61114  -0.60307  -0.58090
 Alpha  occ. eigenvalues --   -0.58007  -0.55020  -0.54872  -0.54394  -0.54296
 Alpha  occ. eigenvalues --   -0.54155  -0.54006  -0.53390  -0.53300  -0.52917
 Alpha  occ. eigenvalues --   -0.52716  -0.52075  -0.52017  -0.51376  -0.51329
 Alpha  occ. eigenvalues --   -0.50380  -0.50297  -0.49694  -0.49652  -0.48989
 Alpha  occ. eigenvalues --   -0.48948  -0.48351  -0.48313  -0.47231  -0.46145
 Alpha  occ. eigenvalues --   -0.46078  -0.45522  -0.45427  -0.45196  -0.44310
 Alpha  occ. eigenvalues --   -0.42991  -0.42526  -0.42465  -0.41996  -0.41951
 Alpha  occ. eigenvalues --   -0.41457  -0.40280  -0.40241  -0.39766  -0.39653
 Alpha  occ. eigenvalues --   -0.39120  -0.38776  -0.38456  -0.38415  -0.38225
 Alpha  occ. eigenvalues --   -0.36250  -0.35887  -0.34738  -0.30066  -0.29555
 Alpha  occ. eigenvalues --   -0.29430  -0.28241  -0.27904  -0.27533  -0.26876
 Alpha  occ. eigenvalues --   -0.26808  -0.25079  -0.21986
 Alpha virt. eigenvalues --   -0.06977  -0.05777  -0.05321  -0.03997  -0.03948
 Alpha virt. eigenvalues --   -0.03387  -0.03121  -0.02212  -0.00668   0.02304
 Alpha virt. eigenvalues --    0.02560   0.03079   0.03545   0.04117   0.04984

 Mulliken charges:
               1
     1  P    0.176931
     2  P    0.186207
     3  C   -0.384063
     4  C    0.077749
     5  C   -0.263954
     6  C    0.355535
     7  C   -0.269038
     8  C    0.365499
     9  C   -0.326370
    10  C    0.111330
    11  C   -0.317902
    12  C    0.333182
    13  C   -0.288357
    14  C    0.331621
    15  C   -0.273546
    16  C    0.058374
    17  C   -0.308914
    18  C    0.358162
    19  C   -0.265285
    20  C    0.354233
    21  C   -0.259984
    22  C    0.114577
    23  C   -0.273894
    24  C    0.331847
    25  C   -0.289937
    26  C    0.328930
    27  C   -0.301760
    28  H    0.144810
    29  H    0.144976
    30  H    0.136254
    31  H    0.139494
    32  H    0.137040
    33  H    0.138634
    34  H    0.136330
    35  H    0.136498
    36  H    0.142030
    37  H    0.133259
    38  H    0.143348
    39  H    0.141886
    40  H    0.141970
    41  H    0.113796
    42  F   -0.199652
    43  F   -0.201271
    44  F   -0.200974
    45  F   -0.199693
    46  F   -0.197013
    47  F   -0.197080
    48  F   -0.198036
    49  F   -0.197779
 Sum of Mulliken charges =  -0.00000

 Dipole moment (field-independent basis, Debye):
    X=              0.0685    Y=             -0.9059    Z=              1.1119  Tot=              1.4359
 Quadrupole moment (field-independent basis, Debye-Ang):
   XX=           -222.3951   YY=           -217.0796   ZZ=           -218.3688
   XY=              0.2007   XZ=             -0.0959   YZ=              0.1416

 Summary of Natural Population Analysis:

                                       Natural Population
                Natural  -----------------------------------------------
    Atom  No    Charge         Core      Valence    Rydberg      Total
 -----------------------------------------------------------------------
      P    1    0.83430      9.99817     4.13440    0.03312    14.16570
      P    2    0.83570      9.99817     4.13297    0.03316    14.16430
      C    3   -0.99035      1.99944     4.95716    0.03376     6.99035
      C    4   -0.29919      1.99905     4.26978    0.03037     6.29919
      C    5   -0.27068      1.99895     4.24996    0.02177     6.27068
      C    6    0.40041      1.99846     3.57458    0.02655     5.59959
      C    7   -0.32614      1.99888     4.30737    0.01989     6.32614
      C    8    0.40051      1.99847     3.57478    0.02623     5.59949
      C    9   -0.28359      1.99892     4.26320    0.02147     6.28359
      C   10   -0.27873      1.99903     4.25179    0.02791     6.27873
      C   11   -0.29902      1.99893     4.27863    0.02147     6.29902
      C   12    0.40906      1.99846     3.56642    0.02606     5.59094
      C   13   -0.34613      1.99887     4.32687    0.02039     6.34613
      C   14    0.40958      1.99847     3.56582    0.02613     5.59042
      C   15   -0.29671      1.99893     4.27624    0.02155     6.29671
      C   16   -0.29880      1.99904     4.26923    0.03052     6.29880
      C   17   -0.28198      1.99892     4.26158    0.02149     6.28198
      C   18    0.40082      1.99847     3.57449    0.02622     5.59918
      C   19   -0.32619      1.99887     4.30737    0.01995     6.32619
      C   20    0.39989      1.99846     3.57509    0.02656     5.60011
      C   21   -0.27132      1.99894     4.25057    0.02181     6.27132
      C   22   -0.27866      1.99903     4.25166    0.02797     6.27866
      C   23   -0.29735      1.99892     4.27683    0.02159     6.29735
      C   24    0.41057      1.99847     3.56482    0.02614     5.58943
      C   25   -0.34786      1.99887     4.32856    0.02044     6.34786
      C   26    0.40959      1.99846     3.56590    0.02606     5.59041
      C   27   -0.29983      1.99892     4.27953    0.02137     6.29983
      H   28    0.25346      0.00000     0.74477    0.00177     0.74654
      H   29    0.24622      0.00000     0.75144    0.00234     0.75378
      H   30    0.23971      0.00000     0.75880    0.00148     0.76029
      H   31    0.22930      0.00000     0.76852    0.00218     0.77070
      H   32    0.24258      0.00000     0.75602    0.00140     0.75742
      H   33    0.22945      0.00000     0.76841    0.00215     0.77055
      H   34    0.23990      0.00000     0.75861    0.00149     0.76010
      H   35    0.24241      0.00000     0.75619    0.00140     0.75759
      H   36    0.24436      0.00000     0.75427    0.00137     0.75564
      H   37    0.22012      0.00000     0.77821    0.00168     0.77988
      H   38    0.23265      0.00000     0.76540    0.00195     0.76735
      H   39    0.24453      0.00000     0.75409    0.00137     0.75547
      H   40    0.23218      0.00000     0.76590    0.00192     0.76782
      H   41    0.21818      0.00000     0.78001    0.00182     0.78182
      F   42   -0.30498      1.99993     7.29836    0.00669     9.30498
      F   43   -0.30570      1.99993     7.29911    0.00665     9.30570
      F   44   -0.30538      1.99993     7.29880    0.00665     9.30538
      F   45   -0.30509      1.99993     7.29848    0.00669     9.30509
      F   46   -0.30232      1.99993     7.29565    0.00673     9.30232
      F   47   -0.30238      1.99993     7.29572    0.00673     9.30238
      F   48   -0.30366      1.99993     7.29706    0.00667     9.30366
      F   49   -0.30342      1.99993     7.29680    0.00669     9.30342
 =======================================================================
   * Total *    0.00000     85.96603   179.27622    0.75775   266.00000

 Normal termination of Gaussian 16 at Fri Jan 24 02:58:11 2025.
