 Gaussian 16, Revision B.01,
 Gaussian 16:  ES64L-G16RevB.01 20-Dec-2017

 --------------------------------------------
 # nmr=giao b3lyp/def2TZVP pop=nbo scfcyc=200
 --------------------------------------------

 ---------------
 MB-118 SPE NoRh
 ---------------
 Symbolic Z-matrix:
 Charge =  0 Multiplicity = 1

                         Standard orientation:
 ---------------------------------------------------------------------
 Center     Atomic      Atomic             Coordinates (Angstroms)
 Number     Number       Type             X           Y           Z
 ---------------------------------------------------------------------
      1         15           0       -1.403664   -0.122491   -0.690165
      2         15           0        1.418767   -0.074675   -0.671409
      3          6           0        0.003248   -0.197149    0.552488
      4          1           0       -0.049660   -1.143016    1.083088
      5          1           0        0.034940    0.589482    1.300085
      6          6           0       -2.383788   -1.636097   -0.280236
      7          6           0       -2.338887   -2.670405   -1.218976
      8          1           0       -1.785996   -2.513278   -2.136008
      9          6           0       -2.972178   -3.884779   -0.997236
     10          1           0       -2.919819   -4.671212   -1.738474
     11          6           0       -3.673233   -4.072036    0.186038
     12          1           0       -4.185614   -5.006343    0.377260
     13          6           0       -3.723128   -3.063630    1.139850
     14          1           0       -4.275138   -3.240242    2.051355
     15          6           0       -3.075667   -1.840875    0.936413
     16          6           0       -2.400067    1.402241   -0.354580
     17          6           0       -1.812527    2.447471    0.363818
     18          1           0       -0.821903    2.331536    0.778362
     19          6           0       -2.466247    3.656116    0.556616
     20          1           0       -1.985902    4.447819    1.116827
     21          6           0       -3.736485    3.834296    0.026091
     22          1           0       -4.267649    4.766255    0.174057
     23          6           0       -4.336977    2.813660   -0.699116
     24          1           0       -5.328306    2.972014   -1.096862
     25          6           0       -3.680466    1.600016   -0.917629
     26          6           0        2.594393   -1.476506   -0.366895
     27          6           0        2.138837   -2.608870    0.315560
     28          1           0        1.140770   -2.628728    0.728965
     29          6           0        2.935542   -3.732309    0.480190
     30          1           0        2.551990   -4.592551    1.013759
     31          6           0        4.220711   -3.736938   -0.042862
     32          1           0        4.862176   -4.600057    0.082857
     33          6           0        4.694123   -2.629189   -0.731583
     34          1           0        5.700186   -2.650779   -1.122801
     35          6           0        3.894272   -1.498531   -0.919813
     36          6           0        2.210655    1.532430   -0.214491
     37          6           0        2.078000    2.569739   -1.141870
     38          1           0        1.571266    2.365144   -2.076065
     39          6           0        2.571028    3.841330   -0.887508
     40          1           0        2.452800    4.628798   -1.620239
     41          6           0        3.215923    4.085354    0.317408
     42          1           0        3.618505    5.067545    0.534569
     43          6           0        3.352783    3.073186    1.258867
     44          1           0        3.860538    3.294343    2.186764
     45          6           0        2.848836    1.790903    1.021460
     46          6           0       -5.783137    1.134098   -2.777291
     47          1           0       -6.170256    0.384342   -3.465819
     48          1           0       -6.586008    1.445807   -2.113088
     49          1           0       -5.400891    1.980690   -3.344903
     50          6           0       -3.832811   -1.349594    3.634542
     51          1           0       -4.877101   -1.606395    3.469768
     52          1           0       -3.262078   -2.224758    3.939261
     53          1           0       -3.776981   -0.595347    4.418549
     54          6           0        3.624900    1.329090    3.720008
     55          1           0        3.645441    0.556669    4.487436
     56          1           0        4.636334    1.701190    3.570246
     57          1           0        2.959454    2.130150    4.037558
     58          6           0        5.922839   -0.734801   -2.762481
     59          1           0        6.217214    0.075475   -3.427924
     60          1           0        6.761693   -0.974502   -2.112571
     61          1           0        5.633960   -1.599913   -3.355622
     62         16           0        2.994465    0.482293    2.229404
     63         16           0       -4.445776    0.284203   -1.862568
     64         16           0       -3.099362   -0.545469    2.166816
     65         16           0        4.505458   -0.071150   -1.814742
 ---------------------------------------------------------------------

 SCF Done:  E(RB3LYP) =  -3399.16261699     A.U. after   15 cycles

      1  P    Isotropic =   240.8387   Anisotropy =    94.8538

      2  P    Isotropic =   241.3695   Anisotropy =   101.3063

      3  C    Isotropic =   152.9687   Anisotropy =    18.4447

      4  H    Isotropic =    29.2494   Anisotropy =     6.2206

      5  H    Isotropic =    28.8073   Anisotropy =     6.6481

      6  C    Isotropic =    38.1575   Anisotropy =   185.6046

      7  C    Isotropic =    39.2887   Anisotropy =   176.1288

      8  H    Isotropic =    23.6383   Anisotropy =     8.4296

      9  C    Isotropic =    55.9595   Anisotropy =   174.7305

     10  H    Isotropic =    24.5900   Anisotropy =     4.8004

     11  C    Isotropic =    48.7773   Anisotropy =   184.9602

     12  H    Isotropic =    24.3668   Anisotropy =     4.2229

     13  C    Isotropic =    56.9303   Anisotropy =   173.1742

     14  H    Isotropic =    24.8612   Anisotropy =    10.1954

     15  C    Isotropic =    20.7040   Anisotropy =   167.4037

     16  C    Isotropic =    38.6575   Anisotropy =   182.4840

     17  C    Isotropic =    51.2143   Anisotropy =   180.7990

     18  H    Isotropic =    24.9583   Anisotropy =     8.7324

     19  C    Isotropic =    55.5098   Anisotropy =   175.3699

     20  H    Isotropic =    24.9887   Anisotropy =     7.0885

     21  C    Isotropic =    52.8124   Anisotropy =   176.4047

     22  H    Isotropic =    24.6799   Anisotropy =     4.3729

     23  C    Isotropic =    55.7120   Anisotropy =   174.1301

     24  H    Isotropic =    24.8379   Anisotropy =     9.7881

     25  C    Isotropic =    29.8821   Anisotropy =   167.3801

     26  C    Isotropic =    38.3402   Anisotropy =   182.1732

     27  C    Isotropic =    51.5128   Anisotropy =   180.5100

     28  H    Isotropic =    24.6105   Anisotropy =    10.4352

     29  C    Isotropic =    55.6254   Anisotropy =   175.0237

     30  H    Isotropic =    24.8278   Anisotropy =     6.5988

     31  C    Isotropic =    53.1623   Anisotropy =   176.3160

     32  H    Isotropic =    24.6637   Anisotropy =     4.2312

     33  C    Isotropic =    55.2326   Anisotropy =   174.5769

     34  H    Isotropic =    24.8097   Anisotropy =     9.9439

     35  C    Isotropic =    30.0263   Anisotropy =   166.4048

     36  C    Isotropic =    39.7608   Anisotropy =   184.2206

     37  C    Isotropic =    38.2348   Anisotropy =   178.4412

     38  H    Isotropic =    23.6426   Anisotropy =     7.9169

     39  C    Isotropic =    55.8586   Anisotropy =   175.5554

     40  H    Isotropic =    24.6210   Anisotropy =     4.6884

     41  C    Isotropic =    48.4519   Anisotropy =   185.1801

     42  H    Isotropic =    24.3286   Anisotropy =     4.0645

     43  C    Isotropic =    57.0889   Anisotropy =   173.0167

     44  H    Isotropic =    24.8185   Anisotropy =    10.0534

     45  C    Isotropic =    20.5476   Anisotropy =   168.5657

     46  C    Isotropic =   162.0315   Anisotropy =    31.8464

     47  H    Isotropic =    30.0091   Anisotropy =    11.1528

     48  H    Isotropic =    29.4109   Anisotropy =    11.0757

     49  H    Isotropic =    29.8212   Anisotropy =    10.6893

     50  C    Isotropic =   162.7634   Anisotropy =    29.0253

     51  H    Isotropic =    29.5882   Anisotropy =    11.4731

     52  H    Isotropic =    29.7853   Anisotropy =    10.6436

     53  H    Isotropic =    30.0349   Anisotropy =    10.7387

     54  C    Isotropic =   162.8479   Anisotropy =    28.6502

     55  H    Isotropic =    30.0024   Anisotropy =    10.8261

     56  H    Isotropic =    29.5546   Anisotropy =    11.4228

     57  H    Isotropic =    29.7242   Anisotropy =    10.5754

     58  C    Isotropic =   161.8208   Anisotropy =    32.4744

     59  H    Isotropic =    30.0170   Anisotropy =    11.0907

     60  H    Isotropic =    29.4082   Anisotropy =    11.1021

     61  H    Isotropic =    29.8490   Anisotropy =    10.7005

     62  S    Isotropic =   402.8262   Anisotropy =   287.0428

     63  S    Isotropic =   408.2286   Anisotropy =   288.7709

     64  S    Isotropic =   402.1968   Anisotropy =   292.2391

     65  S    Isotropic =   409.5820   Anisotropy =   285.9622

 The electronic state is 1-A.
 Alpha  occ. eigenvalues --  -88.85857 -88.85780 -88.85175 -88.85161 -77.04600
 Alpha  occ. eigenvalues --  -77.04593 -10.21155 -10.21082 -10.20467 -10.20459
 Alpha  occ. eigenvalues --  -10.20109 -10.20049 -10.19580 -10.19563 -10.18318
 Alpha  occ. eigenvalues --  -10.18292 -10.18233 -10.18159 -10.17822 -10.17755
 Alpha  occ. eigenvalues --  -10.17661 -10.17599 -10.17538 -10.17503 -10.17471
 Alpha  occ. eigenvalues --  -10.17096 -10.17079 -10.17020 -10.16972 -10.16951
 Alpha  occ. eigenvalues --  -10.16941 -10.16871 -10.16869 -10.16560 -10.16512
 Alpha  occ. eigenvalues --   -7.93440  -7.93362  -7.92755  -7.92742  -6.53112
 Alpha  occ. eigenvalues --   -6.53106  -5.89790  -5.89712  -5.89403  -5.89326
 Alpha  occ. eigenvalues --   -5.89107  -5.89093  -5.88870  -5.88791  -5.88725
 Alpha  occ. eigenvalues --   -5.88712  -5.88180  -5.88166  -4.69265  -4.69262
 Alpha  occ. eigenvalues --   -4.69229  -4.69219  -4.68756  -4.68750  -0.86617
 Alpha  occ. eigenvalues --   -0.86527  -0.85894  -0.85869  -0.79878  -0.79810
 Alpha  occ. eigenvalues --   -0.79212  -0.79202  -0.77310  -0.75924  -0.74539
 Alpha  occ. eigenvalues --   -0.74493  -0.73709  -0.73652  -0.73173  -0.73157
 Alpha  occ. eigenvalues --   -0.71752  -0.65689  -0.65629  -0.65124  -0.64887
 Alpha  occ. eigenvalues --   -0.63466  -0.61793  -0.60013  -0.59974  -0.58691
 Alpha  occ. eigenvalues --   -0.58377  -0.57967  -0.57589  -0.54923  -0.54244
 Alpha  occ. eigenvalues --   -0.51062  -0.50828  -0.49387  -0.48909  -0.46467
 Alpha  occ. eigenvalues --   -0.46385  -0.46097  -0.45980  -0.44769  -0.44533
 Alpha  occ. eigenvalues --   -0.44484  -0.44475  -0.44412  -0.44020  -0.43944
 Alpha  occ. eigenvalues --   -0.43885  -0.43782  -0.43698  -0.43182  -0.43139
 Alpha  occ. eigenvalues --   -0.42962  -0.41451  -0.40645  -0.39849  -0.39708
 Alpha  occ. eigenvalues --   -0.39550  -0.39273  -0.39174  -0.38026  -0.37863
 Alpha  occ. eigenvalues --   -0.37642  -0.37386  -0.37223  -0.36228  -0.35144
 Alpha  occ. eigenvalues --   -0.35067  -0.34647  -0.34390  -0.33761  -0.33641
 Alpha  occ. eigenvalues --   -0.32600  -0.31654  -0.31447  -0.31010  -0.30428
 Alpha  occ. eigenvalues --   -0.29198  -0.28860  -0.28183  -0.28061  -0.26493
 Alpha  occ. eigenvalues --   -0.26186  -0.25703  -0.25165  -0.22027  -0.21403
 Alpha  occ. eigenvalues --   -0.21179  -0.21022  -0.20447  -0.18346
 Alpha virt. eigenvalues --   -0.03292  -0.02969  -0.02107  -0.02065  -0.01216
 Alpha virt. eigenvalues --   -0.00976  -0.00863  -0.00684   0.02200   0.02309
 Alpha virt. eigenvalues --    0.02524   0.02899   0.03680   0.04236   0.04353

 Mulliken charges:
               1
     1  P    0.146984
     2  P    0.155389
     3  C   -0.370786
     4  H    0.134889
     5  H    0.140296
     6  C   -0.044087
     7  C   -0.109126
     8  H    0.115859
     9  C   -0.133314
    10  H    0.106427
    11  C   -0.101275
    12  H    0.107776
    13  C   -0.210968
    14  H    0.110267
    15  C    0.098201
    16  C   -0.003439
    17  C   -0.085293
    18  H    0.120004
    19  C   -0.179663
    20  H    0.100384
    21  C   -0.106067
    22  H    0.102371
    23  C   -0.206780
    24  H    0.108057
    25  C    0.075821
    26  C    0.016197
    27  C   -0.099255
    28  H    0.096380
    29  C   -0.164958
    30  H    0.100933
    31  C   -0.110834
    32  H    0.102689
    33  C   -0.200847
    34  H    0.107540
    35  C    0.068456
    36  C   -0.058055
    37  C   -0.092096
    38  H    0.115376
    39  C   -0.134132
    40  H    0.106684
    41  C   -0.098469
    42  H    0.107768
    43  C   -0.217958
    44  H    0.110884
    45  C    0.102686
    46  C   -0.380953
    47  H    0.141305
    48  H    0.133007
    49  H    0.143589
    50  C   -0.387567
    51  H    0.137882
    52  H    0.140312
    53  H    0.143915
    54  C   -0.386157
    55  H    0.144368
    56  H    0.138088
    57  H    0.140221
    58  C   -0.380850
    59  H    0.140918
    60  H    0.132736
    61  H    0.143901
    62  S   -0.012433
    63  S   -0.025734
    64  S   -0.012075
    65  S   -0.025390
 Sum of Mulliken charges =  -0.00000

 Dipole moment (field-independent basis, Debye):
    X=             -0.0432    Y=              0.2053    Z=              2.6642  Tot=              2.6724
 Quadrupole moment (field-independent basis, Debye-Ang):
   XX=           -220.9547   YY=           -232.0553   ZZ=           -233.6581
   XY=              3.0037   XZ=             -0.1064   YZ=             -0.5352

 Summary of Natural Population Analysis:

                                       Natural Population
                Natural  -----------------------------------------------
    Atom  No    Charge         Core      Valence    Rydberg      Total
 -----------------------------------------------------------------------
      P    1    0.83665      9.99811     4.13256    0.03267    14.16335
      P    2    0.83594      9.99811     4.13318    0.03277    14.16406
      C    3   -0.99881      1.99942     4.96530    0.03409     6.99881
      H    4    0.25286      0.00000     0.74492    0.00222     0.74714
      H    5    0.25593      0.00000     0.74151    0.00256     0.74407
      C    6   -0.34810      1.99889     4.31396    0.03524     6.34810
      C    7   -0.17293      1.99910     4.15336    0.02047     6.17293
      H    8    0.22266      0.00000     0.77581    0.00153     0.77734
      C    9   -0.22722      1.99916     4.20797    0.02009     6.22722
      H   10    0.21070      0.00000     0.78804    0.00126     0.78930
      C   11   -0.18039      1.99918     4.16265    0.01856     6.18039
      H   12    0.20761      0.00000     0.79115    0.00124     0.79239
      C   13   -0.24103      1.99905     4.22164    0.02034     6.24103
      H   14    0.20362      0.00000     0.79366    0.00273     0.79638
      C   15   -0.16232      1.99873     4.13274    0.03085     6.16232
      C   16   -0.33174      1.99887     4.29967    0.03320     6.33174
      C   17   -0.19722      1.99908     4.17848    0.01967     6.19722
      H   18    0.20580      0.00000     0.79181    0.00239     0.79420
      C   19   -0.21454      1.99917     4.19618    0.01920     6.21454
      H   20    0.20788      0.00000     0.79085    0.00127     0.79212
      C   21   -0.20033      1.99918     4.18211    0.01905     6.20033
      H   22    0.20631      0.00000     0.79245    0.00124     0.79369
      C   23   -0.22812      1.99905     4.20924    0.01983     6.22812
      H   24    0.20388      0.00000     0.79358    0.00254     0.79612
      C   25   -0.16922      1.99874     4.13998    0.03051     6.16922
      C   26   -0.32888      1.99887     4.29695    0.03305     6.32888
      C   27   -0.19632      1.99908     4.17789    0.01935     6.19632
      H   28    0.20142      0.00000     0.79664    0.00194     0.79858
      C   29   -0.21446      1.99916     4.19609    0.01920     6.21446
      H   30    0.20754      0.00000     0.79119    0.00127     0.79246
      C   31   -0.20103      1.99917     4.18281    0.01905     6.20103
      H   32    0.20649      0.00000     0.79227    0.00124     0.79351
      C   33   -0.22690      1.99905     4.20802    0.01984     6.22690
      H   34    0.20389      0.00000     0.79356    0.00255     0.79611
      C   35   -0.16963      1.99874     4.14042    0.03047     6.16963
      C   36   -0.34976      1.99889     4.31531    0.03556     6.34976
      C   37   -0.17064      1.99909     4.15101    0.02053     6.17064
      H   38    0.22388      0.00000     0.77460    0.00152     0.77612
      C   39   -0.22709      1.99916     4.20783    0.02011     6.22709
      H   40    0.21108      0.00000     0.78766    0.00126     0.78892
      C   41   -0.17981      1.99918     4.16206    0.01858     6.17981
      H   42    0.20777      0.00000     0.79098    0.00124     0.79223
      C   43   -0.24183      1.99905     4.22237    0.02041     6.24183
      H   44    0.20387      0.00000     0.79338    0.00275     0.79613
      C   45   -0.16361      1.99873     4.13383    0.03105     6.16361
      C   46   -0.72289      1.99935     4.71348    0.01006     6.72289
      H   47    0.22752      0.00000     0.77134    0.00115     0.77248
      H   48    0.20669      0.00000     0.79127    0.00203     0.79331
      H   49    0.21567      0.00000     0.78217    0.00216     0.78433
      C   50   -0.72726      1.99935     4.71781    0.01010     6.72726
      H   51    0.21013      0.00000     0.78773    0.00213     0.78987
      H   52    0.21294      0.00000     0.78485    0.00221     0.78706
      H   53    0.22882      0.00000     0.77006    0.00112     0.77118
      C   54   -0.72764      1.99935     4.71817    0.01012     6.72764
      H   55    0.22912      0.00000     0.76975    0.00112     0.77088
      H   56    0.21058      0.00000     0.78728    0.00214     0.78942
      H   57    0.21291      0.00000     0.78488    0.00220     0.78709
      C   58   -0.72272      1.99935     4.71331    0.01006     6.72272
      H   59    0.22738      0.00000     0.77147    0.00115     0.77262
      H   60    0.20637      0.00000     0.79161    0.00202     0.79363
      H   61    0.21591      0.00000     0.78194    0.00215     0.78409
      S   62    0.28698      9.99912     5.67912    0.03479    15.71302
      S   63    0.27514      9.99915     5.69180    0.03391    15.72486
      S   64    0.28656      9.99912     5.67955    0.03477    15.71344
      S   65    0.27393      9.99915     5.69294    0.03398    15.72607
 =======================================================================
   * Total *    0.00000    117.96593   179.12820    0.90586   298.00000

 Normal termination of Gaussian 16 at Fri Jan 24 03:14:50 2025.
