 Gaussian 16, Revision B.01,
 Gaussian 16:  ES64L-G16RevB.01 20-Dec-2017

 --------------------------------------------
 # nmr=giao b3lyp/def2TZVP pop=nbo scfcyc=200
 --------------------------------------------

 --------------
 MB-28 SPE NoRh
 --------------
 Symbolic Z-matrix:
 Charge =  0 Multiplicity = 1

                         Standard orientation:
 ---------------------------------------------------------------------
 Center     Atomic      Atomic             Coordinates (Angstroms)
 Number     Number       Type             X           Y           Z
 ---------------------------------------------------------------------
      1         15           0        0.844265   -0.091039   -1.016719
      2         15           0       -1.876551   -0.423016   -1.557242
      3          6           0       -0.600977   -1.103359   -0.373384
      4          6           0        3.331563   -1.183442    2.017138
      5          6           0        4.570348   -3.021334   -0.139835
      6          6           0        2.641675    3.448541    1.658032
      7          6           0        3.832775    2.282542   -0.945852
      8          6           0       -4.741278    1.735177    1.643164
      9          6           0       -3.497355   -1.086045    1.930107
     10          1           0       -0.817756   -1.009307    0.690414
     11          1           0       -0.437968   -2.155662   -0.607133
     12          1           0        3.857970   -1.797230    2.753432
     13          1           0        3.972991   -0.329081    1.791766
     14          1           0        2.425664   -0.813291    2.500847
     15          1           0        4.996885   -3.673055    0.626397
     16          1           0        4.399969   -3.630349   -1.031275
     17          1           0        5.322754   -2.268621   -0.387864
     18          1           0        3.231285    4.363655    1.564884
     19          1           0        1.736846    3.697515    2.217880
     20          1           0        3.221345    2.741536    2.255319
     21          1           0        4.454486    3.173072   -1.068412
     22          1           0        4.420615    1.557287   -0.377567
     23          1           0        3.660111    1.872085   -1.943191
     24          1           0       -5.158759    2.483722    0.965955
     25          1           0       -5.498863    1.518452    2.399582
     26          1           0       -3.886223    2.183703    2.153026
     27          1           0       -4.236135   -1.351539    2.691307
     28          1           0       -3.187690   -2.015357    1.446336
     29          1           0       -2.633618   -0.668661    2.452288
     30          6           0        2.348272   -1.165748   -1.008820
     31          1           0        3.176656   -0.520256   -1.314548
     32          1           0        2.205812   -1.864999   -1.839994
     33          6           0        1.099347    1.215449    0.266269
     34          1           0        1.429690    0.716102    1.181010
     35          1           0        0.107840    1.626864    0.478644
     36          6           0       -2.978644    0.724622   -0.616175
     37          1           0       -3.537264    1.287109   -1.371947
     38          1           0       -2.311067    1.459166   -0.155743
     39          6           0       -5.782041   -0.583576   -0.120582
     40          1           0       -6.204064    0.104900   -0.856987
     41          1           0       -5.575656   -1.529095   -0.623835
     42          1           0       -6.557814   -0.775070    0.625904
     43          6           0        1.246898    4.015204   -1.049401
     44          1           0        0.854676    3.591585   -1.975840
     45          1           0        0.399478    4.392317   -0.471848
     46          1           0        1.871808    4.873384   -1.310136
     47          6           0        1.712350   -3.579376    0.907474
     48          1           0        0.801886   -3.178636    1.357030
     49          1           0        1.431864   -4.166703    0.029706
     50          1           0        2.150488   -4.271553    1.631852
     51         14           0        2.231569    2.748661   -0.048096
     52         14           0        2.969988   -2.230659    0.483077
     53         14           0       -4.258614    0.156568    0.721482
     54          6           0       -2.920333   -1.854082   -2.079603
     55          1           0       -3.351226   -2.368028   -1.220968
     56          1           0       -3.727053   -1.504540   -2.724450
     57          1           0       -2.302478   -2.552025   -2.644104
 ---------------------------------------------------------------------

 SCF Done:  E(RB3LYP) =  -2108.04131517     A.U. after   13 cycles

      1  P    Isotropic =   258.6858   Anisotropy =   122.0038

      2  P    Isotropic =   267.6309   Anisotropy =   113.9497

      3  C    Isotropic =   151.8462   Anisotropy =    22.0754

      4  C    Isotropic =   181.3636   Anisotropy =     4.9180

      5  C    Isotropic =   181.3098   Anisotropy =    14.0164

      6  C    Isotropic =   182.2203   Anisotropy =    10.1930

      7  C    Isotropic =   184.3021   Anisotropy =     4.8311

      8  C    Isotropic =   181.8004   Anisotropy =    12.2758

      9  C    Isotropic =   183.1364   Anisotropy =     3.7166

     10  H    Isotropic =    30.2300   Anisotropy =     6.2821

     11  H    Isotropic =    30.8750   Anisotropy =     7.0227

     12  H    Isotropic =    31.8036   Anisotropy =    10.2190

     13  H    Isotropic =    31.7580   Anisotropy =     7.6807

     14  H    Isotropic =    31.7070   Anisotropy =     6.2973

     15  H    Isotropic =    32.0564   Anisotropy =    10.1732

     16  H    Isotropic =    31.8939   Anisotropy =     8.4535

     17  H    Isotropic =    31.8881   Anisotropy =     7.7742

     18  H    Isotropic =    31.9249   Anisotropy =    10.4077

     19  H    Isotropic =    31.8977   Anisotropy =     7.9834

     20  H    Isotropic =    31.9105   Anisotropy =     7.5788

     21  H    Isotropic =    31.9836   Anisotropy =    10.5135

     22  H    Isotropic =    31.9876   Anisotropy =     7.6190

     23  H    Isotropic =    31.6264   Anisotropy =     6.8468

     24  H    Isotropic =    31.8715   Anisotropy =     8.4342

     25  H    Isotropic =    31.9718   Anisotropy =    10.1378

     26  H    Isotropic =    31.9494   Anisotropy =     7.6487

     27  H    Isotropic =    31.8600   Anisotropy =    10.1317

     28  H    Isotropic =    31.5894   Anisotropy =     6.6407

     29  H    Isotropic =    31.8304   Anisotropy =     7.6309

     30  C    Isotropic =   160.4594   Anisotropy =    24.6817

     31  H    Isotropic =    31.2824   Anisotropy =     6.6764

     32  H    Isotropic =    30.9512   Anisotropy =     5.4787

     33  C    Isotropic =   164.7666   Anisotropy =    26.4845

     34  H    Isotropic =    30.2455   Anisotropy =     5.7964

     35  H    Isotropic =    31.5888   Anisotropy =     7.2556

     36  C    Isotropic =   164.1285   Anisotropy =    23.3126

     37  H    Isotropic =    31.1468   Anisotropy =     7.3429

     38  H    Isotropic =    31.2109   Anisotropy =     6.5991

     39  C    Isotropic =   181.4978   Anisotropy =    10.8446

     40  H    Isotropic =    31.8521   Anisotropy =     8.6337

     41  H    Isotropic =    31.7445   Anisotropy =     6.9956

     42  H    Isotropic =    31.8894   Anisotropy =    10.2066

     43  C    Isotropic =   184.9776   Anisotropy =     8.3774

     44  H    Isotropic =    31.3518   Anisotropy =     7.5225

     45  H    Isotropic =    32.0360   Anisotropy =     8.2975

     46  H    Isotropic =    32.0097   Anisotropy =    10.4257

     47  C    Isotropic =   182.1417   Anisotropy =     5.5400

     48  H    Isotropic =    31.7214   Anisotropy =     8.2363

     49  H    Isotropic =    31.9138   Anisotropy =     7.7193

     50  H    Isotropic =    31.8964   Anisotropy =    10.0381

     51  Si   Isotropic =   312.6331   Anisotropy =     6.8632

     52  Si   Isotropic =   310.9316   Anisotropy =    13.7686

     53  Si   Isotropic =   311.4771   Anisotropy =    14.1896

     54  C    Isotropic =   167.8258   Anisotropy =    19.8763

     55  H    Isotropic =    30.0937   Anisotropy =     6.6734

     56  H    Isotropic =    31.1399   Anisotropy =     8.8300

     57  H    Isotropic =    30.8230   Anisotropy =     7.9099

 The electronic state is 1-A.
 Alpha  occ. eigenvalues --  -77.03256 -77.03191 -66.09193 -66.09160 -66.09028
 Alpha  occ. eigenvalues --  -10.16972 -10.16040 -10.15426 -10.15154 -10.15081
 Alpha  occ. eigenvalues --  -10.15014 -10.14993 -10.14841 -10.14803 -10.14700
 Alpha  occ. eigenvalues --  -10.14622 -10.14617 -10.14473 -10.14272  -6.51735
 Alpha  occ. eigenvalues --   -6.51728  -5.25246  -5.25240  -5.25112  -4.67902
 Alpha  occ. eigenvalues --   -4.67889  -4.67856  -4.67849  -4.67347  -4.67333
 Alpha  occ. eigenvalues --   -3.61075  -3.61055  -3.61019  -3.61016  -3.61009
 Alpha  occ. eigenvalues --   -3.61007  -3.60921  -3.60894  -3.60879  -0.76250
 Alpha  occ. eigenvalues --   -0.73572  -0.71873  -0.71719  -0.70750  -0.68425
 Alpha  occ. eigenvalues --   -0.68364  -0.68327  -0.68161  -0.68014  -0.67848
 Alpha  occ. eigenvalues --   -0.67762  -0.67258  -0.66909  -0.52653  -0.51910
 Alpha  occ. eigenvalues --   -0.46405  -0.46070  -0.45618  -0.43838  -0.43691
 Alpha  occ. eigenvalues --   -0.42722  -0.42291  -0.42148  -0.41645  -0.41575
 Alpha  occ. eigenvalues --   -0.41358  -0.41287  -0.41084  -0.40795  -0.40635
 Alpha  occ. eigenvalues --   -0.40269  -0.40070  -0.39825  -0.39288  -0.39219
 Alpha  occ. eigenvalues --   -0.39067  -0.38951  -0.38723  -0.38645  -0.38493
 Alpha  occ. eigenvalues --   -0.38313  -0.38289  -0.37078  -0.34201  -0.33224
 Alpha  occ. eigenvalues --   -0.31818  -0.31337  -0.31084  -0.30478  -0.30466
 Alpha  occ. eigenvalues --   -0.30180  -0.29979  -0.29920  -0.29545  -0.28072
 Alpha  occ. eigenvalues --   -0.20455  -0.16828
 Alpha virt. eigenvalues --    0.00704   0.01679   0.02060   0.02976   0.04145
 Alpha virt. eigenvalues --    0.04470   0.04664   0.05070   0.05472   0.05589
 Alpha virt. eigenvalues --    0.05960   0.06306   0.06713   0.07107   0.07133

 Mulliken charges:
               1
     1  P    0.172207
     2  P    0.182900
     3  C   -0.376174
     4  C   -0.475269
     5  C   -0.451837
     6  C   -0.458172
     7  C   -0.491751
     8  C   -0.458904
     9  C   -0.470660
    10  H    0.114739
    11  H    0.128481
    12  H    0.119736
    13  H    0.119090
    14  H    0.120241
    15  H    0.111081
    16  H    0.115415
    17  H    0.114987
    18  H    0.114219
    19  H    0.113831
    20  H    0.117904
    21  H    0.119366
    22  H    0.116503
    23  H    0.133204
    24  H    0.116521
    25  H    0.111911
    26  H    0.112486
    27  H    0.120414
    28  H    0.126181
    29  H    0.115231
    30  C   -0.382628
    31  H    0.128015
    32  H    0.114934
    33  C   -0.383206
    34  H    0.103879
    35  H    0.097429
    36  C   -0.387515
    37  H    0.120179
    38  H    0.117017
    39  C   -0.455669
    40  H    0.117390
    41  H    0.124357
    42  H    0.114964
    43  C   -0.471046
    44  H    0.137503
    45  H    0.111372
    46  H    0.111082
    47  C   -0.480085
    48  H    0.124763
    49  H    0.116801
    50  H    0.118937
    51  Si   0.475112
    52  Si   0.436623
    53  Si   0.425419
    54  C   -0.425900
    55  H    0.103939
    56  H    0.126577
    57  H    0.125875
 Sum of Mulliken charges =  -0.00000

 Dipole moment (field-independent basis, Debye):
    X=             -0.1641    Y=             -0.6060    Z=              1.9258  Tot=              2.0255
 Quadrupole moment (field-independent basis, Debye-Ang):
   XX=           -158.6806   YY=           -161.1107   ZZ=           -170.2990
   XY=              0.6146   XZ=             -0.2105   YZ=              1.5098

 Summary of Natural Population Analysis:

                                       Natural Population
                Natural  -----------------------------------------------
    Atom  No    Charge         Core      Valence    Rydberg      Total
 -----------------------------------------------------------------------
      P    1    0.83356      9.99863     4.12525    0.04256    14.16644
      P    2    0.81780      9.99875     4.14061    0.04283    14.18220
      C    3   -1.02593      1.99947     4.99514    0.03132     7.02593
      C    4   -1.09637      1.99943     5.07776    0.01918     7.09637
      C    5   -1.09139      1.99944     5.07299    0.01896     7.09139
      C    6   -1.09079      1.99944     5.07231    0.01904     7.09079
      C    7   -1.09768      1.99943     5.07922    0.01902     7.09768
      C    8   -1.09084      1.99944     5.07259    0.01881     7.09084
      C    9   -1.09705      1.99943     5.07842    0.01919     7.09705
      H   10    0.22879      0.00000     0.76804    0.00316     0.77121
      H   11    0.24539      0.00000     0.75299    0.00162     0.75461
      H   12    0.22917      0.00000     0.77003    0.00080     0.77083
      H   13    0.22805      0.00000     0.77089    0.00106     0.77195
      H   14    0.22751      0.00000     0.77153    0.00096     0.77249
      H   15    0.22415      0.00000     0.77497    0.00088     0.77585
      H   16    0.22842      0.00000     0.77078    0.00081     0.77158
      H   17    0.22798      0.00000     0.77122    0.00080     0.77202
      H   18    0.22689      0.00000     0.77229    0.00082     0.77311
      H   19    0.22827      0.00000     0.77092    0.00081     0.77173
      H   20    0.22830      0.00000     0.77082    0.00088     0.77170
      H   21    0.22919      0.00000     0.77005    0.00076     0.77081
      H   22    0.22509      0.00000     0.77389    0.00101     0.77491
      H   23    0.23515      0.00000     0.76384    0.00102     0.76485
      H   24    0.22899      0.00000     0.77022    0.00078     0.77101
      H   25    0.22505      0.00000     0.77408    0.00087     0.77495
      H   26    0.22685      0.00000     0.77234    0.00080     0.77315
      H   27    0.22886      0.00000     0.77037    0.00077     0.77114
      H   28    0.22995      0.00000     0.76900    0.00105     0.77005
      H   29    0.22753      0.00000     0.77153    0.00093     0.77247
      C   30   -1.17734      1.99936     5.15201    0.02597     7.17734
      H   31    0.24748      0.00000     0.75135    0.00117     0.75252
      H   32    0.24229      0.00000     0.75670    0.00100     0.75771
      C   33   -1.18177      1.99938     5.15418    0.02821     7.18177
      H   34    0.22470      0.00000     0.77237    0.00293     0.77530
      H   35    0.23960      0.00000     0.75885    0.00154     0.76040
      C   36   -1.17211      1.99936     5.14658    0.02617     7.17211
      H   37    0.24547      0.00000     0.75358    0.00094     0.75453
      H   38    0.24062      0.00000     0.75796    0.00142     0.75938
      C   39   -1.09415      1.99943     5.07574    0.01897     7.09415
      H   40    0.22929      0.00000     0.76990    0.00080     0.77071
      H   41    0.23080      0.00000     0.76802    0.00118     0.76920
      H   42    0.22741      0.00000     0.77180    0.00079     0.77259
      C   43   -1.09326      1.99944     5.07511    0.01871     7.09326
      H   44    0.23955      0.00000     0.75927    0.00118     0.76045
      H   45    0.22594      0.00000     0.77324    0.00082     0.77406
      H   46    0.22633      0.00000     0.77292    0.00075     0.77367
      C   47   -1.09621      1.99944     5.07756    0.01921     7.09621
      H   48    0.22969      0.00000     0.76935    0.00096     0.77031
      H   49    0.22784      0.00000     0.77128    0.00087     0.77216
      H   50    0.22827      0.00000     0.77094    0.00080     0.77173
     Si   51    1.65917      9.99835     2.31578    0.02669    12.34083
     Si   52    1.63910      9.99834     2.33633    0.02623    12.36090
     Si   53    1.63844      9.99836     2.33698    0.02623    12.36156
      C   54   -0.92244      1.99946     4.90433    0.01865     6.92244
      H   55    0.20027      0.00000     0.79701    0.00272     0.79973
      H   56    0.22791      0.00000     0.77112    0.00097     0.77209
      H   57    0.22615      0.00000     0.77290    0.00095     0.77385
 =======================================================================
   * Total *   -0.00000     77.98440   115.50723    0.50837   194.00000

 Normal termination of Gaussian 16 at Thu Jan 23 20:56:33 2025.
