 Gaussian 16, Revision B.01,
 Gaussian 16:  ES64L-G16RevB.01 20-Dec-2017

 --------------------------------------------
 # nmr=giao b3lyp/def2TZVP pop=nbo scfcyc=200
 --------------------------------------------

 --------------
 MB-29 SPE NoRh
 --------------
 Symbolic Z-matrix:
 Charge =  0 Multiplicity = 1

                         Standard orientation:
 ---------------------------------------------------------------------
 Center     Atomic      Atomic             Coordinates (Angstroms)
 Number     Number       Type             X           Y           Z
 ---------------------------------------------------------------------
      1         15           0        1.345016   -0.209157   -0.539975
      2         15           0       -1.351661    0.093706   -0.519915
      3          6           0        0.000848   -0.124208    0.748697
      4          8           0        2.210818   -1.564836   -0.331517
      5          6           0        2.789751   -2.003822    0.956826
      6          6           0        4.293248   -2.106916    0.781788
      7          6           0        2.138838   -3.325605    1.323863
      8          8           0        2.264918    1.052163   -0.049911
      9          6           0        3.017286    1.938079   -0.947359
     10          6           0        3.117034    3.274225   -0.233783
     11          6           0        4.370629    1.334035   -1.280208
     12          8           0       -2.078095    1.525361   -0.277968
     13          6           0       -2.609083    1.991514    1.020544
     14          6           0       -4.093739    2.253229    0.849129
     15          6           0       -1.826271    3.230330    1.417431
     16          8           0       -2.384166   -1.073359   -0.023278
     17          6           0       -3.221996   -1.891206   -0.909673
     18          6           0       -3.491036   -3.182249   -0.158665
     19          6           0       -4.488449   -1.143993   -1.289358
     20          1           0        0.136977    0.709651    1.434893
     21          1           0       -0.137824   -1.051750    1.301834
     22          1           0        2.557673   -1.245259    1.708316
     23          1           0        4.750781   -2.450340    1.711430
     24          1           0        4.538970   -2.822846   -0.004548
     25          1           0        4.728815   -1.142031    0.525038
     26          1           0        2.543051   -3.688510    2.271298
     27          1           0        1.059094   -3.225768    1.433574
     28          1           0        2.339148   -4.075029    0.556366
     29          1           0        2.422189    2.054244   -1.856934
     30          1           0        3.652326    3.990715   -0.859374
     31          1           0        2.127881    3.676309   -0.019471
     32          1           0        3.661844    3.167451    0.705675
     33          1           0        4.916166    1.996965   -1.955149
     34          1           0        4.968721    1.208531   -0.374974
     35          1           0        4.274436    0.362250   -1.766075
     36          1           0       -2.459010    1.194695    1.754327
     37          1           0       -4.625920    1.344479    0.568712
     38          1           0       -4.515247    2.617888    1.787899
     39          1           0       -4.262659    3.009723    0.080811
     40          1           0       -2.189887    3.609847    2.373858
     41          1           0       -0.761599    3.016859    1.520824
     42          1           0       -1.948252    4.013922    0.668821
     43          1           0       -2.628130   -2.106460   -1.801657
     44          1           0       -4.093033   -3.851883   -0.774969
     45          1           0       -2.559750   -3.689508    0.091686
     46          1           0       -4.038333   -2.982249    0.763940
     47          1           0       -5.093523   -1.758088   -1.958613
     48          1           0       -5.085220   -0.923077   -0.402805
     49          1           0       -4.270173   -0.204074   -1.800373
 ---------------------------------------------------------------------

 SCF Done:  E(RB3LYP) =  -1497.50553865     A.U. after   13 cycles

      1  P    Isotropic =    82.2968   Anisotropy =   232.5334

      2  P    Isotropic =    82.2616   Anisotropy =   233.4728

      3  C    Isotropic =   139.4930   Anisotropy =    22.8688

      4  O    Isotropic =   174.9192   Anisotropy =    94.8086

      5  C    Isotropic =   104.8459   Anisotropy =    72.0820

      6  C    Isotropic =   158.0467   Anisotropy =    37.3789

      7  C    Isotropic =   157.8729   Anisotropy =    37.9260

      8  O    Isotropic =   164.8940   Anisotropy =    81.9572

      9  C    Isotropic =   100.6012   Anisotropy =    79.4099

     10  C    Isotropic =   157.3068   Anisotropy =    39.0637

     11  C    Isotropic =   157.3117   Anisotropy =    35.2463

     12  O    Isotropic =   177.9195   Anisotropy =    92.5016

     13  C    Isotropic =   105.3317   Anisotropy =    71.2910

     14  C    Isotropic =   157.9859   Anisotropy =    37.5227

     15  C    Isotropic =   157.9650   Anisotropy =    37.7819

     16  O    Isotropic =   164.7537   Anisotropy =    84.7765

     17  C    Isotropic =   100.8109   Anisotropy =    78.6856

     18  C    Isotropic =   157.2555   Anisotropy =    39.2146

     19  C    Isotropic =   157.4712   Anisotropy =    35.1776

     20  H    Isotropic =    29.7407   Anisotropy =     4.0877

     21  H    Isotropic =    30.0120   Anisotropy =     4.5353

     22  H    Isotropic =    27.6331   Anisotropy =     2.8455

     23  H    Isotropic =    30.9819   Anisotropy =     9.4478

     24  H    Isotropic =    30.7846   Anisotropy =     6.4247

     25  H    Isotropic =    30.3442   Anisotropy =     7.8551

     26  H    Isotropic =    30.9995   Anisotropy =     9.4066

     27  H    Isotropic =    30.6380   Anisotropy =     7.4926

     28  H    Isotropic =    30.7649   Anisotropy =     6.3080

     29  H    Isotropic =    27.6265   Anisotropy =     2.9972

     30  H    Isotropic =    30.9422   Anisotropy =     9.5172

     31  H    Isotropic =    30.5347   Anisotropy =     7.8399

     32  H    Isotropic =    30.7110   Anisotropy =     5.4327

     33  H    Isotropic =    30.8973   Anisotropy =     9.7580

     34  H    Isotropic =    30.8442   Anisotropy =     4.9590

     35  H    Isotropic =    30.2786   Anisotropy =     6.0772

     36  H    Isotropic =    27.5722   Anisotropy =     2.6066

     37  H    Isotropic =    30.3476   Anisotropy =     7.9210

     38  H    Isotropic =    30.9662   Anisotropy =     9.4745

     39  H    Isotropic =    30.7834   Anisotropy =     6.3981

     40  H    Isotropic =    31.0134   Anisotropy =     9.3779

     41  H    Isotropic =    30.5857   Anisotropy =     7.8127

     42  H    Isotropic =    30.7997   Anisotropy =     6.1006

     43  H    Isotropic =    27.6205   Anisotropy =     3.2115

     44  H    Isotropic =    30.9387   Anisotropy =     9.5441

     45  H    Isotropic =    30.5268   Anisotropy =     7.6847

     46  H    Isotropic =    30.7018   Anisotropy =     5.5084

     47  H    Isotropic =    30.9206   Anisotropy =     9.7596

     48  H    Isotropic =    30.8686   Anisotropy =     4.9366

     49  H    Isotropic =    30.2503   Anisotropy =     5.9419

 The electronic state is 1-A.
 Alpha  occ. eigenvalues --  -77.08797 -77.08707 -19.12911 -19.12897 -19.12375
 Alpha  occ. eigenvalues --  -19.12327 -10.23021 -10.22966 -10.22937 -10.22931
 Alpha  occ. eigenvalues --  -10.16387 -10.16350 -10.16338 -10.16212 -10.16208
 Alpha  occ. eigenvalues --  -10.16192 -10.16159 -10.16143 -10.16140  -6.56464
 Alpha  occ. eigenvalues --   -6.56384  -4.72750  -4.72670  -4.72611  -4.72530
 Alpha  occ. eigenvalues --   -4.72043  -4.71961  -1.02986  -1.02845  -0.99947
 Alpha  occ. eigenvalues --   -0.99924  -0.79321  -0.78912  -0.77954  -0.77922
 Alpha  occ. eigenvalues --   -0.72489  -0.69613  -0.69610  -0.69396  -0.69353
 Alpha  occ. eigenvalues --   -0.62476  -0.60941  -0.59529  -0.59270  -0.55348
 Alpha  occ. eigenvalues --   -0.54706  -0.51485  -0.51153  -0.47303  -0.46148
 Alpha  occ. eigenvalues --   -0.45892  -0.45830  -0.45226  -0.44667  -0.44045
 Alpha  occ. eigenvalues --   -0.44014  -0.42997  -0.42103  -0.41549  -0.39893
 Alpha  occ. eigenvalues --   -0.39590  -0.39455  -0.39453  -0.39407  -0.39058
 Alpha  occ. eigenvalues --   -0.38949  -0.38727  -0.38635  -0.37477  -0.37427
 Alpha  occ. eigenvalues --   -0.37173  -0.36684  -0.36191  -0.36073  -0.35031
 Alpha  occ. eigenvalues --   -0.33375  -0.33299  -0.32585  -0.32303  -0.30473
 Alpha  occ. eigenvalues --   -0.28539  -0.28474  -0.28246  -0.22431  -0.18665
 Alpha virt. eigenvalues --    0.00269   0.02465   0.03728   0.03853   0.03927
 Alpha virt. eigenvalues --    0.04521   0.05683   0.06230   0.06656   0.07520
 Alpha virt. eigenvalues --    0.07759   0.07992   0.08155   0.08747   0.09092

 Mulliken charges:
               1
     1  P    0.391891
     2  P    0.397701
     3  C   -0.343705
     4  O   -0.354066
     5  C    0.093092
     6  C   -0.317257
     7  C   -0.306546
     8  O   -0.378295
     9  C    0.123367
    10  C   -0.305203
    11  C   -0.339918
    12  O   -0.356734
    13  C    0.089179
    14  C   -0.315625
    15  C   -0.309738
    16  O   -0.376874
    17  C    0.121885
    18  C   -0.300278
    19  C   -0.338562
    20  H    0.117063
    21  H    0.116295
    22  H    0.077099
    23  H    0.100100
    24  H    0.107124
    25  H    0.118603
    26  H    0.100422
    27  H    0.109180
    28  H    0.108881
    29  H    0.068871
    30  H    0.098501
    31  H    0.117460
    32  H    0.102065
    33  H    0.108361
    34  H    0.096686
    35  H    0.133327
    36  H    0.079190
    37  H    0.117276
    38  H    0.099943
    39  H    0.106917
    40  H    0.101177
    41  H    0.113332
    42  H    0.108070
    43  H    0.068038
    44  H    0.098015
    45  H    0.113479
    46  H    0.102519
    47  H    0.108588
    48  H    0.096442
    49  H    0.132660
 Sum of Mulliken charges =  -0.00000

 Dipole moment (field-independent basis, Debye):
    X=             -0.0394    Y=              0.0362    Z=              2.4172  Tot=              2.4178
 Quadrupole moment (field-independent basis, Debye-Ang):
   XX=           -123.1277   YY=           -128.1601   ZZ=           -135.8424
   XY=              2.8523   XZ=              0.3672   YZ=             -0.2760

 Summary of Natural Population Analysis:

                                       Natural Population
                Natural  -----------------------------------------------
    Atom  No    Charge         Core      Valence    Rydberg      Total
 -----------------------------------------------------------------------
      P    1    1.33444      9.99856     3.56988    0.09712    13.66556
      P    2    1.33608      9.99857     3.56827    0.09708    13.66392
      C    3   -1.14498      1.99948     5.11299    0.03251     7.14498
      O    4   -0.79720      1.99982     6.78308    0.01431     8.79720
      C    5    0.09068      1.99930     3.89093    0.01909     5.90932
      C    6   -0.60498      1.99941     4.59388    0.01168     6.60498
      C    7   -0.60562      1.99942     4.59478    0.01142     6.60562
      O    8   -0.82104      1.99980     6.80595    0.01529     8.82104
      C    9    0.10787      1.99930     3.87294    0.01989     5.89213
      C   10   -0.60089      1.99942     4.58963    0.01184     6.60089
      C   11   -0.61584      1.99942     4.60459    0.01184     6.61584
      O   12   -0.79754      1.99982     6.78338    0.01434     8.79754
      C   13    0.09072      1.99930     3.89075    0.01923     5.90928
      C   14   -0.60450      1.99941     4.59342    0.01166     6.60450
      C   15   -0.60656      1.99942     4.59559    0.01155     6.60656
      O   16   -0.82197      1.99979     6.80716    0.01501     8.82197
      C   17    0.10875      1.99930     3.87214    0.01981     5.89125
      C   18   -0.60043      1.99942     4.58916    0.01185     6.60043
      C   19   -0.61611      1.99942     4.60482    0.01188     6.61611
      H   20    0.25238      0.00000     0.74532    0.00229     0.74762
      H   21    0.25439      0.00000     0.74348    0.00212     0.74561
      H   22    0.16986      0.00000     0.82749    0.00265     0.83014
      H   23    0.20314      0.00000     0.79585    0.00101     0.79686
      H   24    0.20677      0.00000     0.79186    0.00137     0.79323
      H   25    0.21336      0.00000     0.78542    0.00122     0.78664
      H   26    0.20351      0.00000     0.79545    0.00105     0.79649
      H   27    0.20712      0.00000     0.79153    0.00135     0.79288
      H   28    0.20832      0.00000     0.79031    0.00137     0.79168
      H   29    0.17316      0.00000     0.82396    0.00288     0.82684
      H   30    0.20437      0.00000     0.79464    0.00099     0.79563
      H   31    0.21209      0.00000     0.78679    0.00112     0.78791
      H   32    0.20364      0.00000     0.79485    0.00151     0.79636
      H   33    0.20696      0.00000     0.79209    0.00095     0.79304
      H   34    0.20014      0.00000     0.79815    0.00171     0.79986
      H   35    0.21867      0.00000     0.78023    0.00110     0.78133
      H   36    0.17031      0.00000     0.82704    0.00265     0.82969
      H   37    0.21305      0.00000     0.78571    0.00124     0.78695
      H   38    0.20314      0.00000     0.79585    0.00100     0.79686
      H   39    0.20670      0.00000     0.79192    0.00137     0.79330
      H   40    0.20348      0.00000     0.79548    0.00104     0.79652
      H   41    0.20846      0.00000     0.79010    0.00144     0.79154
      H   42    0.20795      0.00000     0.79067    0.00138     0.79205
      H   43    0.17220      0.00000     0.82491    0.00289     0.82780
      H   44    0.20438      0.00000     0.79462    0.00100     0.79562
      H   45    0.21151      0.00000     0.78740    0.00109     0.78849
      H   46    0.20390      0.00000     0.79459    0.00151     0.79610
      H   47    0.20700      0.00000     0.79205    0.00095     0.79300
      H   48    0.20010      0.00000     0.79818    0.00173     0.79990
      H   49    0.21906      0.00000     0.77983    0.00111     0.78094
 =======================================================================
   * Total *    0.00000     53.98835   115.50913    0.50252   170.00000

 Normal termination of Gaussian 16 at Thu Jan 23 20:53:58 2025.
