 Gaussian 16, Revision B.01,
 Gaussian 16:  ES64L-G16RevB.01 20-Dec-2017

 --------------------------------------------
 # nmr=giao b3lyp/def2TZVP pop=nbo scfcyc=200
 --------------------------------------------

 --------------
 MB-23 SPE NoRh
 --------------
 Symbolic Z-matrix:
 Charge =  0 Multiplicity = 1

                         Standard orientation:
 ---------------------------------------------------------------------
 Center     Atomic      Atomic             Coordinates (Angstroms)
 Number     Number       Type             X           Y           Z
 ---------------------------------------------------------------------
      1         15           0       -1.378361   -0.267714   -0.515919
      2         15           0        1.414151   -0.337343   -0.756907
      3          6           0        0.121928   -0.402439    0.598085
      4          1           0        0.157897   -1.386926    1.061921
      5          1           0        0.192517    0.345720    1.386480
      6          6           0       -2.703328   -1.389824    0.223305
      7          1           0       -2.833932   -1.043669    1.253615
      8          6           0       -2.219729   -2.844925    0.254088
      9          1           0       -2.962031   -3.476596    0.743592
     10          1           0       -1.291623   -2.964667    0.812291
     11          1           0       -2.058633   -3.234310   -0.752784
     12          6           0       -4.045632   -1.229239   -0.518890
     13          1           0       -3.933739   -1.568658   -1.552881
     14          1           0       -4.309151   -0.171482   -0.571007
     15          6           0       -1.894432    1.533129   -0.239997
     16          1           0       -0.919918    2.035928   -0.233558
     17          6           0       -2.697647    2.124063   -1.404319
     18          1           0       -3.688436    1.676890   -1.493569
     19          1           0       -2.175377    1.989494   -2.351426
     20          1           0       -2.836909    3.195437   -1.258649
     21          6           0       -2.545619    1.762563    1.137860
     22          1           0       -1.993945    1.210358    1.904985
     23          1           0       -3.558521    1.351602    1.135206
     24          6           0        2.734859   -1.609802   -0.320200
     25          1           0        3.440228   -1.539376   -1.155317
     26          6           0        2.118759   -3.017595   -0.332784
     27          1           0        2.902585   -3.773564   -0.363563
     28          1           0        1.470979   -3.171913   -1.195935
     29          1           0        1.529260   -3.201701    0.567886
     30          6           0        3.496849   -1.311557    0.984172
     31          1           0        2.793655   -1.304480    1.823477
     32          1           0        3.925720   -0.310557    0.934178
     33          6           0        2.181764    1.395559   -0.783379
     34          1           0        1.428296    1.960034   -1.344449
     35          6           0        3.463771    1.371492   -1.630359
     36          1           0        3.770472    2.386907   -1.880092
     37          1           0        3.326553    0.839482   -2.572355
     38          1           0        4.290706    0.900902   -1.094869
     39          6           0        2.367785    2.096533    0.574953
     40          1           0        3.149252    1.599164    1.153739
     41          1           0        1.452693    2.009953    1.163919
     42          6           0        2.707967    3.585349    0.440344
     43          1           0        2.743843    4.054950    1.424928
     44          1           0        3.678998    3.745749   -0.029691
     45          1           0        1.956562    4.113354   -0.151509
     46          6           0       -2.600100    3.236621    1.553213
     47          1           0       -3.228163    3.829686    0.888129
     48          1           0       -3.013324    3.331150    2.559285
     49          1           0       -1.603158    3.683657    1.562020
     50          6           0       -5.209137   -1.977733    0.138511
     51          1           0       -6.143410   -1.750298   -0.378153
     52          1           0       -5.077146   -3.059466    0.107861
     53          1           0       -5.329810   -1.682803    1.183528
     54          6           0        4.627855   -2.303708    1.279499
     55          1           0        5.186991   -1.984856    2.160306
     56          1           0        4.255501   -3.309345    1.475501
     57          1           0        5.332183   -2.360815    0.444740
 ---------------------------------------------------------------------

 SCF Done:  E(RB3LYP) =  -1353.69844589     A.U. after   13 cycles

      1  P    Isotropic =   214.3851   Anisotropy =   114.5050

      2  P    Isotropic =   226.3432   Anisotropy =    59.8314

      3  C    Isotropic =   171.7950   Anisotropy =    18.4333

      4  H    Isotropic =    30.8463   Anisotropy =     6.9572

      5  H    Isotropic =    30.5328   Anisotropy =     4.7479

      6  C    Isotropic =   145.4083   Anisotropy =    35.4803

      7  H    Isotropic =    30.0436   Anisotropy =     3.1328

      8  C    Isotropic =   168.4665   Anisotropy =    24.7513

      9  H    Isotropic =    30.4622   Anisotropy =     9.2780

     10  H    Isotropic =    31.0793   Anisotropy =     8.1481

     11  H    Isotropic =    31.3805   Anisotropy =     7.7770

     12  C    Isotropic =   153.2396   Anisotropy =    20.5755

     13  H    Isotropic =    30.8785   Anisotropy =     5.3912

     14  H    Isotropic =    30.5851   Anisotropy =     7.9618

     15  C    Isotropic =   141.6866   Anisotropy =    17.3300

     16  H    Isotropic =    30.9364   Anisotropy =     8.4888

     17  C    Isotropic =   164.2160   Anisotropy =    27.3003

     18  H    Isotropic =    31.2848   Anisotropy =     7.9938

     19  H    Isotropic =    30.5227   Anisotropy =     7.9779

     20  H    Isotropic =    30.5018   Anisotropy =     9.2629

     21  C    Isotropic =   154.2867   Anisotropy =    15.2777

     22  H    Isotropic =    30.0016   Anisotropy =     4.6231

     23  H    Isotropic =    30.6099   Anisotropy =     6.4999

     24  C    Isotropic =   142.0608   Anisotropy =    29.6010

     25  H    Isotropic =    30.3253   Anisotropy =     4.9734

     26  C    Isotropic =   166.6830   Anisotropy =    23.3911

     27  H    Isotropic =    30.4495   Anisotropy =     9.6261

     28  H    Isotropic =    30.6527   Anisotropy =     7.8508

     29  H    Isotropic =    31.4782   Anisotropy =     6.1071

     30  C    Isotropic =   149.4836   Anisotropy =    19.5169

     31  H    Isotropic =    30.7706   Anisotropy =     5.1324

     32  H    Isotropic =    30.1667   Anisotropy =     8.3433

     33  C    Isotropic =   144.0504   Anisotropy =    22.1491

     34  H    Isotropic =    30.1241   Anisotropy =     6.1517

     35  C    Isotropic =   169.2494   Anisotropy =    22.0829

     36  H    Isotropic =    30.4382   Anisotropy =     9.7731

     37  H    Isotropic =    30.6606   Anisotropy =     8.6870

     38  H    Isotropic =    31.4684   Anisotropy =     7.4945

     39  C    Isotropic =   153.9061   Anisotropy =    13.6428

     40  H    Isotropic =    30.5217   Anisotropy =     6.6987

     41  H    Isotropic =    30.1318   Anisotropy =     7.2214

     42  C    Isotropic =   168.3045   Anisotropy =    26.6145

     43  H    Isotropic =    30.8025   Anisotropy =    10.6040

     44  H    Isotropic =    30.6940   Anisotropy =     8.6036

     45  H    Isotropic =    31.4705   Anisotropy =     8.0239

     46  C    Isotropic =   167.4678   Anisotropy =    27.3264

     47  H    Isotropic =    30.6870   Anisotropy =     8.4992

     48  H    Isotropic =    30.7394   Anisotropy =    10.9562

     49  H    Isotropic =    31.3966   Anisotropy =     7.9998

     50  C    Isotropic =   169.3511   Anisotropy =    24.7609

     51  H    Isotropic =    30.8895   Anisotropy =    11.2143

     52  H    Isotropic =    30.7011   Anisotropy =     8.4640

     53  H    Isotropic =    31.3624   Anisotropy =     8.3778

     54  C    Isotropic =   168.7251   Anisotropy =    25.5110

     55  H    Isotropic =    30.9296   Anisotropy =    10.9289

     56  H    Isotropic =    30.8897   Anisotropy =     7.9936

     57  H    Isotropic =    31.4228   Anisotropy =     9.0108

 The electronic state is 1-A.
 Alpha  occ. eigenvalues --  -77.02921 -77.02808 -10.17957 -10.17762 -10.17434
 Alpha  occ. eigenvalues --  -10.17295 -10.17282 -10.16955 -10.16883 -10.16739
 Alpha  occ. eigenvalues --  -10.16578 -10.16351 -10.16027 -10.16021 -10.16020
 Alpha  occ. eigenvalues --  -10.16001 -10.15872 -10.15848 -10.15742  -6.51492
 Alpha  occ. eigenvalues --   -6.51398  -4.67654  -4.67584  -4.67568  -4.67497
 Alpha  occ. eigenvalues --   -4.67119  -4.67006  -0.81239  -0.80753  -0.79498
 Alpha  occ. eigenvalues --   -0.79392  -0.74117  -0.72890  -0.72486  -0.72324
 Alpha  occ. eigenvalues --   -0.71201  -0.65763  -0.64775  -0.64273  -0.64004
 Alpha  occ. eigenvalues --   -0.59780  -0.58840  -0.57132  -0.56866  -0.52144
 Alpha  occ. eigenvalues --   -0.51592  -0.47291  -0.46928  -0.46578  -0.46036
 Alpha  occ. eigenvalues --   -0.45197  -0.44705  -0.43829  -0.43035  -0.42851
 Alpha  occ. eigenvalues --   -0.42397  -0.42135  -0.41541  -0.41048  -0.39200
 Alpha  occ. eigenvalues --   -0.38864  -0.38689  -0.38641  -0.38481  -0.38376
 Alpha  occ. eigenvalues --   -0.37915  -0.37480  -0.37142  -0.36809  -0.36451
 Alpha  occ. eigenvalues --   -0.36246  -0.34923  -0.34081  -0.33850  -0.33342
 Alpha  occ. eigenvalues --   -0.33170  -0.33097  -0.32983  -0.32604  -0.32490
 Alpha  occ. eigenvalues --   -0.29401  -0.28718  -0.28289  -0.21322  -0.17392
 Alpha virt. eigenvalues --    0.01629   0.01801   0.02740   0.03116   0.03849
 Alpha virt. eigenvalues --    0.04614   0.04893   0.05854   0.06162   0.06261
 Alpha virt. eigenvalues --    0.06626   0.07254   0.07534   0.07755   0.08209

 Mulliken charges:
               1
     1  P    0.149990
     2  P    0.123155
     3  C   -0.377989
     4  H    0.109422
     5  H    0.116182
     6  C   -0.037463
     7  H    0.065788
     8  C   -0.371158
     9  H    0.117086
    10  H    0.101546
    11  H    0.115022
    12  C   -0.160431
    13  H    0.093542
    14  H    0.084345
    15  C   -0.069415
    16  H    0.065823
    17  C   -0.351812
    18  H    0.103640
    19  H    0.121673
    20  H    0.110532
    21  C   -0.186406
    22  H    0.098197
    23  H    0.091028
    24  C   -0.060267
    25  H    0.077738
    26  C   -0.385524
    27  H    0.123601
    28  H    0.132934
    29  H    0.096993
    30  C   -0.155840
    31  H    0.085923
    32  H    0.079655
    33  C   -0.066281
    34  H    0.081276
    35  C   -0.397098
    36  H    0.121655
    37  H    0.127754
    38  H    0.109746
    39  C   -0.150545
    40  H    0.088021
    41  H    0.083207
    42  C   -0.355141
    43  H    0.111161
    44  H    0.112651
    45  H    0.103079
    46  C   -0.349017
    47  H    0.109752
    48  H    0.110444
    49  H    0.104222
    50  C   -0.355215
    51  H    0.112344
    52  H    0.112234
    53  H    0.102067
    54  C   -0.349317
    55  H    0.109282
    56  H    0.114226
    57  H    0.101985
 Sum of Mulliken charges =  -0.00000

 Dipole moment (field-independent basis, Debye):
    X=              0.2407    Y=              0.5876    Z=              1.8313  Tot=              1.9382
 Quadrupole moment (field-independent basis, Debye-Ang):
   XX=           -138.6695   YY=           -141.5665   ZZ=           -146.9841
   XY=              0.1769   XZ=             -1.0451   YZ=             -1.8566

 Summary of Natural Population Analysis:

                                       Natural Population
                Natural  -----------------------------------------------
    Atom  No    Charge         Core      Valence    Rydberg      Total
 -----------------------------------------------------------------------
      P    1    0.80003      9.99857     4.16798    0.03342    14.19997
      P    2    0.79337      9.99863     4.17469    0.03331    14.20663
      C    3   -1.03233      1.99945     5.00124    0.03163     7.03233
      H    4    0.24388      0.00000     0.75373    0.00239     0.75612
      H    5    0.22740      0.00000     0.76963    0.00296     0.77260
      C    6   -0.48064      1.99942     4.45755    0.02367     6.48064
      H    7    0.19237      0.00000     0.80443    0.00320     0.80763
      C    8   -0.59731      1.99942     4.58660    0.01128     6.59731
      H    9    0.20551      0.00000     0.79306    0.00143     0.79449
      H   10    0.19917      0.00000     0.79931    0.00152     0.80083
      H   11    0.20510      0.00000     0.79322    0.00168     0.79490
      C   12   -0.38599      1.99940     4.37249    0.01410     6.38599
      H   13    0.19666      0.00000     0.80109    0.00225     0.80334
      H   14    0.19214      0.00000     0.80568    0.00218     0.80786
      C   15   -0.47161      1.99942     4.44718    0.02501     6.47161
      H   16    0.20562      0.00000     0.79204    0.00233     0.79438
      C   17   -0.59691      1.99942     4.58602    0.01148     6.59691
      H   18    0.19647      0.00000     0.80213    0.00140     0.80353
      H   19    0.21574      0.00000     0.78277    0.00149     0.78426
      H   20    0.20020      0.00000     0.79830    0.00150     0.79980
      C   21   -0.39045      1.99941     4.37672    0.01432     6.39045
      H   22    0.19111      0.00000     0.80646    0.00243     0.80889
      H   23    0.19033      0.00000     0.80786    0.00181     0.80967
      C   24   -0.47688      1.99941     4.45366    0.02381     6.47688
      H   25    0.21136      0.00000     0.78663    0.00201     0.78864
      C   26   -0.60159      1.99943     4.59075    0.01142     6.60159
      H   27    0.20722      0.00000     0.79142    0.00136     0.79278
      H   28    0.21809      0.00000     0.78033    0.00159     0.78191
      H   29    0.19087      0.00000     0.80751    0.00162     0.80913
      C   30   -0.38803      1.99941     4.37441    0.01421     6.38803
      H   31    0.18662      0.00000     0.81130    0.00208     0.81338
      H   32    0.18965      0.00000     0.80769    0.00267     0.81035
      C   33   -0.47148      1.99940     4.44813    0.02394     6.47148
      H   34    0.20975      0.00000     0.78823    0.00202     0.79025
      C   35   -0.60086      1.99942     4.59001    0.01143     6.60086
      H   36    0.20654      0.00000     0.79198    0.00148     0.79346
      H   37    0.21420      0.00000     0.78413    0.00167     0.78580
      H   38    0.19614      0.00000     0.80243    0.00142     0.80386
      C   39   -0.38874      1.99940     4.37480    0.01454     6.38874
      H   40    0.19360      0.00000     0.80470    0.00170     0.80640
      H   41    0.18787      0.00000     0.80955    0.00258     0.81213
      C   42   -0.59019      1.99947     4.58397    0.00675     6.59019
      H   43    0.20335      0.00000     0.79538    0.00127     0.79665
      H   44    0.19628      0.00000     0.80229    0.00143     0.80372
      H   45    0.19451      0.00000     0.80398    0.00152     0.80549
      C   46   -0.58915      1.99947     4.58275    0.00693     6.58915
      H   47    0.19639      0.00000     0.80211    0.00150     0.80361
      H   48    0.20288      0.00000     0.79580    0.00132     0.79712
      H   49    0.19384      0.00000     0.80472    0.00145     0.80616
      C   50   -0.58768      1.99946     4.58139    0.00683     6.58768
      H   51    0.20411      0.00000     0.79468    0.00121     0.79589
      H   52    0.19670      0.00000     0.80186    0.00143     0.80330
      H   53    0.19457      0.00000     0.80393    0.00149     0.80543
      C   54   -0.59261      1.99947     4.58618    0.00696     6.59261
      H   55    0.20216      0.00000     0.79652    0.00132     0.79784
      H   56    0.19661      0.00000     0.80199    0.00140     0.80339
      H   57    0.19405      0.00000     0.80450    0.00145     0.80595
 =======================================================================
   * Total *   -0.00000     53.98749   115.61989    0.39261   170.00000

 Normal termination of Gaussian 16 at Thu Jan 23 20:25:23 2025.
