 Gaussian 16, Revision B.01,
 Gaussian 16:  ES64L-G16RevB.01 20-Dec-2017

 --------------------------------------------
 # nmr=giao b3lyp/def2TZVP pop=nbo scfcyc=200
 --------------------------------------------

 -------------
 MB-2 SPE NoRh
 -------------
 Symbolic Z-matrix:
 Charge =  0 Multiplicity = 1

                         Standard orientation:
 ---------------------------------------------------------------------
 Center     Atomic      Atomic             Coordinates (Angstroms)
 Number     Number       Type             X           Y           Z
 ---------------------------------------------------------------------
      1         15           0        1.383789   -0.182312   -0.578365
      2         15           0       -1.383655   -0.176352   -0.576059
      3          6           0        2.099308    1.507349   -0.369651
      4          1           0        1.345908    2.265891   -0.576360
      5          1           0        2.910217    1.633780   -1.088080
      6          1           0        2.494232    1.649831    0.636376
      7          6           0       -2.113744    1.504290   -0.344895
      8          1           0       -2.930040    1.631722   -1.056067
      9          1           0       -1.368711    2.271831   -0.546423
     10          1           0       -2.503726    1.630868    0.665149
     11          6           0        0.000559   -0.361745    0.687592
     12          1           0       -0.001249   -1.431795    0.923837
     13          6           0       -2.744067   -1.310510   -0.057510
     14          1           0       -3.090212   -1.071551    0.948936
     15          1           0       -2.392080   -2.341732   -0.084986
     16          1           0       -3.581054   -1.212366   -0.749918
     17          6           0        2.753905   -1.296729   -0.041613
     18          1           0        3.595367   -1.193948   -0.728463
     19          1           0        2.415666   -2.332188   -0.060125
     20          1           0        3.091400   -1.043722    0.964776
     21          6           0        0.003719    0.451052    1.977691
     22          1           0       -0.874555    0.221647    2.584052
     23          1           0        0.880449    0.214591    2.583989
     24          1           0        0.008294    1.524869    1.789977
 ---------------------------------------------------------------------

 SCF Done:  E(RB3LYP) =  -921.118302370     A.U. after   13 cycles

      1  P    Isotropic =   276.3114   Anisotropy =   158.6325

      2  P    Isotropic =   276.5878   Anisotropy =   159.1035

      3  C    Isotropic =   173.9930   Anisotropy =    14.0326

      4  H    Isotropic =    30.9814   Anisotropy =     7.6740

      5  H    Isotropic =    31.1022   Anisotropy =    10.3200

      6  H    Isotropic =    30.7529   Anisotropy =     7.8092

      7  C    Isotropic =   173.8650   Anisotropy =    14.2398

      8  H    Isotropic =    31.1206   Anisotropy =    10.2906

      9  H    Isotropic =    30.9955   Anisotropy =     7.6724

     10  H    Isotropic =    30.7449   Anisotropy =     7.8177

     11  C    Isotropic =   146.8538   Anisotropy =    11.0738

     12  H    Isotropic =    30.9012   Anisotropy =     5.4014

     13  C    Isotropic =   168.1056   Anisotropy =    24.9460

     14  H    Isotropic =    30.5515   Anisotropy =     8.3160

     15  H    Isotropic =    30.8502   Anisotropy =     8.0804

     16  H    Isotropic =    31.1942   Anisotropy =     9.9556

     17  C    Isotropic =   168.1124   Anisotropy =    25.0155

     18  H    Isotropic =    31.1993   Anisotropy =     9.9087

     19  H    Isotropic =    30.8624   Anisotropy =     8.0948

     20  H    Isotropic =    30.5479   Anisotropy =     8.2914

     21  C    Isotropic =   176.1760   Anisotropy =    10.9474

     22  H    Isotropic =    30.6410   Anisotropy =     9.4193

     23  H    Isotropic =    30.6361   Anisotropy =     9.4303

     24  H    Isotropic =    31.0960   Anisotropy =     6.4424

 The electronic state is 1-A.
 Alpha  occ. eigenvalues --  -77.03364 -77.03355 -10.18459 -10.17248 -10.16600
 Alpha  occ. eigenvalues --  -10.16583 -10.16288 -10.16253  -6.51945  -6.51932
 Alpha  occ. eigenvalues --   -4.68101  -4.68089  -4.68066  -4.68054  -4.67549
 Alpha  occ. eigenvalues --   -4.67538  -0.78806  -0.73921  -0.72647  -0.69291
 Alpha  occ. eigenvalues --   -0.69074  -0.64394  -0.53220  -0.51280  -0.45090
 Alpha  occ. eigenvalues --   -0.44016  -0.43252  -0.42327  -0.41963  -0.40679
 Alpha  occ. eigenvalues --   -0.40364  -0.40188  -0.39983  -0.39637  -0.38734
 Alpha  occ. eigenvalues --   -0.36199  -0.33656  -0.32497  -0.28890  -0.22000
 Alpha  occ. eigenvalues --   -0.17786
 Alpha virt. eigenvalues --    0.01001   0.02480   0.04426   0.04829   0.06106
 Alpha virt. eigenvalues --    0.06835   0.07258   0.08018   0.08138   0.09207
 Alpha virt. eigenvalues --    0.09460   0.09772   0.10163   0.11828   0.12565

 Mulliken charges:
               1
     1  P    0.168056
     2  P    0.166956
     3  C   -0.427781
     4  H    0.122756
     5  H    0.129042
     6  H    0.112266
     7  C   -0.426640
     8  H    0.128831
     9  H    0.122628
    10  H    0.111856
    11  C   -0.153892
    12  H    0.086984
    13  C   -0.410427
    14  H    0.102568
    15  H    0.121755
    16  H    0.123719
    17  C   -0.410466
    18  H    0.123418
    19  H    0.121591
    20  H    0.102258
    21  C   -0.369280
    22  H    0.117485
    23  H    0.117644
    24  H    0.118674
 Sum of Mulliken charges =  -0.00000

 Dipole moment (field-independent basis, Debye):
    X=             -0.0126    Y=              0.3987    Z=              2.0671  Tot=              2.1052
 Quadrupole moment (field-independent basis, Debye-Ang):
   XX=            -65.1652   YY=            -66.3211   ZZ=            -72.9880
   XY=              0.0493   XZ=              0.0016   YZ=             -1.9733

 Summary of Natural Population Analysis:

                                       Natural Population
                Natural  -----------------------------------------------
    Atom  No    Charge         Core      Valence    Rydberg      Total
 -----------------------------------------------------------------------
      P    1    0.79361      9.99878     4.16741    0.04019    14.20639
      P    2    0.79329      9.99878     4.16776    0.04017    14.20671
      C    3   -0.92280      1.99946     4.90392    0.01942     6.92280
      H    4    0.22410      0.00000     0.77478    0.00113     0.77590
      H    5    0.23183      0.00000     0.76726    0.00091     0.76817
      H    6    0.20447      0.00000     0.79199    0.00355     0.79553
      C    7   -0.92249      1.99946     4.90365    0.01939     6.92249
      H    8    0.23169      0.00000     0.76740    0.00092     0.76831
      H    9    0.22393      0.00000     0.77494    0.00112     0.77607
      H   10    0.20428      0.00000     0.79217    0.00355     0.79572
      C   11   -0.77581      1.99947     4.74305    0.03330     6.77581
      H   12    0.23549      0.00000     0.76282    0.00169     0.76451
      C   13   -0.91909      1.99946     4.90121    0.01842     6.91909
      H   14    0.20101      0.00000     0.79558    0.00341     0.79899
      H   15    0.22532      0.00000     0.77379    0.00089     0.77468
      H   16    0.22903      0.00000     0.77000    0.00097     0.77097
      C   17   -0.91985      1.99946     4.90196    0.01843     6.91985
      H   18    0.22891      0.00000     0.77012    0.00097     0.77109
      H   19    0.22519      0.00000     0.77392    0.00089     0.77481
      H   20    0.20077      0.00000     0.79582    0.00342     0.79923
      C   21   -0.60662      1.99943     4.59324    0.01396     6.60662
      H   22    0.20524      0.00000     0.79290    0.00185     0.79476
      H   23    0.20532      0.00000     0.79282    0.00185     0.79468
      H   24    0.20320      0.00000     0.79534    0.00146     0.79680
 =======================================================================
   * Total *   -0.00000     31.99430    49.77384    0.23187    82.00000

 Normal termination of Gaussian 16 at Thu Jan 23 19:09:05 2025.
