 Gaussian 16, Revision B.01,
 Gaussian 16:  ES64L-G16RevB.01 20-Dec-2017

 --------------------------------------------
 # nmr=giao b3lyp/def2TZVP pop=nbo scfcyc=200
 --------------------------------------------

 --------------
 MB-27 SPE NoRh
 --------------
 Symbolic Z-matrix:
 Charge =  0 Multiplicity = 1

                         Standard orientation:
 ---------------------------------------------------------------------
 Center     Atomic      Atomic             Coordinates (Angstroms)
 Number     Number       Type             X           Y           Z
 ---------------------------------------------------------------------
      1         15           0       -1.364363    0.003588   -0.493955
      2         15           0        1.364859   -0.005658   -0.493491
      3          6           0       -2.477455   -1.495848   -0.035097
      4          6           0        2.486317   -1.490118   -0.010268
      5          6           0       -0.000516   -0.003136    0.784279
      6          1           0       -0.002345   -0.890788    1.417897
      7          1           0        0.002050    0.882386    1.421662
      8          6           0        2.473814    1.495483   -0.034351
      9          6           0       -2.481951    1.490655   -0.010179
     10          9           0       -2.905216    1.431540    1.252791
     11          9           0       -3.542122    1.540671   -0.825392
     12          9           0       -1.763222    2.612787   -0.165840
     13          9           0        1.730157    2.606884   -0.151250
     14          9           0        2.944595    1.431534    1.210773
     15          9           0        3.501391    1.572867   -0.887232
     16          9           0        3.542763   -1.541207   -0.829055
     17          9           0        2.913191   -1.427311    1.250760
     18          9           0        1.767623   -2.613463   -0.160605
     19          9           0       -1.734760   -2.607390   -0.145198
     20          9           0       -2.953604   -1.427082    1.208776
     21          9           0       -3.501729   -1.573473   -0.891215
 ---------------------------------------------------------------------

 SCF Done:  E(RB3LYP) =  -2073.19024038     A.U. after   12 cycles

      1  P    Isotropic =   221.4745   Anisotropy =   204.2668

      2  P    Isotropic =   221.4314   Anisotropy =   204.7453

      3  C    Isotropic =    41.2282   Anisotropy =     5.8150

      4  C    Isotropic =    41.2637   Anisotropy =     5.4399

      5  C    Isotropic =   169.4201   Anisotropy =    12.4969

      6  H    Isotropic =    29.3938   Anisotropy =     6.3493

      7  H    Isotropic =    29.3804   Anisotropy =     6.3395

      8  C    Isotropic =    41.1989   Anisotropy =     5.7081

      9  C    Isotropic =    41.1685   Anisotropy =     5.4880

     10  F    Isotropic =   237.9800   Anisotropy =   120.4286

     11  F    Isotropic =   234.7579   Anisotropy =   123.0012

     12  F    Isotropic =   234.0760   Anisotropy =   134.7681

     13  F    Isotropic =   234.4636   Anisotropy =   134.5033

     14  F    Isotropic =   237.8192   Anisotropy =   119.6383

     15  F    Isotropic =   234.0975   Anisotropy =   123.7937

     16  F    Isotropic =   234.9934   Anisotropy =   122.3449

     17  F    Isotropic =   238.1500   Anisotropy =   119.8601

     18  F    Isotropic =   234.0870   Anisotropy =   135.1514

     19  F    Isotropic =   234.9426   Anisotropy =   133.1855

     20  F    Isotropic =   237.4900   Anisotropy =   120.8445

     21  F    Isotropic =   234.2081   Anisotropy =   123.4202

 The electronic state is 1-A.
 Alpha  occ. eigenvalues --  -77.12092 -77.12090 -24.74877 -24.74841 -24.74829
 Alpha  occ. eigenvalues --  -24.74821 -24.74657 -24.74656 -24.74648 -24.74632
 Alpha  occ. eigenvalues --  -24.74514 -24.74507 -24.74488 -24.74477 -10.45364
 Alpha  occ. eigenvalues --  -10.45363 -10.45342 -10.45338 -10.24987  -6.60700
 Alpha  occ. eigenvalues --   -6.60699  -4.76832  -4.76831  -4.76827  -4.76825
 Alpha  occ. eigenvalues --   -4.76278  -4.76277  -1.34939  -1.34928  -1.34738
 Alpha  occ. eigenvalues --   -1.34725  -1.26321  -1.26306  -1.26270  -1.26260
 Alpha  occ. eigenvalues --   -1.26186  -1.26164  -1.26104  -1.26071  -0.82737
 Alpha  occ. eigenvalues --   -0.77329  -0.74245  -0.73633  -0.73567  -0.68153
 Alpha  occ. eigenvalues --   -0.66157  -0.63038  -0.63023  -0.62880  -0.62837
 Alpha  occ. eigenvalues --   -0.62693  -0.62689  -0.62577  -0.62543  -0.60983
 Alpha  occ. eigenvalues --   -0.60490  -0.55294  -0.51850  -0.50927  -0.50890
 Alpha  occ. eigenvalues --   -0.50593  -0.50562  -0.50439  -0.50312  -0.50264
 Alpha  occ. eigenvalues --   -0.50150  -0.48980  -0.47815  -0.47746  -0.47505
 Alpha  occ. eigenvalues --   -0.47407  -0.46539  -0.46407  -0.46256  -0.46145
 Alpha  occ. eigenvalues --   -0.44898  -0.44861  -0.44538  -0.44505  -0.43412
 Alpha  occ. eigenvalues --   -0.37821  -0.37807  -0.37406  -0.31284  -0.27462
 Alpha virt. eigenvalues --   -0.07392  -0.03409  -0.00881   0.00639   0.01315
 Alpha virt. eigenvalues --    0.04581   0.04927   0.05472   0.05656   0.07494
 Alpha virt. eigenvalues --    0.08728   0.09165   0.09341   0.12405   0.12669

 Mulliken charges:
               1
     1  P    0.099392
     2  P    0.099252
     3  C    0.436585
     4  C    0.436760
     5  C   -0.361622
     6  H    0.170076
     7  H    0.170110
     8  C    0.436527
     9  C    0.436770
    10  F   -0.158858
    11  F   -0.157272
    12  F   -0.165186
    13  F   -0.166071
    14  F   -0.158249
    15  F   -0.156537
    16  F   -0.156819
    17  F   -0.158575
    18  F   -0.165609
    19  F   -0.165534
    20  F   -0.158886
    21  F   -0.156253
 Sum of Mulliken charges =  -0.00000

 Dipole moment (field-independent basis, Debye):
    X=              0.0088    Y=             -0.0114    Z=              1.1192  Tot=              1.1193
 Quadrupole moment (field-independent basis, Debye-Ang):
   XX=           -126.0333   YY=           -120.5708   ZZ=           -117.2026
   XY=              0.0263   XZ=              0.0218   YZ=              0.0057

 Summary of Natural Population Analysis:

                                       Natural Population
                Natural  -----------------------------------------------
    Atom  No    Charge         Core      Valence    Rydberg      Total
 -----------------------------------------------------------------------
      P    1    0.59510      9.99872     4.36837    0.03781    14.40490
      P    2    0.59493      9.99872     4.36855    0.03780    14.40507
      C    3    0.75042      1.99973     3.18364    0.06622     5.24958
      C    4    0.74983      1.99973     3.18425    0.06619     5.25017
      C    5   -1.01509      1.99944     4.98074    0.03491     7.01509
      H    6    0.28246      0.00000     0.71611    0.00143     0.71754
      H    7    0.28244      0.00000     0.71612    0.00143     0.71756
      C    8    0.74993      1.99973     3.18414    0.06621     5.25007
      C    9    0.74969      1.99973     3.18443    0.06615     5.25031
      F   10   -0.31305      1.99991     7.30214    0.01100     9.31305
      F   11   -0.30646      1.99991     7.29578    0.01076     9.30646
      F   12   -0.31562      1.99992     7.30482    0.01088     9.31562
      F   13   -0.31639      1.99992     7.30560    0.01087     9.31639
      F   14   -0.31262      1.99991     7.30169    0.01102     9.31262
      F   15   -0.30582      1.99991     7.29513    0.01078     9.30582
      F   16   -0.30613      1.99991     7.29543    0.01078     9.30613
      F   17   -0.31289      1.99991     7.30197    0.01101     9.31289
      F   18   -0.31595      1.99992     7.30516    0.01087     9.31595
      F   19   -0.31603      1.99992     7.30521    0.01090     9.31603
      F   20   -0.31311      1.99991     7.30220    0.01099     9.31311
      F   21   -0.30564      1.99991     7.29494    0.01079     9.30564
 =======================================================================
   * Total *   -0.00000     53.99475   115.49642    0.50882   170.00000

 Normal termination of Gaussian 16 at Thu Jan 23 20:37:10 2025.
