 Gaussian 16, Revision B.01,
 Gaussian 16:  ES64L-G16RevB.01 20-Dec-2017

 --------------------------------------------
 # nmr=giao b3lyp/def2TZVP pop=nbo scfcyc=200
 --------------------------------------------

 --------------
 MB-26 SPE NoRh
 --------------
 Symbolic Z-matrix:
 Charge =  0 Multiplicity = 1

                         Standard orientation:
 ---------------------------------------------------------------------
 Center     Atomic      Atomic             Coordinates (Angstroms)
 Number     Number       Type             X           Y           Z
 ---------------------------------------------------------------------
      1         15           0        1.464174    0.028819   -0.464849
      2         15           0       -1.463969   -0.028871   -0.465434
      3          6           0        0.000274   -0.000135    0.729359
      4          1           0       -0.007255    0.873221    1.377440
      5          1           0        0.007012   -0.872587    1.378278
      6          6           0        2.515110   -1.574172   -0.095146
      7          6           0        1.957902   -2.728410   -0.943171
      8          1           0        2.521915   -3.635838   -0.711335
      9          1           0        2.064271   -2.535746   -2.010169
     10          1           0        0.912871   -2.933099   -0.740040
     11          6           0        3.986832   -1.386426   -0.504340
     12          1           0        4.483324   -2.357282   -0.429500
     13          1           0        4.526070   -0.700879    0.144646
     14          1           0        4.095543   -1.050781   -1.536325
     15          6           0        2.458026   -1.972079    1.389826
     16          1           0        1.465078   -2.303027    1.695938
     17          1           0        2.774801   -1.175313    2.059853
     18          1           0        3.130470   -2.819015    1.547652
     19          6           0        2.490100    1.596264    0.028148
     20          6           0        3.635829    1.834682   -0.971995
     21          1           0        3.278503    1.874121   -2.000940
     22          1           0        4.424724    1.092067   -0.914176
     23          1           0        4.089611    2.804338   -0.751972
     24          6           0        3.042381    1.507227    1.459060
     25          1           0        3.516742    2.458394    1.714079
     26          1           0        3.797500    0.731385    1.573881
     27          1           0        2.257196    1.332435    2.198157
     28          6           0        1.561278    2.815276   -0.060608
     29          1           0        2.143438    3.713918    0.159391
     30          1           0        0.747390    2.782195    0.661506
     31          1           0        1.142746    2.932162   -1.061537
     32          6           0       -2.489754   -1.596406    0.028570
     33          6           0       -3.635794   -1.835642   -0.972287
     34          1           0       -3.277762   -1.874916   -2.001342
     35          1           0       -4.424649   -1.092037   -0.914106
     36          1           0       -4.089512   -2.805338   -0.751311
     37          6           0       -1.560958   -2.815403   -0.060675
     38          1           0       -2.143030   -3.713085    0.160327
     39          1           0       -0.746839   -2.781454    0.662212
     40          1           0       -1.142712   -2.932106   -1.060745
     41          6           0       -3.042600   -1.506608    1.459658
     42          1           0       -3.797710   -0.731787    1.572837
     43          1           0       -2.258203   -1.331928    2.198561
     44          1           0       -3.516888   -2.457822    1.714639
     45          6           0       -2.515799    1.574076   -0.095136
     46          6           0       -1.957834    2.728445   -0.943111
     47          1           0       -2.521782    3.635831   -0.711947
     48          1           0       -2.063510    2.535952   -2.010113
     49          1           0       -0.912745    2.933097   -0.740242
     50          6           0       -2.458265    1.972711    1.389892
     51          1           0       -3.131664    2.819641    1.548066
     52          1           0       -1.466252    2.302626    1.696780
     53          1           0       -2.775872    1.174846    2.059864
     54          6           0       -3.986639    1.386381   -0.504943
     55          1           0       -4.526667    0.701739    0.144072
     56          1           0       -4.095646    1.050924   -1.536958
     57          1           0       -4.484109    2.357247   -0.429783
 ---------------------------------------------------------------------

 SCF Done:  E(RB3LYP) =  -1353.67884860     A.U. after   13 cycles

      1  P    Isotropic =   190.5633   Anisotropy =   103.3824

      2  P    Isotropic =   190.2305   Anisotropy =   103.7220

      3  C    Isotropic =   166.8958   Anisotropy =    21.4652

      4  H    Isotropic =    30.3062   Anisotropy =     5.1755

      5  H    Isotropic =    30.3075   Anisotropy =     5.1672

      6  C    Isotropic =   140.6019   Anisotropy =    21.4176

      7  C    Isotropic =   149.6690   Anisotropy =    45.9818

      8  H    Isotropic =    31.4871   Anisotropy =     8.8345

      9  H    Isotropic =    30.7537   Anisotropy =     7.5805

     10  H    Isotropic =    30.3115   Anisotropy =    11.5762

     11  C    Isotropic =   150.5542   Anisotropy =    35.6425

     12  H    Isotropic =    31.2135   Anisotropy =     8.9755

     13  H    Isotropic =    30.6518   Anisotropy =     6.7447

     14  H    Isotropic =    30.6388   Anisotropy =     7.1995

     15  C    Isotropic =   154.8470   Anisotropy =    36.0410

     16  H    Isotropic =    30.5247   Anisotropy =     5.8075

     17  H    Isotropic =    30.4538   Anisotropy =     5.8390

     18  H    Isotropic =    31.1738   Anisotropy =     9.4760

     19  C    Isotropic =   139.3644   Anisotropy =    21.7913

     20  C    Isotropic =   152.7609   Anisotropy =    43.6684

     21  H    Isotropic =    30.6898   Anisotropy =     7.8245

     22  H    Isotropic =    30.4328   Anisotropy =     7.0134

     23  H    Isotropic =    31.3476   Anisotropy =     9.6733

     24  C    Isotropic =   155.4944   Anisotropy =    34.8940

     25  H    Isotropic =    31.1376   Anisotropy =     9.9343

     26  H    Isotropic =    30.4561   Anisotropy =     6.3929

     27  H    Isotropic =    30.6147   Anisotropy =     4.7786

     28  C    Isotropic =   146.8610   Anisotropy =    43.0817

     29  H    Isotropic =    31.2080   Anisotropy =     7.9781

     30  H    Isotropic =    30.8240   Anisotropy =     8.1927

     31  H    Isotropic =    30.6018   Anisotropy =     7.5508

     32  C    Isotropic =   139.2533   Anisotropy =    21.7902

     33  C    Isotropic =   152.6123   Anisotropy =    43.6881

     34  H    Isotropic =    30.6777   Anisotropy =     7.8134

     35  H    Isotropic =    30.4128   Anisotropy =     7.0006

     36  H    Isotropic =    31.3380   Anisotropy =     9.6597

     37  C    Isotropic =   146.9171   Anisotropy =    43.0305

     38  H    Isotropic =    31.2216   Anisotropy =     7.9749

     39  H    Isotropic =    30.8110   Anisotropy =     8.1965

     40  H    Isotropic =    30.6212   Anisotropy =     7.5474

     41  C    Isotropic =   155.5904   Anisotropy =    34.9016

     42  H    Isotropic =    30.4776   Anisotropy =     6.3948

     43  H    Isotropic =    30.6333   Anisotropy =     4.7826

     44  H    Isotropic =    31.1434   Anisotropy =     9.9366

     45  C    Isotropic =   140.5447   Anisotropy =    21.5248

     46  C    Isotropic =   149.6691   Anisotropy =    46.0321

     47  H    Isotropic =    31.4924   Anisotropy =     8.8343

     48  H    Isotropic =    30.7575   Anisotropy =     7.5790

     49  H    Isotropic =    30.3122   Anisotropy =    11.5765

     50  C    Isotropic =   154.7982   Anisotropy =    36.0774

     51  H    Isotropic =    31.1591   Anisotropy =     9.4761

     52  H    Isotropic =    30.5407   Anisotropy =     5.8019

     53  H    Isotropic =    30.4311   Anisotropy =     5.8338

     54  C    Isotropic =   150.5982   Anisotropy =    35.6295

     55  H    Isotropic =    30.6568   Anisotropy =     6.7492

     56  H    Isotropic =    30.6375   Anisotropy =     7.2069

     57  H    Isotropic =    31.2038   Anisotropy =     8.9837

 The electronic state is 1-A.
 Alpha  occ. eigenvalues --  -77.03488 -77.03481 -10.19059 -10.19056 -10.18993
 Alpha  occ. eigenvalues --  -10.18991 -10.17609 -10.16224 -10.16214 -10.16111
 Alpha  occ. eigenvalues --  -10.16110 -10.16059 -10.16046 -10.16020 -10.16010
 Alpha  occ. eigenvalues --  -10.15733 -10.15718 -10.15455 -10.15450  -6.51948
 Alpha  occ. eigenvalues --   -6.51943  -4.68106  -4.68101  -4.68049  -4.68045
 Alpha  occ. eigenvalues --   -4.67583  -4.67578  -0.82103  -0.81662  -0.80454
 Alpha  occ. eigenvalues --   -0.80292  -0.72606  -0.69387  -0.69302  -0.69084
 Alpha  occ. eigenvalues --   -0.68955  -0.68494  -0.68465  -0.68438  -0.67912
 Alpha  occ. eigenvalues --   -0.61371  -0.58999  -0.54958  -0.54590  -0.51004
 Alpha  occ. eigenvalues --   -0.50912  -0.47737  -0.45848  -0.45466  -0.44994
 Alpha  occ. eigenvalues --   -0.44722  -0.44679  -0.44357  -0.44024  -0.43411
 Alpha  occ. eigenvalues --   -0.43271  -0.42544  -0.41815  -0.40828  -0.39584
 Alpha  occ. eigenvalues --   -0.39501  -0.39355  -0.38836  -0.38437  -0.38214
 Alpha  occ. eigenvalues --   -0.37931  -0.37886  -0.37153  -0.36816  -0.36743
 Alpha  occ. eigenvalues --   -0.36599  -0.35758  -0.34241  -0.34049  -0.33790
 Alpha  occ. eigenvalues --   -0.33578  -0.33354  -0.33213  -0.33174  -0.31982
 Alpha  occ. eigenvalues --   -0.29209  -0.28328  -0.28089  -0.21033  -0.18318
 Alpha virt. eigenvalues --    0.01661   0.02057   0.03191   0.03860   0.04114
 Alpha virt. eigenvalues --    0.04395   0.06011   0.06061   0.06992   0.07031
 Alpha virt. eigenvalues --    0.07441   0.07652   0.07810   0.08041   0.08253

 Mulliken charges:
               1
     1  P    0.100248
     2  P    0.100408
     3  C   -0.349013
     4  H    0.103460
     5  H    0.103579
     6  C    0.097504
     7  C   -0.348273
     8  H    0.099343
     9  H    0.116566
    10  H    0.114287
    11  C   -0.401412
    12  H    0.109503
    13  H    0.108607
    14  H    0.131705
    15  C   -0.366566
    16  H    0.104945
    17  H    0.121537
    18  H    0.100197
    19  C    0.098449
    20  C   -0.367812
    21  H    0.122632
    22  H    0.119863
    23  H    0.102667
    24  C   -0.370456
    25  H    0.101140
    26  H    0.107701
    27  H    0.115331
    28  C   -0.395208
    29  H    0.112561
    30  H    0.102540
    31  H    0.133419
    32  C    0.098014
    33  C   -0.367632
    34  H    0.122613
    35  H    0.119745
    36  H    0.102647
    37  C   -0.394803
    38  H    0.112555
    39  H    0.102216
    40  H    0.133524
    41  C   -0.370407
    42  H    0.107786
    43  H    0.115415
    44  H    0.101093
    45  C    0.097558
    46  C   -0.348383
    47  H    0.099381
    48  H    0.116576
    49  H    0.114256
    50  C   -0.366601
    51  H    0.100151
    52  H    0.105180
    53  H    0.121377
    54  C   -0.401628
    55  H    0.108651
    56  H    0.131795
    57  H    0.109467
 Sum of Mulliken charges =  -0.00000

 Dipole moment (field-independent basis, Debye):
    X=              0.0011    Y=             -0.0001    Z=              1.7704  Tot=              1.7704
 Quadrupole moment (field-independent basis, Debye-Ang):
   XX=           -139.4008   YY=           -140.5380   ZZ=           -148.0084
   XY=              0.0572   XZ=             -0.0041   YZ=              0.0002

 Summary of Natural Population Analysis:

                                       Natural Population
                Natural  -----------------------------------------------
    Atom  No    Charge         Core      Valence    Rydberg      Total
 -----------------------------------------------------------------------
      P    1    0.77163      9.99846     4.20024    0.02967    14.22837
      P    2    0.77142      9.99846     4.20046    0.02965    14.22858
      C    3   -1.03422      1.99942     5.00387    0.03092     7.03422
      H    4    0.23784      0.00000     0.75931    0.00285     0.76216
      H    5    0.23781      0.00000     0.75934    0.00285     0.76219
      C    6   -0.25618      1.99944     4.23209    0.02464     6.25618
      C    7   -0.60310      1.99937     4.59114    0.01259     6.60310
      H    8    0.19630      0.00000     0.80162    0.00208     0.80370
      H    9    0.21184      0.00000     0.78680    0.00136     0.78816
      H   10    0.20817      0.00000     0.79064    0.00119     0.79183
      C   11   -0.60122      1.99937     4.58970    0.01215     6.60122
      H   12    0.20151      0.00000     0.79625    0.00224     0.79849
      H   13    0.19909      0.00000     0.79938    0.00154     0.80091
      H   14    0.20942      0.00000     0.78906    0.00151     0.79058
      C   15   -0.60549      1.99936     4.59360    0.01252     6.60549
      H   16    0.19485      0.00000     0.80354    0.00160     0.80515
      H   17    0.20568      0.00000     0.79291    0.00141     0.79432
      H   18    0.19814      0.00000     0.79951    0.00235     0.80186
      C   19   -0.26636      1.99945     4.24164    0.02527     6.26636
      C   20   -0.60384      1.99936     4.59209    0.01239     6.60384
      H   21    0.21280      0.00000     0.78568    0.00152     0.78720
      H   22    0.20746      0.00000     0.79132    0.00122     0.79254
      H   23    0.19841      0.00000     0.79950    0.00209     0.80159
      C   24   -0.60604      1.99936     4.59438    0.01230     6.60604
      H   25    0.19581      0.00000     0.80177    0.00242     0.80419
      H   26    0.19998      0.00000     0.79848    0.00153     0.80002
      H   27    0.20001      0.00000     0.79842    0.00157     0.79999
      C   28   -0.60390      1.99937     4.59155    0.01299     6.60390
      H   29    0.20427      0.00000     0.79356    0.00217     0.79573
      H   30    0.19688      0.00000     0.80136    0.00175     0.80312
      H   31    0.21324      0.00000     0.78529    0.00147     0.78676
      C   32   -0.26592      1.99945     4.24121    0.02525     6.26592
      C   33   -0.60392      1.99936     4.59217    0.01239     6.60392
      H   34    0.21280      0.00000     0.78567    0.00152     0.78720
      H   35    0.20743      0.00000     0.79135    0.00122     0.79257
      H   36    0.19839      0.00000     0.79951    0.00209     0.80161
      C   37   -0.60397      1.99936     4.59161    0.01300     6.60397
      H   38    0.20423      0.00000     0.79360    0.00217     0.79577
      H   39    0.19680      0.00000     0.80145    0.00175     0.80320
      H   40    0.21322      0.00000     0.78531    0.00147     0.78678
      C   41   -0.60609      1.99936     4.59444    0.01229     6.60609
      H   42    0.19999      0.00000     0.79847    0.00153     0.80001
      H   43    0.20001      0.00000     0.79842    0.00157     0.79999
      H   44    0.19575      0.00000     0.80183    0.00242     0.80425
      C   45   -0.25605      1.99944     4.23196    0.02465     6.25605
      C   46   -0.60313      1.99937     4.59118    0.01258     6.60313
      H   47    0.19630      0.00000     0.80162    0.00208     0.80370
      H   48    0.21179      0.00000     0.78686    0.00136     0.78821
      H   49    0.20814      0.00000     0.79067    0.00119     0.79186
      C   50   -0.60554      1.99936     4.59366    0.01252     6.60554
      H   51    0.19817      0.00000     0.79948    0.00235     0.80183
      H   52    0.19494      0.00000     0.80346    0.00160     0.80506
      H   53    0.20566      0.00000     0.79294    0.00141     0.79434
      C   54   -0.60137      1.99936     4.58984    0.01216     6.60137
      H   55    0.19910      0.00000     0.79937    0.00154     0.80090
      H   56    0.20953      0.00000     0.78896    0.00151     0.79047
      H   57    0.20153      0.00000     0.79623    0.00224     0.79847
 =======================================================================
   * Total *   -0.00000     53.98651   115.60579    0.40770   170.00000

 Normal termination of Gaussian 16 at Thu Jan 23 20:50:38 2025.
