 Gaussian 16, Revision B.01,
 Gaussian 16:  ES64L-G16RevB.01 20-Dec-2017

 --------------------------------------------
 # nmr=giao b3lyp/def2TZVP pop=nbo scfcyc=200
 --------------------------------------------

 -----------------
 Ligand 6 SPE NoRh
 -----------------
 Symbolic Z-matrix:
 Charge =  0 Multiplicity = 1

                         Standard orientation:
 ---------------------------------------------------------------------
 Center     Atomic      Atomic             Coordinates (Angstroms)
 Number     Number       Type             X           Y           Z
 ---------------------------------------------------------------------
      1         15           0        2.581186   -0.502944   -0.513417
      2         15           0        0.156451    0.922009   -0.549835
      3          6           0        1.301128    0.123871    0.703844
      4          1           0        0.835700   -0.686414    1.263838
      5          1           0        1.694779    0.846124    1.418508
      6          6           0        0.183869    2.717706   -0.103485
      7          1           0        1.207725    3.080544   -0.190156
      8          1           0       -0.171581    2.883665    0.912872
      9          1           0       -0.434445    3.284776   -0.797647
     10          6           0       -1.598293    0.313248   -0.194518
     11          6           0       -2.594054    1.070518   -1.106110
     12          6           0       -1.998805    0.544171    1.280854
     13          6           0       -1.680098   -1.199529   -0.509521
     14          1           0       -2.560534    2.144232   -0.899682
     15          1           0       -2.329097    0.935175   -2.158505
     16          6           0       -4.026185    0.550528   -0.862802
     17          1           0       -1.955893    1.606929    1.529729
     18          1           0       -1.308521    0.026178    1.953642
     19          6           0       -3.432751    0.023835    1.519410
     20          6           0       -3.113851   -1.711383   -0.266604
     21          1           0       -0.986176   -1.758788    0.125732
     22          1           0       -1.384538   -1.383486   -1.547144
     23          6           0       -4.410113    0.784939    0.608718
     24          1           0       -4.711103    1.097978   -1.515157
     25          6           0       -4.088580   -0.951690   -1.181777
     26          1           0       -3.694866    0.194165    2.566918
     27          6           0       -3.495566   -1.479981    1.204710
     28          1           0       -3.147513   -2.780037   -0.495018
     29          1           0       -5.433026    0.440804    0.786468
     30          1           0       -4.391516    1.854288    0.839890
     31          1           0       -5.106910   -1.322924   -1.034534
     32          1           0       -3.838348   -1.127515   -2.232974
     33          1           0       -4.503201   -1.860273    1.395237
     34          1           0       -2.819478   -2.034393    1.863889
     35          6           0        2.524457   -2.342428   -0.320653
     36          1           0        3.223033   -2.813294   -1.011667
     37          1           0        2.764851   -2.647838    0.698171
     38          1           0        1.521068   -2.685067   -0.570681
     39          6           0        4.289562    0.039246    0.118378
     40          6           0        4.365918    1.571920    0.026644
     41          1           0        4.187620    1.928085   -0.988863
     42          1           0        3.650784    2.059699    0.690772
     43          1           0        5.362442    1.903212    0.329777
     44          6           0        4.505668   -0.411758    1.570519
     45          1           0        4.508817   -1.497886    1.671876
     46          1           0        5.480418   -0.054796    1.915039
     47          1           0        3.755395   -0.004708    2.250139
     48          6           0        5.361730   -0.590398   -0.786954
     49          1           0        6.348893   -0.246178   -0.467505
     50          1           0        5.365780   -1.680108   -0.725451
     51          1           0        5.240692   -0.305013   -1.832668
 ---------------------------------------------------------------------

 SCF Done:  E(RB3LYP) =  -1350.09156239     A.U. after   14 cycles

      1  P    Isotropic =   241.0037   Anisotropy =    92.7013

      2  P    Isotropic =   243.9184   Anisotropy =    93.4858

      3  C    Isotropic =   165.3336   Anisotropy =    20.5361

      4  H    Isotropic =    30.9257   Anisotropy =     6.2798

      5  H    Isotropic =    31.0702   Anisotropy =     5.9063

      6  C    Isotropic =   177.9994   Anisotropy =    18.4104

      7  H    Isotropic =    30.9422   Anisotropy =     8.7423

      8  H    Isotropic =    30.8041   Anisotropy =     7.5693

      9  H    Isotropic =    31.2698   Anisotropy =     9.9682

     10  C    Isotropic =   144.1641   Anisotropy =    17.6130

     11  C    Isotropic =   141.1669   Anisotropy =     8.2154

     12  C    Isotropic =   142.3047   Anisotropy =     9.6381

     13  C    Isotropic =   139.5259   Anisotropy =     9.9177

     14  H    Isotropic =    30.4605   Anisotropy =     6.0830

     15  H    Isotropic =    30.2703   Anisotropy =     6.3096

     16  C    Isotropic =   148.2758   Anisotropy =     9.1277

     17  H    Isotropic =    30.0453   Anisotropy =     5.5162

     18  H    Isotropic =    30.3004   Anisotropy =     5.8976

     19  C    Isotropic =   147.9413   Anisotropy =     8.5012

     20  C    Isotropic =   148.1664   Anisotropy =     8.8159

     21  H    Isotropic =    30.4158   Anisotropy =     7.5411

     22  H    Isotropic =    30.1481   Anisotropy =     5.9693

     23  C    Isotropic =   141.7115   Anisotropy =     6.6264

     24  H    Isotropic =    30.0504   Anisotropy =    10.6119

     25  C    Isotropic =   142.1640   Anisotropy =     5.3593

     26  H    Isotropic =    30.0842   Anisotropy =    10.1193

     27  C    Isotropic =   141.1363   Anisotropy =     6.4933

     28  H    Isotropic =    30.0151   Anisotropy =     9.9735

     29  H    Isotropic =    30.1572   Anisotropy =     9.2413

     30  H    Isotropic =    30.2519   Anisotropy =     8.5213

     31  H    Isotropic =    30.1359   Anisotropy =     9.2886

     32  H    Isotropic =    30.0857   Anisotropy =     8.5586

     33  H    Isotropic =    30.1193   Anisotropy =     9.1171

     34  H    Isotropic =    30.1827   Anisotropy =     7.8195

     35  C    Isotropic =   176.0661   Anisotropy =    17.6200

     36  H    Isotropic =    31.2117   Anisotropy =    10.3572

     37  H    Isotropic =    30.8146   Anisotropy =     7.6172

     38  H    Isotropic =    30.8294   Anisotropy =     8.3492

     39  C    Isotropic =   147.5062   Anisotropy =    12.5847

     40  C    Isotropic =   154.1742   Anisotropy =    42.9959

     41  H    Isotropic =    30.7621   Anisotropy =     7.7800

     42  H    Isotropic =    31.0250   Anisotropy =     6.6607

     43  H    Isotropic =    31.1358   Anisotropy =     9.3270

     44  C    Isotropic =   158.7498   Anisotropy =    38.7689

     45  H    Isotropic =    30.6498   Anisotropy =     7.6025

     46  H    Isotropic =    31.1015   Anisotropy =     9.9023

     47  H    Isotropic =    30.9659   Anisotropy =     6.3502

     48  C    Isotropic =   155.9703   Anisotropy =    44.0481

     49  H    Isotropic =    31.2572   Anisotropy =     9.7367

     50  H    Isotropic =    31.0857   Anisotropy =     8.3872

     51  H    Isotropic =    30.9009   Anisotropy =     9.0415

 The electronic state is 1-A.
 Alpha  occ. eigenvalues --  -77.03118 -77.03042 -10.18520 -10.17872 -10.17367
 Alpha  occ. eigenvalues --  -10.16948 -10.16895 -10.16775 -10.16415 -10.16386
 Alpha  occ. eigenvalues --  -10.16344 -10.16328 -10.16196 -10.16139 -10.16058
 Alpha  occ. eigenvalues --  -10.16049 -10.16003 -10.15998 -10.15911  -6.51699
 Alpha  occ. eigenvalues --   -6.51632  -4.67863  -4.67802  -4.67799  -4.67732
 Alpha  occ. eigenvalues --   -4.67310  -4.67247  -0.87075  -0.81295  -0.77805
 Alpha  occ. eigenvalues --   -0.76923  -0.76836  -0.74171  -0.71605  -0.69228
 Alpha  occ. eigenvalues --   -0.68737  -0.68280  -0.66811  -0.66747  -0.59417
 Alpha  occ. eigenvalues --   -0.58463  -0.58380  -0.57786  -0.53210  -0.51141
 Alpha  occ. eigenvalues --   -0.50798  -0.46133  -0.45438  -0.45358  -0.45297
 Alpha  occ. eigenvalues --   -0.44715  -0.44256  -0.44001  -0.42479  -0.42053
 Alpha  occ. eigenvalues --   -0.41796  -0.41548  -0.40914  -0.40601  -0.40436
 Alpha  occ. eigenvalues --   -0.39943  -0.39205  -0.38958  -0.38860  -0.38290
 Alpha  occ. eigenvalues --   -0.37614  -0.36958  -0.35347  -0.33923  -0.33687
 Alpha  occ. eigenvalues --   -0.33267  -0.33213  -0.32911  -0.32806  -0.32763
 Alpha  occ. eigenvalues --   -0.31008  -0.29308  -0.28471  -0.28385  -0.27064
 Alpha  occ. eigenvalues --   -0.21510  -0.17707
 Alpha virt. eigenvalues --    0.01527   0.01645   0.02908   0.04021   0.04375
 Alpha virt. eigenvalues --    0.05381   0.05766   0.05829   0.06966   0.07237
 Alpha virt. eigenvalues --    0.07299   0.07571   0.07941   0.08137   0.08482

 Mulliken charges:
               1
     1  P    0.171664
     2  P    0.138194
     3  C   -0.383524
     4  H    0.116872
     5  H    0.115776
     6  C   -0.459643
     7  H    0.136335
     8  H    0.112641
     9  H    0.130568
    10  C    0.273200
    11  C   -0.341799
    12  C   -0.340123
    13  C   -0.355357
    14  H    0.094466
    15  H    0.099050
    16  C    0.099527
    17  H    0.092018
    18  H    0.088143
    19  C    0.113648
    20  C    0.118898
    21  H    0.082113
    22  H    0.104752
    23  C   -0.252391
    24  H    0.054772
    25  C   -0.254784
    26  H    0.050909
    27  C   -0.253933
    28  H    0.054250
    29  H    0.083161
    30  H    0.079856
    31  H    0.083277
    32  H    0.083827
    33  H    0.083574
    34  H    0.077930
    35  C   -0.457104
    36  H    0.129815
    37  H    0.112027
    38  H    0.137572
    39  C    0.094692
    40  C   -0.370180
    41  H    0.126186
    42  H    0.102522
    43  H    0.105976
    44  C   -0.358788
    45  H    0.110981
    46  H    0.098408
    47  H    0.106473
    48  C   -0.376305
    49  H    0.105286
    50  H    0.112556
    51  H    0.122016
 Sum of Mulliken charges =  -0.00000

 Dipole moment (field-independent basis, Debye):
    X=             -0.4125    Y=             -0.1840    Z=              1.7956  Tot=              1.8516
 Quadrupole moment (field-independent basis, Debye-Ang):
   XX=           -133.8309   YY=           -135.0685   ZZ=           -142.3195
   XY=             -0.5553   XZ=              2.9986   YZ=              0.9036

 Summary of Natural Population Analysis:

                                       Natural Population
                Natural  -----------------------------------------------
    Atom  No    Charge         Core      Valence    Rydberg      Total
 -----------------------------------------------------------------------
      P    1    0.79960      9.99861     4.16578    0.03600    14.20040
      P    2    0.82122      9.99849     4.14371    0.03658    14.17878
      C    3   -1.03350      1.99946     5.00204    0.03200     7.03350
      H    4    0.23922      0.00000     0.75812    0.00266     0.76078
      H    5    0.23895      0.00000     0.75842    0.00263     0.76105
      C    6   -0.92119      1.99945     4.90271    0.01904     6.92119
      H    7    0.22977      0.00000     0.76903    0.00120     0.77023
      H    8    0.20354      0.00000     0.79331    0.00316     0.79646
      H    9    0.22883      0.00000     0.77013    0.00105     0.77117
      C   10   -0.26868      1.99940     4.23898    0.03030     6.26868
      C   11   -0.40591      1.99929     4.39061    0.01601     6.40591
      C   12   -0.40605      1.99930     4.39127    0.01548     6.40605
      C   13   -0.40639      1.99930     4.39140    0.01569     6.40639
      H   14    0.19665      0.00000     0.80111    0.00225     0.80335
      H   15    0.20660      0.00000     0.79096    0.00244     0.79340
      C   16   -0.20572      1.99939     4.18930    0.01702     6.20572
      H   17    0.19435      0.00000     0.80275    0.00290     0.80565
      H   18    0.19462      0.00000     0.80282    0.00256     0.80538
      C   19   -0.20637      1.99939     4.19046    0.01652     6.20637
      C   20   -0.20479      1.99939     4.18893    0.01647     6.20479
      H   21    0.19222      0.00000     0.80516    0.00262     0.80778
      H   22    0.20824      0.00000     0.78943    0.00232     0.79176
      C   23   -0.38869      1.99936     4.37512    0.01421     6.38869
      H   24    0.20467      0.00000     0.79350    0.00184     0.79533
      C   25   -0.38875      1.99936     4.37511    0.01427     6.38875
      H   26    0.19803      0.00000     0.80030    0.00167     0.80197
      C   27   -0.38820      1.99936     4.37489    0.01395     6.38820
      H   28    0.20044      0.00000     0.79797    0.00158     0.79956
      H   29    0.19819      0.00000     0.80006    0.00175     0.80181
      H   30    0.19756      0.00000     0.80090    0.00154     0.80244
      H   31    0.19814      0.00000     0.80011    0.00175     0.80186
      H   32    0.19990      0.00000     0.79858    0.00151     0.80010
      H   33    0.19868      0.00000     0.79957    0.00175     0.80132
      H   34    0.19672      0.00000     0.80172    0.00156     0.80328
      C   35   -0.92264      1.99945     4.90415    0.01904     6.92264
      H   36    0.22864      0.00000     0.77025    0.00111     0.77136
      H   37    0.20325      0.00000     0.79331    0.00345     0.79675
      H   38    0.22956      0.00000     0.76931    0.00114     0.77044
      C   39   -0.28411      1.99949     4.25889    0.02574     6.28411
      C   40   -0.60159      1.99937     4.59003    0.01218     6.60159
      H   41    0.21396      0.00000     0.78455    0.00149     0.78604
      H   42    0.19807      0.00000     0.80043    0.00150     0.80193
      H   43    0.20230      0.00000     0.79571    0.00199     0.79770
      C   44   -0.60193      1.99938     4.59051    0.01204     6.60193
      H   45    0.20038      0.00000     0.79801    0.00160     0.79962
      H   46    0.19596      0.00000     0.80174    0.00230     0.80404
      H   47    0.19995      0.00000     0.79850    0.00155     0.80005
      C   48   -0.60083      1.99937     4.58948    0.01198     6.60083
      H   49    0.20199      0.00000     0.79605    0.00196     0.79801
      H   50    0.20238      0.00000     0.79632    0.00130     0.79762
      H   51    0.21281      0.00000     0.78563    0.00156     0.78719
 =======================================================================
   * Total *   -0.00000     53.98663   109.57715    0.43622   164.00000

 Normal termination of Gaussian 16 at Tue Jan  2 06:54:06 2001.
