 Gaussian 16, Revision B.01,
 Gaussian 16:  ES64L-G16RevB.01 20-Dec-2017

 --------------------------------------------
 # nmr=giao b3lyp/def2TZVP pop=nbo scfcyc=200
 --------------------------------------------

 --------------
 MB-30 SPE NoRh
 --------------
 Symbolic Z-matrix:
 Charge =  0 Multiplicity = 1

                         Standard orientation:
 ---------------------------------------------------------------------
 Center     Atomic      Atomic             Coordinates (Angstroms)
 Number     Number       Type             X           Y           Z
 ---------------------------------------------------------------------
      1          6           0        0.000347   -0.000818    0.165501
      2          1           0        0.003132    0.894877    0.791505
      3          1           0       -0.002297   -0.895119    0.792496
      4         15           0        1.347192   -0.007350   -1.127645
      5         15           0       -1.347781    0.004845   -1.127354
      6          8           0       -2.399244   -1.227214   -0.748865
      7          8           0       -2.399275    1.234830   -0.741602
      8          8           0        2.398741    1.225548   -0.751134
      9          8           0        2.399775   -1.236480   -0.739397
     10          6           0       -3.464360   -0.691779   -0.014339
     11          6           0       -3.464054    0.695246   -0.008881
     12          6           0       -4.446146   -1.420912    0.620583
     13          6           0       -4.445181    1.420135    0.630424
     14          6           0       -5.446281   -0.697903    1.277892
     15          1           0       -4.435842   -2.501999    0.605783
     16          6           0       -5.445949    0.694121    1.282345
     17          1           0       -4.434482    2.502086    0.623220
     18          1           0       -6.232067   -1.235200    1.791579
     19          1           0       -6.232093    1.227845    1.799841
     20          6           0        3.464718   -0.695268   -0.008119
     21          6           0        3.464023    0.691747   -0.015661
     22          6           0        4.445990   -1.418733    0.633575
     23          6           0        4.445953    1.422291    0.618417
     24          6           0        5.445905   -0.691266    1.283654
     25          1           0        4.436296   -2.499704    0.627778
     26          6           0        5.446242    0.701744    1.276105
     27          1           0        4.434645    2.503347    0.601216
     28          1           0        6.232167   -1.223839    1.802157
     29          1           0        6.232144    1.240182    1.788418
 ---------------------------------------------------------------------

 SCF Done:  E(RB3LYP) =  -1485.39972676     A.U. after   15 cycles

      1  C    Isotropic =   127.7739   Anisotropy =    20.2041

      2  H    Isotropic =    29.9543   Anisotropy =     5.3991

      3  H    Isotropic =    29.9652   Anisotropy =     5.3959

      4  P    Isotropic =    41.1242   Anisotropy =   374.3053

      5  P    Isotropic =    41.3405   Anisotropy =   374.0869

      6  O    Isotropic =   178.8619   Anisotropy =   125.9117

      7  O    Isotropic =   178.5238   Anisotropy =   126.0783

      8  O    Isotropic =   178.9049   Anisotropy =   125.8252

      9  O    Isotropic =   178.4301   Anisotropy =   126.0915

     10  C    Isotropic =    28.0829   Anisotropy =   108.3153

     11  C    Isotropic =    28.1254   Anisotropy =   108.1177

     12  C    Isotropic =    65.0901   Anisotropy =   153.6937

     13  C    Isotropic =    65.2145   Anisotropy =   153.5047

     14  C    Isotropic =    55.0803   Anisotropy =   175.6712

     15  H    Isotropic =    24.5793   Anisotropy =     5.5264

     16  C    Isotropic =    55.1639   Anisotropy =   175.5350

     17  H    Isotropic =    24.5735   Anisotropy =     5.5099

     18  H    Isotropic =    24.7141   Anisotropy =     4.4459

     19  H    Isotropic =    24.7120   Anisotropy =     4.4351

     20  C    Isotropic =    28.0691   Anisotropy =   108.2175

     21  C    Isotropic =    28.0436   Anisotropy =   108.2829

     22  C    Isotropic =    65.2654   Anisotropy =   153.5952

     23  C    Isotropic =    65.0865   Anisotropy =   153.7085

     24  C    Isotropic =    55.1283   Anisotropy =   175.5888

     25  H    Isotropic =    24.5873   Anisotropy =     5.5168

     26  C    Isotropic =    55.1168   Anisotropy =   175.6160

     27  H    Isotropic =    24.5803   Anisotropy =     5.5278

     28  H    Isotropic =    24.7124   Anisotropy =     4.4380

     29  H    Isotropic =    24.7139   Anisotropy =     4.4436

 The electronic state is 1-A.
 Alpha  occ. eigenvalues --  -77.13040 -77.13040 -19.17603 -19.17596 -19.17590
 Alpha  occ. eigenvalues --  -19.17573 -10.24815 -10.24807 -10.24757 -10.24749
 Alpha  occ. eigenvalues --  -10.19164 -10.19161 -10.19153 -10.19144 -10.18881
 Alpha  occ. eigenvalues --  -10.18720 -10.18714 -10.18664 -10.18659  -6.60776
 Alpha  occ. eigenvalues --   -6.60774  -4.77132  -4.77131  -4.76874  -4.76872
 Alpha  occ. eigenvalues --   -4.76288  -4.76287  -1.10621  -1.10552  -1.03869
 Alpha  occ. eigenvalues --   -1.03846  -0.87245  -0.87165  -0.77765  -0.76712
 Alpha  occ. eigenvalues --   -0.76706  -0.75609  -0.73808  -0.63665  -0.63641
 Alpha  occ. eigenvalues --   -0.63319  -0.62607  -0.62508  -0.61240  -0.52871
 Alpha  occ. eigenvalues --   -0.52826  -0.52805  -0.52425  -0.50082  -0.48992
 Alpha  occ. eigenvalues --   -0.47053  -0.46747  -0.46071  -0.45894  -0.45868
 Alpha  occ. eigenvalues --   -0.44897  -0.42973  -0.42410  -0.39902  -0.39378
 Alpha  occ. eigenvalues --   -0.39187  -0.39017  -0.38686  -0.37560  -0.37527
 Alpha  occ. eigenvalues --   -0.36528  -0.36455  -0.36305  -0.34330  -0.27946
 Alpha  occ. eigenvalues --   -0.26633  -0.26588  -0.25862  -0.23415  -0.21630
 Alpha virt. eigenvalues --   -0.06139  -0.02534  -0.02518  -0.01229  -0.01063
 Alpha virt. eigenvalues --    0.02335   0.03388   0.03973   0.04215   0.04661
 Alpha virt. eigenvalues --    0.04693   0.07227   0.07352   0.08480   0.08679

 Mulliken charges:
               1
     1  C   -0.382774
     2  H    0.142149
     3  H    0.142173
     4  P    0.484587
     5  P    0.484444
     6  O   -0.339578
     7  O   -0.339714
     8  O   -0.339722
     9  O   -0.340066
    10  C    0.187781
    11  C    0.188076
    12  C   -0.200781
    13  C   -0.200883
    14  C   -0.101898
    15  H    0.122943
    16  C   -0.101800
    17  H    0.122879
    18  H    0.113998
    19  H    0.113990
    20  C    0.188584
    21  C    0.187288
    22  C   -0.201285
    23  C   -0.200332
    24  C   -0.101377
    25  H    0.122854
    26  C   -0.102296
    27  H    0.122822
    28  H    0.113951
    29  H    0.113989
 Sum of Mulliken charges =  -0.00000

 Dipole moment (field-independent basis, Debye):
    X=             -0.0095    Y=              0.0035    Z=              3.3599  Tot=              3.3600
 Quadrupole moment (field-independent basis, Debye-Ang):
   XX=           -106.9014   YY=           -117.2131   ZZ=           -128.3879
   XY=              0.0662   XZ=             -0.0081   YZ=             -0.0101

 Summary of Natural Population Analysis:

                                       Natural Population
                Natural  -----------------------------------------------
    Atom  No    Charge         Core      Valence    Rydberg      Total
 -----------------------------------------------------------------------
      C    1   -1.19199      1.99949     5.16265    0.02985     7.19199
      H    2    0.27564      0.00000     0.72260    0.00177     0.72436
      H    3    0.27560      0.00000     0.72263    0.00177     0.72440
      P    4    1.34331      9.99879     3.57931    0.07859    13.65669
      P    5    1.34319      9.99879     3.57940    0.07862    13.65681
      O    6   -0.71590      1.99982     6.68929    0.02679     8.71590
      O    7   -0.71601      1.99982     6.68942    0.02677     8.71601
      O    8   -0.71596      1.99982     6.68937    0.02677     8.71596
      O    9   -0.71607      1.99982     6.68952    0.02673     8.71607
      C   10    0.20926      1.99855     3.76738    0.02480     5.79074
      C   11    0.20893      1.99855     3.76771    0.02481     5.79107
      C   12   -0.23635      1.99904     4.21792    0.01938     6.23635
      C   13   -0.23640      1.99904     4.21794    0.01943     6.23640
      C   14   -0.20707      1.99922     4.18901    0.01884     6.20707
      H   15    0.22605      0.00000     0.77260    0.00135     0.77395
      C   16   -0.20722      1.99922     4.18914    0.01886     6.20722
      H   17    0.22615      0.00000     0.77250    0.00135     0.77385
      H   18    0.21286      0.00000     0.78607    0.00108     0.78714
      H   19    0.21293      0.00000     0.78599    0.00108     0.78707
      C   20    0.20923      1.99855     3.76741    0.02481     5.79077
      C   21    0.20925      1.99856     3.76740    0.02480     5.79075
      C   22   -0.23659      1.99904     4.21813    0.01941     6.23659
      C   23   -0.23635      1.99904     4.21792    0.01939     6.23635
      C   24   -0.20704      1.99922     4.18896    0.01886     6.20704
      H   25    0.22605      0.00000     0.77260    0.00135     0.77395
      C   26   -0.20721      1.99922     4.18915    0.01884     6.20721
      H   27    0.22598      0.00000     0.77266    0.00135     0.77402
      H   28    0.21286      0.00000     0.78606    0.00108     0.78714
      H   29    0.21288      0.00000     0.78604    0.00108     0.78712
 =======================================================================
   * Total *    0.00000     53.98361    95.45679    0.55960   150.00000

 Normal termination of Gaussian 16 at Thu Jan 23 20:55:40 2025.
