 Gaussian 16, Revision B.01,
 Gaussian 16:  ES64L-G16RevB.01 20-Dec-2017

 --------------------------------------------
 # nmr=giao b3lyp/def2TZVP pop=nbo scfcyc=200
 --------------------------------------------

 --------------
 MB-38 SPE NoRh
 --------------
 Symbolic Z-matrix:
 Charge =  0 Multiplicity = 1

                         Standard orientation:
 ---------------------------------------------------------------------
 Center     Atomic      Atomic             Coordinates (Angstroms)
 Number     Number       Type             X           Y           Z
 ---------------------------------------------------------------------
      1          6           0       -0.046675   -0.802384    0.797293
      2          1           0       -0.413621   -1.809092    1.000831
      3          1           0        0.129442   -0.281436    1.738936
      4          6           0       -1.090129    1.842479    0.073129
      5          1           0       -1.551604    1.927179    1.059767
      6          1           0       -0.023447    2.058588    0.173109
      7          6           0        2.295900   -2.506941    0.148987
      8          1           0        2.463591   -2.420836    1.226973
      9          1           0        1.601043   -3.333199   -0.015086
     10         15           0       -1.188898    0.031520   -0.422020
     11         15           0        1.408710   -0.941219   -0.376094
     12          6           0        2.554759    0.424421    0.081662
     13          6           0        3.061321    0.538502    1.381662
     14          6           0        2.931011    1.361344   -0.883517
     15          6           0        3.930269    1.572799    1.705823
     16          1           0        2.783493   -0.174377    2.149099
     17          6           0        3.802928    2.396133   -0.556203
     18          1           0        2.537614    1.283761   -1.889492
     19          6           0        4.302573    2.502062    0.736676
     20          1           0        4.318646    1.654413    2.713043
     21          1           0        4.089622    3.117681   -1.311139
     22          1           0        4.980617    3.306605    0.991654
     23          6           0       -2.913685   -0.463732   -0.030531
     24          6           0       -3.924484   -0.200737   -0.962007
     25          6           0       -3.246946   -1.069197    1.185007
     26          6           0       -5.243548   -0.536907   -0.678682
     27          1           0       -3.692558    0.279568   -1.903674
     28          6           0       -4.566926   -1.409493    1.460323
     29          1           0       -2.486490   -1.275961    1.927362
     30          6           0       -5.565726   -1.146473    0.528960
     31          1           0       -6.019169   -0.325049   -1.404695
     32          1           0       -4.812887   -1.879965    2.403525
     33          1           0       -6.592287   -1.413152    0.745754
     34          6           0       -1.725753    2.774627   -0.909144
     35          1           0       -1.198142    2.906201   -1.849079
     36          6           0       -2.852172    3.446537   -0.692367
     37          1           0       -3.255547    4.124031   -1.434039
     38          1           0       -3.404751    3.355021    0.235655
     39          6           0        3.591167   -2.736591   -0.568577
     40          1           0        4.351486   -1.972821   -0.440237
     41          6           0        3.861233   -3.809213   -1.305525
     42          1           0        3.142071   -4.609246   -1.442868
     43          1           0        4.825007   -3.935859   -1.781493
 ---------------------------------------------------------------------

 SCF Done:  E(RB3LYP) =  -1420.23964705     A.U. after   14 cycles

      1  C    Isotropic =   155.6333   Anisotropy =    18.9713

      2  H    Isotropic =    30.1435   Anisotropy =     7.0755

      3  H    Isotropic =    29.7957   Anisotropy =     4.9762

      4  C    Isotropic =   141.6909   Anisotropy =    29.2549

      5  H    Isotropic =    29.7701   Anisotropy =     4.5799

      6  H    Isotropic =    30.2171   Anisotropy =    10.0810

      7  C    Isotropic =   140.9008   Anisotropy =    37.5226

      8  H    Isotropic =    28.4827   Anisotropy =     5.2144

      9  H    Isotropic =    29.4589   Anisotropy =     4.7055

     10  P    Isotropic =   258.9581   Anisotropy =   102.6288

     11  P    Isotropic =   258.7583   Anisotropy =   103.2662

     12  C    Isotropic =    36.2317   Anisotropy =   208.4052

     13  C    Isotropic =    43.8199   Anisotropy =   189.8466

     14  C    Isotropic =    40.1231   Anisotropy =   179.9132

     15  C    Isotropic =    49.0680   Anisotropy =   184.9257

     16  H    Isotropic =    23.6993   Anisotropy =    10.0818

     17  C    Isotropic =    49.8398   Anisotropy =   184.0688

     18  H    Isotropic =    23.6746   Anisotropy =     7.6792

     19  C    Isotropic =    48.0547   Anisotropy =   189.3961

     20  H    Isotropic =    24.1922   Anisotropy =     5.6997

     21  H    Isotropic =    24.2061   Anisotropy =     5.3133

     22  H    Isotropic =    24.2147   Anisotropy =     4.6292

     23  C    Isotropic =    33.4679   Anisotropy =   205.1230

     24  C    Isotropic =    44.6561   Anisotropy =   186.5389

     25  C    Isotropic =    48.1066   Anisotropy =   180.0945

     26  C    Isotropic =    50.9668   Anisotropy =   182.3688

     27  H    Isotropic =    24.3421   Anisotropy =     9.3937

     28  C    Isotropic =    49.8063   Anisotropy =   183.3560

     29  H    Isotropic =    24.2310   Anisotropy =    11.8136

     30  C    Isotropic =    51.2016   Anisotropy =   184.1232

     31  H    Isotropic =    24.3892   Anisotropy =     5.5635

     32  H    Isotropic =    24.3757   Anisotropy =     6.1417

     33  H    Isotropic =    24.4609   Anisotropy =     4.5466

     34  C    Isotropic =    40.2637   Anisotropy =   171.4158

     35  H    Isotropic =    25.7062   Anisotropy =     5.8137

     36  C    Isotropic =    62.5025   Anisotropy =   139.4327

     37  H    Isotropic =    26.8787   Anisotropy =     6.0792

     38  H    Isotropic =    27.3869   Anisotropy =     7.4287

     39  C    Isotropic =    41.4529   Anisotropy =   175.2028

     40  H    Isotropic =    26.5125   Anisotropy =     9.7859

     41  C    Isotropic =    62.9489   Anisotropy =   136.0100

     42  H    Isotropic =    26.5290   Anisotropy =     6.7684

     43  H    Isotropic =    26.8232   Anisotropy =     6.8678

 The electronic state is 1-A.
 Alpha  occ. eigenvalues --  -77.04697 -77.04530 -10.18782 -10.18709 -10.18672
 Alpha  occ. eigenvalues --  -10.18562 -10.18521 -10.18508 -10.18457 -10.18021
 Alpha  occ. eigenvalues --  -10.17994 -10.17889 -10.17848 -10.17779 -10.17738
 Alpha  occ. eigenvalues --  -10.17620 -10.17607 -10.17564 -10.17522 -10.16306
 Alpha  occ. eigenvalues --  -10.16241  -6.53251  -6.53081  -4.69407  -4.69362
 Alpha  occ. eigenvalues --   -4.69252  -4.69183  -4.68868  -4.68705  -0.86769
 Alpha  occ. eigenvalues --   -0.85848  -0.80075  -0.79605  -0.76842  -0.75859
 Alpha  occ. eigenvalues --   -0.75718  -0.74941  -0.73381  -0.70025  -0.68310
 Alpha  occ. eigenvalues --   -0.62320  -0.61636  -0.61281  -0.60628  -0.57109
 Alpha  occ. eigenvalues --   -0.56207  -0.55291  -0.54406  -0.51511  -0.50749
 Alpha  occ. eigenvalues --   -0.47476  -0.47271  -0.46341  -0.45908  -0.45511
 Alpha  occ. eigenvalues --   -0.45124  -0.44702  -0.43404  -0.43326  -0.42943
 Alpha  occ. eigenvalues --   -0.42399  -0.42224  -0.40963  -0.39643  -0.38884
 Alpha  occ. eigenvalues --   -0.38285  -0.37276  -0.37025  -0.35987  -0.35756
 Alpha  occ. eigenvalues --   -0.35348  -0.34881  -0.33921  -0.33241  -0.31633
 Alpha  occ. eigenvalues --   -0.27036  -0.26875  -0.26709  -0.26158  -0.25909
 Alpha  occ. eigenvalues --   -0.25559  -0.22880  -0.19142
 Alpha virt. eigenvalues --   -0.03833  -0.02668  -0.02330  -0.01534  -0.00502
 Alpha virt. eigenvalues --   -0.00111   0.02511   0.03417   0.03952   0.04721
 Alpha virt. eigenvalues --    0.05599   0.05898   0.06237   0.06898   0.07242

 Mulliken charges:
               1
     1  C   -0.382027
     2  H    0.132465
     3  H    0.123147
     4  C   -0.238657
     5  H    0.104532
     6  H    0.141954
     7  C   -0.224528
     8  H    0.104621
     9  H    0.109160
    10  P    0.153153
    11  P    0.158445
    12  C    0.004666
    13  C   -0.166334
    14  C   -0.144324
    15  C   -0.122686
    16  H    0.114723
    17  C   -0.103782
    18  H    0.117532
    19  C   -0.091818
    20  H    0.110130
    21  H    0.113352
    22  H    0.114073
    23  C    0.102835
    24  C   -0.169332
    25  C   -0.200562
    26  C   -0.100804
    27  H    0.105304
    28  C   -0.113675
    29  H    0.113434
    30  C   -0.109814
    31  H    0.108174
    32  H    0.104947
    33  H    0.108214
    34  C   -0.123269
    35  H    0.106155
    36  C   -0.249692
    37  H    0.111077
    38  H    0.109316
    39  C   -0.106259
    40  H    0.123335
    41  C   -0.262210
    42  H    0.104643
    43  H    0.110384
 Sum of Mulliken charges =  -0.00000

 Dipole moment (field-independent basis, Debye):
    X=              0.5464    Y=              0.6678    Z=              2.2506  Tot=              2.4104
 Quadrupole moment (field-independent basis, Debye-Ang):
   XX=           -132.6786   YY=           -139.7622   ZZ=           -138.6156
   XY=              6.1232   XZ=              1.6155   YZ=             -5.2449

 Summary of Natural Population Analysis:

                                       Natural Population
                Natural  -----------------------------------------------
    Atom  No    Charge         Core      Valence    Rydberg      Total
 -----------------------------------------------------------------------
      C    1   -1.01291      1.99946     4.98252    0.03093     7.01291
      H    2    0.24945      0.00000     0.74888    0.00167     0.75055
      H    3    0.23291      0.00000     0.76432    0.00277     0.76709
      C    4   -0.70646      1.99936     4.68155    0.02555     6.70646
      H    5    0.21143      0.00000     0.78503    0.00353     0.78857
      H    6    0.23421      0.00000     0.76380    0.00199     0.76579
      C    7   -0.70861      1.99936     4.68473    0.02452     6.70861
      H    8    0.20905      0.00000     0.78786    0.00309     0.79095
      H    9    0.22569      0.00000     0.77263    0.00167     0.77431
      P   10    0.81110      9.99841     4.15545    0.03505    14.18890
      P   11    0.80720      9.99844     4.15883    0.03553    14.19280
      C   12   -0.34121      1.99902     4.30868    0.03351     6.34121
      C   13   -0.20057      1.99908     4.18118    0.02031     6.20057
      C   14   -0.19072      1.99910     4.17067    0.02095     6.19072
      C   15   -0.20339      1.99919     4.18507    0.01913     6.20339
      H   16    0.20179      0.00000     0.79571    0.00250     0.79821
      C   17   -0.20468      1.99918     4.18595    0.01955     6.20468
      H   18    0.22105      0.00000     0.77726    0.00169     0.77895
      C   19   -0.19629      1.99919     4.17801    0.01909     6.19629
      H   20    0.20872      0.00000     0.78991    0.00138     0.79128
      H   21    0.21118      0.00000     0.78755    0.00127     0.78882
      H   22    0.20993      0.00000     0.78890    0.00116     0.79007
      C   23   -0.32942      1.99901     4.30069    0.02972     6.32942
      C   24   -0.19203      1.99909     4.17191    0.02103     6.19203
      C   25   -0.20898      1.99908     4.18938    0.02052     6.20898
      C   26   -0.20048      1.99918     4.18227    0.01902     6.20048
      H   27    0.21464      0.00000     0.78315    0.00221     0.78536
      C   28   -0.20269      1.99919     4.18416    0.01933     6.20269
      H   29    0.20071      0.00000     0.79692    0.00236     0.79929
      C   30   -0.20814      1.99919     4.18936    0.01960     6.20814
      H   31    0.20832      0.00000     0.79036    0.00132     0.79168
      H   32    0.20598      0.00000     0.79265    0.00136     0.79402
      H   33    0.20741      0.00000     0.79135    0.00124     0.79259
      C   34   -0.17600      1.99920     4.15530    0.02151     6.17600
      H   35    0.19741      0.00000     0.80087    0.00172     0.80259
      C   36   -0.38579      1.99916     4.36935    0.01728     6.38579
      H   37    0.19490      0.00000     0.80371    0.00139     0.80510
      H   38    0.18768      0.00000     0.81043    0.00189     0.81232
      C   39   -0.17736      1.99919     4.15655    0.02162     6.17736
      H   40    0.19628      0.00000     0.80187    0.00185     0.80372
      C   41   -0.38172      1.99917     4.36583    0.01672     6.38172
      H   42    0.18518      0.00000     0.81301    0.00181     0.81482
      H   43    0.19522      0.00000     0.80328    0.00150     0.80478
 =======================================================================
   * Total *    0.00000     57.98127   107.48692    0.53181   166.00000

 Normal termination of Gaussian 16 at Thu Jan 23 21:14:35 2025.
