 Gaussian 16, Revision B.01,
 Gaussian 16:  ES64L-G16RevB.01 20-Dec-2017

 --------------------------------------------
 # nmr=giao b3lyp/def2TZVP pop=nbo scfcyc=200
 --------------------------------------------

 --------------
 MB-34 SPE NoRh
 --------------
 Symbolic Z-matrix:
 Charge =  0 Multiplicity = 1

                         Standard orientation:
 ---------------------------------------------------------------------
 Center     Atomic      Atomic             Coordinates (Angstroms)
 Number     Number       Type             X           Y           Z
 ---------------------------------------------------------------------
      1         15           0        0.540476   -0.037470   -0.535382
      2         15           0       -2.270068   -0.072470   -0.421860
      3          6           0       -0.816476   -0.033144    0.762663
      4          1           0       -0.800614   -0.882403    1.442010
      5          1           0       -0.780516    0.879140    1.354980
      6          6           0        1.515707    1.499029   -0.244442
      7          6           0        2.491581    1.558072    0.756215
      8          1           0        2.722567    0.681806    1.348883
      9          6           0        3.180256    2.742196    0.987456
     10          1           0        3.936761    2.780062    1.761995
     11          6           0        2.905522    3.873717    0.224379
     12          1           0        3.448773    4.792806    0.404840
     13          6           0        1.939958    3.819885   -0.774394
     14          1           0        1.729862    4.696608   -1.374369
     15          6           0        1.248861    2.636038   -1.011722
     16          1           0        0.502727    2.589842   -1.795039
     17          6           0        1.711959   -1.410066   -0.160693
     18          6           0        1.629036   -2.212830    0.978007
     19          1           0        0.859073   -2.050711    1.720083
     20          6           0        2.554237   -3.232799    1.189618
     21          1           0        2.479240   -3.845359    2.078366
     22          6           0        3.569274   -3.458638    0.268749
     23          1           0        4.287684   -4.251399    0.435331
     24          6           0        3.664214   -2.658465   -0.866966
     25          1           0        4.457515   -2.823336   -1.584778
     26          6           0        2.740317   -1.643850   -1.083118
     27          1           0        2.837256   -1.021056   -1.964197
     28          6           0       -3.191343   -1.658116    0.002743
     29          1           0       -3.344503   -1.613697    1.085064
     30          6           0       -2.344976   -2.894139   -0.323141
     31          1           0       -2.878207   -3.794013   -0.010103
     32          1           0       -1.380394   -2.894205    0.186649
     33          1           0       -2.156258   -2.970513   -1.395440
     34          6           0       -4.558484   -1.728089   -0.686797
     35          1           0       -4.458029   -1.762822   -1.772343
     36          1           0       -5.205610   -0.889224   -0.430349
     37          1           0       -5.072232   -2.641058   -0.380465
     38          6           0       -3.407307    1.339897    0.080871
     39          1           0       -4.243431    1.259457   -0.620550
     40          6           0       -3.945615    1.210547    1.510626
     41          1           0       -3.139802    1.238174    2.247991
     42          1           0       -4.517340    0.296703    1.666349
     43          1           0       -4.608905    2.050506    1.727230
     44          6           0       -2.727365    2.696037   -0.142478
     45          1           0       -3.446677    3.498091    0.034899
     46          1           0       -2.346747    2.803116   -1.159264
     47          1           0       -1.894456    2.850885    0.545373
 ---------------------------------------------------------------------

 SCF Done:  E(RB3LYP) =  -1422.69821491     A.U. after   26 cycles

      1  P    Isotropic =   242.8558   Anisotropy =   120.1616

      2  P    Isotropic =   221.5736   Anisotropy =    90.8414

      3  C    Isotropic =   166.3551   Anisotropy =    25.9520

      4  H    Isotropic =    29.9229   Anisotropy =     6.8755

      5  H    Isotropic =    30.6746   Anisotropy =     3.7843

      6  C    Isotropic =    32.4267   Anisotropy =   207.6821

      7  C    Isotropic =    42.2960   Anisotropy =   187.0855

      8  H    Isotropic =    24.6377   Anisotropy =    12.4006

      9  C    Isotropic =    49.1244   Anisotropy =   183.9429

     10  H    Isotropic =    24.5299   Anisotropy =     6.4991

     11  C    Isotropic =    49.7371   Anisotropy =   186.8968

     12  H    Isotropic =    24.4324   Anisotropy =     4.3340

     13  C    Isotropic =    50.9308   Anisotropy =   182.2348

     14  H    Isotropic =    24.3413   Anisotropy =     5.6246

     15  C    Isotropic =    42.4994   Anisotropy =   179.7148

     16  H    Isotropic =    23.7414   Anisotropy =     8.3749

     17  C    Isotropic =    35.2380   Anisotropy =   203.9450

     18  C    Isotropic =    49.0325   Anisotropy =   184.7765

     19  H    Isotropic =    23.9465   Anisotropy =    10.8349

     20  C    Isotropic =    50.2984   Anisotropy =   182.2249

     21  H    Isotropic =    24.2788   Anisotropy =     6.1055

     22  C    Isotropic =    51.9512   Anisotropy =   182.5640

     23  H    Isotropic =    24.4612   Anisotropy =     4.1086

     24  C    Isotropic =    49.0361   Anisotropy =   184.4128

     25  H    Isotropic =    24.3686   Anisotropy =     5.3864

     26  C    Isotropic =    44.8264   Anisotropy =   185.6653

     27  H    Isotropic =    24.3872   Anisotropy =    10.6215

     28  C    Isotropic =   151.4123   Anisotropy =    19.5315

     29  H    Isotropic =    29.9704   Anisotropy =     3.8299

     30  C    Isotropic =   163.0695   Anisotropy =    31.3285

     31  H    Isotropic =    30.9244   Anisotropy =    10.0930

     32  H    Isotropic =    30.9004   Anisotropy =    10.5030

     33  H    Isotropic =    31.1463   Anisotropy =     6.5664

     34  C    Isotropic =   164.8470   Anisotropy =    33.0440

     35  H    Isotropic =    31.2209   Anisotropy =     8.3371

     36  H    Isotropic =    30.9483   Anisotropy =     8.3133

     37  H    Isotropic =    30.9448   Anisotropy =    10.8265

     38  C    Isotropic =   150.4769   Anisotropy =    17.5355

     39  H    Isotropic =    30.2275   Anisotropy =     6.8359

     40  C    Isotropic =   166.6591   Anisotropy =    28.1682

     41  H    Isotropic =    31.3344   Anisotropy =     5.4619

     42  H    Isotropic =    30.6217   Anisotropy =     7.7460

     43  H    Isotropic =    31.0228   Anisotropy =    11.2494

     44  C    Isotropic =   161.8003   Anisotropy =    33.5806

     45  H    Isotropic =    30.8143   Anisotropy =    10.2806

     46  H    Isotropic =    30.4584   Anisotropy =     8.6145

     47  H    Isotropic =    31.4443   Anisotropy =     6.3826

 The electronic state is 1-A.
 Alpha  occ. eigenvalues --  -77.04493 -77.03206 -10.18341 -10.18224 -10.17992
 Alpha  occ. eigenvalues --  -10.17936 -10.17918 -10.17917 -10.17905 -10.17836
 Alpha  occ. eigenvalues --  -10.17807 -10.17763 -10.17722 -10.17705 -10.17704
 Alpha  occ. eigenvalues --  -10.17650 -10.17567 -10.16328 -10.16314 -10.16203
 Alpha  occ. eigenvalues --  -10.16115  -6.53054  -6.51816  -4.69210  -4.69169
 Alpha  occ. eigenvalues --   -4.68682  -4.67989  -4.67896  -4.67438  -0.86219
 Alpha  occ. eigenvalues --   -0.85762  -0.80467  -0.78279  -0.76992  -0.75136
 Alpha  occ. eigenvalues --   -0.75065  -0.74561  -0.72419  -0.68960  -0.68607
 Alpha  occ. eigenvalues --   -0.63649  -0.61723  -0.60957  -0.60599  -0.60052
 Alpha  occ. eigenvalues --   -0.58311  -0.55687  -0.52364  -0.51640  -0.50300
 Alpha  occ. eigenvalues --   -0.46898  -0.45949  -0.45935  -0.45642  -0.45458
 Alpha  occ. eigenvalues --   -0.44922  -0.44504  -0.43334  -0.42873  -0.42666
 Alpha  occ. eigenvalues --   -0.42247  -0.40979  -0.40239  -0.39749  -0.39064
 Alpha  occ. eigenvalues --   -0.38831  -0.38669  -0.37571  -0.37297  -0.35809
 Alpha  occ. eigenvalues --   -0.35184  -0.35102  -0.35024  -0.34885  -0.34832
 Alpha  occ. eigenvalues --   -0.33833  -0.32418  -0.30693  -0.29340  -0.26991
 Alpha  occ. eigenvalues --   -0.26226  -0.26148  -0.25793  -0.21864  -0.18314
 Alpha virt. eigenvalues --   -0.03148  -0.02433  -0.02221  -0.01085   0.01817
 Alpha virt. eigenvalues --    0.02553   0.03584   0.04393   0.04816   0.05363
 Alpha virt. eigenvalues --    0.06091   0.06611   0.07376   0.07521   0.07791

 Mulliken charges:
               1
     1  P    0.133935
     2  P    0.153666
     3  C   -0.374941
     4  H    0.115239
     5  H    0.129070
     6  C    0.016506
     7  C   -0.145061
     8  H    0.140179
     9  C   -0.121667
    10  H    0.107476
    11  C   -0.096080
    12  H    0.110302
    13  C   -0.106432
    14  H    0.109195
    15  C   -0.170689
    16  H    0.119104
    17  C    0.071692
    18  C   -0.177315
    19  H    0.108004
    20  C   -0.124829
    21  H    0.105841
    22  C   -0.102477
    23  H    0.108317
    24  C   -0.111016
    25  H    0.108887
    26  C   -0.155519
    27  H    0.108733
    28  C   -0.085750
    29  H    0.076843
    30  C   -0.347015
    31  H    0.105125
    32  H    0.119922
    33  H    0.117081
    34  C   -0.356135
    35  H    0.113926
    36  H    0.115492
    37  H    0.109540
    38  C   -0.080538
    39  H    0.084648
    40  C   -0.343951
    41  H    0.103996
    42  H    0.117129
    43  H    0.103056
    44  C   -0.355266
    45  H    0.111862
    46  H    0.120505
    47  H    0.109409
 Sum of Mulliken charges =  -0.00000

 Dipole moment (field-independent basis, Debye):
    X=             -0.1622    Y=              0.3231    Z=              1.9363  Tot=              1.9698
 Quadrupole moment (field-independent basis, Debye-Ang):
   XX=           -136.6577   YY=           -136.4947   ZZ=           -145.1618
   XY=             -0.5404   XZ=             -0.6826   YZ=             -3.6382

 Summary of Natural Population Analysis:

                                       Natural Population
                Natural  -----------------------------------------------
    Atom  No    Charge         Core      Valence    Rydberg      Total
 -----------------------------------------------------------------------
      P    1    0.82665      9.99817     4.14130    0.03388    14.17335
      P    2    0.78537      9.99861     4.18211    0.03391    14.21463
      C    3   -1.02018      1.99945     4.98842    0.03231     7.02018
      H    4    0.23792      0.00000     0.75979    0.00229     0.76208
      H    5    0.24913      0.00000     0.74845    0.00242     0.75087
      C    6   -0.32345      1.99899     4.29248    0.03198     6.32345
      C    7   -0.19561      1.99908     4.17619    0.02034     6.19561
      H    8    0.21254      0.00000     0.78524    0.00222     0.78746
      C    9   -0.20372      1.99919     4.18529    0.01925     6.20372
      H   10    0.20741      0.00000     0.79117    0.00142     0.79259
      C   11   -0.20073      1.99919     4.18227    0.01927     6.20073
      H   12    0.20803      0.00000     0.79076    0.00120     0.79197
      C   13   -0.20612      1.99918     4.18724    0.01969     6.20612
      H   14    0.20905      0.00000     0.78963    0.00132     0.79095
      C   15   -0.19631      1.99910     4.17629    0.02091     6.19631
      H   16    0.21702      0.00000     0.78132    0.00166     0.78298
      C   17   -0.32298      1.99900     4.29167    0.03231     6.32298
      C   18   -0.21759      1.99908     4.19846    0.02006     6.21759
      H   19    0.19847      0.00000     0.79881    0.00272     0.80153
      C   20   -0.19978      1.99919     4.18151    0.01908     6.19978
      H   21    0.20663      0.00000     0.79207    0.00131     0.79337
      C   22   -0.21135      1.99919     4.19269    0.01947     6.21135
      H   23    0.20790      0.00000     0.79093    0.00117     0.79210
      C   24   -0.19718      1.99919     4.17934    0.01866     6.19718
      H   25    0.20883      0.00000     0.78989    0.00127     0.79117
      C   26   -0.19696      1.99909     4.17777    0.02010     6.19696
      H   27    0.21199      0.00000     0.78612    0.00189     0.78801
      C   28   -0.47432      1.99945     4.45239    0.02248     6.47432
      H   29    0.19133      0.00000     0.80512    0.00355     0.80867
      C   30   -0.59443      1.99943     4.58356    0.01144     6.59443
      H   31    0.20283      0.00000     0.79558    0.00159     0.79717
      H   32    0.20426      0.00000     0.79441    0.00132     0.79574
      H   33    0.20775      0.00000     0.79057    0.00168     0.79225
      C   34   -0.59723      1.99943     4.58574    0.01206     6.59723
      H   35    0.20537      0.00000     0.79276    0.00187     0.79463
      H   36    0.20223      0.00000     0.79635    0.00142     0.79777
      H   37    0.20489      0.00000     0.79353    0.00158     0.79511
      C   38   -0.47821      1.99945     4.45496    0.02380     6.47821
      H   39    0.21644      0.00000     0.78189    0.00167     0.78356
      C   40   -0.60170      1.99943     4.59009    0.01217     6.60170
      H   41    0.19609      0.00000     0.80220    0.00171     0.80391
      H   42    0.20177      0.00000     0.79690    0.00132     0.79823
      H   43    0.19909      0.00000     0.79899    0.00192     0.80091
      C   44   -0.59509      1.99943     4.58388    0.01178     6.59509
      H   45    0.20403      0.00000     0.79439    0.00158     0.79597
      H   46    0.21254      0.00000     0.78601    0.00145     0.78746
      H   47    0.19739      0.00000     0.80089    0.00172     0.80261
 =======================================================================
   * Total *   -0.00000     57.98229   111.51743    0.50028   170.00000

 Normal termination of Gaussian 16 at Thu Jan 23 21:11:26 2025.
