 Gaussian 16, Revision B.01,
 Gaussian 16:  ES64L-G16RevB.01 20-Dec-2017

 --------------------------------------------
 # nmr=giao b3lyp/def2TZVP pop=nbo scfcyc=200
 --------------------------------------------

 -------------
 MB-3 SPE NoRh
 -------------
 Symbolic Z-matrix:
 Charge =  0 Multiplicity = 1

                         Standard orientation:
 ---------------------------------------------------------------------
 Center     Atomic      Atomic             Coordinates (Angstroms)
 Number     Number       Type             X           Y           Z
 ---------------------------------------------------------------------
      1          6           0       -0.007548   -0.213707    0.721108
      2          1           0       -0.008029   -1.176759    1.237663
      3          1           0       -0.011920    0.603620    1.444037
      4          6           0        3.566820    0.885566    0.205587
      5          6           0        3.514947   -0.560738    0.694078
      6          1           0        4.241153    1.004643   -0.643396
      7          1           0        3.840620    1.586464    0.992054
      8          1           0        4.458782   -1.086263    0.575236
      9          1           0        3.183940   -0.629463    1.732612
     10          6           0       -3.736042   -0.508983    0.326323
     11          6           0       -3.311549    0.931673    0.612888
     12          1           0       -4.460847   -0.564324   -0.486161
     13          1           0       -4.128925   -1.014557    1.205424
     14          1           0       -4.103619    1.653658    0.432271
     15          1           0       -2.933282    1.049405    1.630719
     16         15           0       -1.356507   -0.154733   -0.571632
     17         15           0        1.349979   -0.151513   -0.560999
     18          8           0        2.219298    1.211229   -0.227764
     19          8           0        2.540672   -1.216385   -0.161930
     20          8           0       -2.531803   -1.208536   -0.090058
     21          8           0       -2.245632    1.209241   -0.331611
 ---------------------------------------------------------------------

 SCF Done:  E(RB3LYP) =  -1180.42789081     A.U. after   13 cycles

      1  C    Isotropic =   131.7206   Anisotropy =    21.7125

      2  H    Isotropic =    30.7471   Anisotropy =     4.2271

      3  H    Isotropic =    30.0231   Anisotropy =     4.1857

      4  C    Isotropic =   112.0430   Anisotropy =    71.5736

      5  C    Isotropic =   111.9028   Anisotropy =    70.1336

      6  H    Isotropic =    28.2275   Anisotropy =    10.3247

      7  H    Isotropic =    27.6405   Anisotropy =     7.2849

      8  H    Isotropic =    27.7364   Anisotropy =     7.7633

      9  H    Isotropic =    28.2599   Anisotropy =     8.0950

     10  C    Isotropic =   111.9817   Anisotropy =    71.7780

     11  C    Isotropic =   112.3302   Anisotropy =    70.4338

     12  H    Isotropic =    28.2317   Anisotropy =    10.2610

     13  H    Isotropic =    27.6925   Anisotropy =     7.2882

     14  H    Isotropic =    27.7140   Anisotropy =     7.7445

     15  H    Isotropic =    28.2690   Anisotropy =     8.0514

     16  P    Isotropic =    53.4872   Anisotropy =   311.3819

     17  P    Isotropic =    52.3239   Anisotropy =   313.9729

     18  O    Isotropic =   245.5460   Anisotropy =   154.4391

     19  O    Isotropic =   225.3988   Anisotropy =   121.8460

     20  O    Isotropic =   242.7446   Anisotropy =   154.7461

     21  O    Isotropic =   229.0054   Anisotropy =   122.1040

 The electronic state is 1-A.
 Alpha  occ. eigenvalues --  -77.10403 -77.10390 -19.14730 -19.14648 -19.14147
 Alpha  occ. eigenvalues --  -19.14062 -10.23976 -10.23947 -10.23925 -10.23842
 Alpha  occ. eigenvalues --  -10.16972  -6.58142  -6.58133  -4.74488  -4.74480
 Alpha  occ. eigenvalues --   -4.74242  -4.74233  -4.73681  -4.73668  -1.06920
 Alpha  occ. eigenvalues --   -1.06837  -1.00169  -1.00154  -0.77839  -0.76544
 Alpha  occ. eigenvalues --   -0.72362  -0.64169  -0.64042  -0.58810  -0.57165
 Alpha  occ. eigenvalues --   -0.51836  -0.51589  -0.50328  -0.49882  -0.46385
 Alpha  occ. eigenvalues --   -0.45626  -0.45126  -0.43660  -0.42929  -0.41604
 Alpha  occ. eigenvalues --   -0.40088  -0.35742  -0.35718  -0.35490  -0.35386
 Alpha  occ. eigenvalues --   -0.35157  -0.31303  -0.30156  -0.29881  -0.23689
 Alpha  occ. eigenvalues --   -0.20074
 Alpha virt. eigenvalues --   -0.03481   0.02971   0.03144   0.03728   0.04891
 Alpha virt. eigenvalues --    0.05181   0.06331   0.06775   0.08084   0.08195
 Alpha virt. eigenvalues --    0.08398   0.08918   0.09724   0.10308   0.10931

 Mulliken charges:
               1
     1  C   -0.381272
     2  H    0.128050
     3  H    0.119801
     4  C   -0.012932
     5  C   -0.039453
     6  H    0.101058
     7  H    0.099063
     8  H    0.109762
     9  H    0.092542
    10  C   -0.011104
    11  C   -0.044272
    12  H    0.101816
    13  H    0.097085
    14  H    0.110088
    15  H    0.093651
    16  P    0.475449
    17  P    0.470031
    18  O   -0.383395
    19  O   -0.371638
    20  O   -0.382993
    21  O   -0.371338
 Sum of Mulliken charges =  -0.00000

 Dipole moment (field-independent basis, Debye):
    X=              0.0656    Y=              0.6382    Z=              3.9901  Tot=              4.0414
 Quadrupole moment (field-independent basis, Debye-Ang):
   XX=            -56.3642   YY=            -85.0953   ZZ=            -80.1832
   XY=             -0.2839   XZ=             -0.0725   YZ=              0.1566

 Summary of Natural Population Analysis:

                                       Natural Population
                Natural  -----------------------------------------------
    Atom  No    Charge         Core      Valence    Rydberg      Total
 -----------------------------------------------------------------------
      C    1   -1.19036      1.99950     5.15987    0.03099     7.19036
      H    2    0.26606      0.00000     0.73222    0.00172     0.73394
      H    3    0.25787      0.00000     0.74009    0.00204     0.74213
      C    4   -0.09942      1.99932     4.08143    0.01868     6.09942
      C    5   -0.11249      1.99932     4.09428    0.01889     6.11249
      H    6    0.17607      0.00000     0.82214    0.00180     0.82393
      H    7    0.19069      0.00000     0.80764    0.00167     0.80931
      H    8    0.19722      0.00000     0.80131    0.00147     0.80278
      H    9    0.16935      0.00000     0.82855    0.00211     0.83065
      C   10   -0.09995      1.99932     4.08211    0.01852     6.09995
      C   11   -0.11246      1.99933     4.09416    0.01897     6.11246
      H   12    0.17629      0.00000     0.82194    0.00177     0.82371
      H   13    0.18949      0.00000     0.80880    0.00171     0.81051
      H   14    0.19768      0.00000     0.80085    0.00147     0.80232
      H   15    0.16878      0.00000     0.82905    0.00217     0.83122
      P   16    1.34505      9.99885     3.57228    0.08383    13.65495
      P   17    1.34249      9.99884     3.57447    0.08420    13.65751
      O   18   -0.77192      1.99984     6.74758    0.02450     8.77192
      O   19   -0.75969      1.99985     6.73415    0.02570     8.75969
      O   20   -0.77193      1.99984     6.74755    0.02454     8.77193
      O   21   -0.75880      1.99985     6.73318    0.02577     8.75880
 =======================================================================
   * Total *   -0.00000     37.99384    63.61365    0.39251   102.00000

 Normal termination of Gaussian 16 at Thu Jan 23 19:11:31 2025.
