 Gaussian 16, Revision B.01,
 Gaussian 16:  ES64L-G16RevB.01 20-Dec-2017

 --------------------------------------------
 # nmr=giao b3lyp/def2TZVP pop=nbo scfcyc=200
 --------------------------------------------

 --------------
 MB-47 SPE NoRh
 --------------
 Symbolic Z-matrix:
 Charge =  0 Multiplicity = 1

                         Standard orientation:
 ---------------------------------------------------------------------
 Center     Atomic      Atomic             Coordinates (Angstroms)
 Number     Number       Type             X           Y           Z
 ---------------------------------------------------------------------
      1         15           0       -1.398900   -0.116492   -0.550112
      2         15           0        1.419627   -0.087998   -0.529402
      3          6           0       -0.012685   -0.462500    0.650332
      4          1           0        0.041231   -1.528768    0.871921
      5          1           0       -0.074532    0.080283    1.587469
      6          6           0       -2.349476   -2.630709    0.112747
      7          1           0       -1.297902   -2.815492   -0.113925
      8          1           0       -2.904223   -3.267621   -0.581023
      9          6           0       -4.071038   -0.900285   -0.453952
     10          1           0       -4.128336    0.163389   -0.677225
     11          1           0       -4.652902   -1.052911    0.462045
     12          6           0       -2.089830    2.424857   -1.306969
     13          1           0       -3.144772    2.685267   -1.459758
     14          1           0       -1.742305    1.943170   -2.219579
     15          6           0       -2.799012    1.813525    0.976158
     16          1           0       -2.712182    2.897369    1.069052
     17          1           0       -3.858294    1.611199    0.782844
     18          6           0        2.331793   -2.639538   -0.856054
     19          1           0        1.526010   -2.527814   -1.584574
     20          1           0        1.931771   -3.279228   -0.058189
     21          6           0        3.630367   -1.237017    0.744575
     22          1           0        3.849450   -0.190264    0.941350
     23          1           0        4.559892   -1.666325    0.365219
     24          6           0        3.115179    2.113625   -0.670107
     25          1           0        3.076999    3.143266   -0.312613
     26          1           0        4.102509    1.723312   -0.389835
     27          6           0        2.117735    1.690535    1.513096
     28          1           0        3.167510    1.783400    1.810399
     29          1           0        1.721904    0.857051    2.089033
     30          6           0       -4.732395   -1.670632   -1.598236
     31          1           0       -4.211680   -1.521182   -2.544494
     32          1           0       -4.793070   -2.742863   -1.405132
     33          1           0       -5.756768   -1.311596   -1.720835
     34          6           0       -2.654300   -3.053534    1.548983
     35          1           0       -3.705813   -2.897454    1.796587
     36          1           0       -2.439221   -4.115937    1.683163
     37          1           0       -2.053465   -2.491635    2.266315
     38          6           0       -1.268455    3.690908   -1.077464
     39          1           0       -1.392924    4.367242   -1.926434
     40          1           0       -1.578715    4.234209   -0.184956
     41          1           0       -0.209422    3.448959   -0.980348
     42          6           0       -2.415148    1.194921    2.313999
     43          1           0       -2.485216    0.107982    2.304475
     44          1           0       -1.410682    1.483807    2.624295
     45          1           0       -3.107749    1.561477    3.072602
     46          6           0        1.368529    2.968575    1.881114
     47          1           0        1.467693    3.163118    2.951062
     48          1           0        1.763230    3.836924    1.352938
     49          1           0        0.309427    2.883189    1.640335
     50          6           0        2.998316    2.125595   -2.183071
     51          1           0        3.154052    1.135439   -2.609488
     52          1           0        2.026717    2.502939   -2.504674
     53          1           0        3.770454    2.781475   -2.589811
     54          6           0        3.523148   -3.336407   -1.508493
     55          1           0        4.313282   -3.564058   -0.791506
     56          1           0        3.202881   -4.285155   -1.943456
     57          1           0        3.954301   -2.722663   -2.301610
     58          6           0        3.244627   -1.938244    2.050542
     59          1           0        2.336351   -1.517130    2.487154
     60          1           0        3.086697   -3.008737    1.910041
     61          1           0        4.048780   -1.822571    2.780107
     62          7           0        2.636942   -1.296195   -0.341040
     63          7           0        2.064669    1.376942    0.067002
     64          7           0       -1.994832    1.437794   -0.210533
     65          7           0       -2.661922   -1.221366   -0.169630
 ---------------------------------------------------------------------

 SCF Done:  E(RB3LYP) =  -1575.17961248     A.U. after   14 cycles

      1  P    Isotropic =   129.1105   Anisotropy =   144.1074

      2  P    Isotropic =   155.9549   Anisotropy =   144.3199

      3  C    Isotropic =   145.9461   Anisotropy =    28.1128

      4  H    Isotropic =    30.4820   Anisotropy =     6.0933

      5  H    Isotropic =    29.1655   Anisotropy =     4.7304

      6  C    Isotropic =   144.0018   Anisotropy =    38.5638

      7  H    Isotropic =    29.3935   Anisotropy =     6.3950

      8  H    Isotropic =    28.9987   Anisotropy =     6.9781

      9  C    Isotropic =   141.7263   Anisotropy =    41.5327

     10  H    Isotropic =    29.2327   Anisotropy =     7.3681

     11  H    Isotropic =    28.7202   Anisotropy =     7.0784

     12  C    Isotropic =   125.6097   Anisotropy =    60.9835

     13  H    Isotropic =    29.1214   Anisotropy =     8.3001

     14  H    Isotropic =    28.4808   Anisotropy =     4.3547

     15  C    Isotropic =   133.5455   Anisotropy =    50.1418

     16  H    Isotropic =    28.6856   Anisotropy =     6.3319

     17  H    Isotropic =    29.0517   Anisotropy =     6.4727

     18  C    Isotropic =   143.0458   Anisotropy =    40.4609

     19  H    Isotropic =    28.9592   Anisotropy =     5.0765

     20  H    Isotropic =    29.3354   Anisotropy =     5.5108

     21  C    Isotropic =   139.7740   Anisotropy =    44.0483

     22  H    Isotropic =    29.3512   Anisotropy =     5.5962

     23  H    Isotropic =    28.9316   Anisotropy =     7.3356

     24  C    Isotropic =   132.3513   Anisotropy =    49.3777

     25  H    Isotropic =    28.8154   Anisotropy =     6.8551

     26  H    Isotropic =    29.0265   Anisotropy =     7.3773

     27  C    Isotropic =   128.9064   Anisotropy =    53.6552

     28  H    Isotropic =    29.0208   Anisotropy =     6.1828

     29  H    Isotropic =    28.2788   Anisotropy =     2.8206

     30  C    Isotropic =   171.1779   Anisotropy =    23.8425

     31  H    Isotropic =    31.1890   Anisotropy =     8.3152

     32  H    Isotropic =    30.4521   Anisotropy =     7.6632

     33  H    Isotropic =    31.2551   Anisotropy =    10.8109

     34  C    Isotropic =   169.0389   Anisotropy =    24.2769

     35  H    Isotropic =    30.5028   Anisotropy =     7.5666

     36  H    Isotropic =    31.2601   Anisotropy =    11.1875

     37  H    Isotropic =    31.2150   Anisotropy =     5.2195

     38  C    Isotropic =   166.9687   Anisotropy =    23.8035

     39  H    Isotropic =    31.1700   Anisotropy =    10.8896

     40  H    Isotropic =    30.6553   Anisotropy =     5.7810

     41  H    Isotropic =    30.8917   Anisotropy =     9.0232

     42  C    Isotropic =   166.2497   Anisotropy =    14.2262

     43  H    Isotropic =    30.0661   Anisotropy =     6.4061

     44  H    Isotropic =    30.6457   Anisotropy =     7.1246

     45  H    Isotropic =    30.9706   Anisotropy =    10.6138

     46  C    Isotropic =   167.7435   Anisotropy =    21.7372

     47  H    Isotropic =    31.1948   Anisotropy =    10.6924

     48  H    Isotropic =    30.6134   Anisotropy =     6.9560

     49  H    Isotropic =    30.8585   Anisotropy =     8.8043

     50  C    Isotropic =   168.3020   Anisotropy =    17.4266

     51  H    Isotropic =    30.1156   Anisotropy =     6.5106

     52  H    Isotropic =    30.7073   Anisotropy =     7.4465

     53  H    Isotropic =    30.9540   Anisotropy =    10.7626

     54  C    Isotropic =   169.5305   Anisotropy =    27.0147

     55  H    Isotropic =    30.5416   Anisotropy =     7.7146

     56  H    Isotropic =    31.0589   Anisotropy =    10.7598

     57  H    Isotropic =    31.1995   Anisotropy =     8.5761

     58  C    Isotropic =   172.8140   Anisotropy =    16.7359

     59  H    Isotropic =    31.1765   Anisotropy =     6.2031

     60  H    Isotropic =    30.5567   Anisotropy =     7.4176

     61  H    Isotropic =    31.3286   Anisotropy =    11.0049

     62  N    Isotropic =   177.6882   Anisotropy =    56.3453

     63  N    Isotropic =   183.7668   Anisotropy =    32.7223

     64  N    Isotropic =   186.2222   Anisotropy =    25.4513

     65  N    Isotropic =   209.2493   Anisotropy =    64.2043

 The electronic state is 1-A.
 Alpha  occ. eigenvalues --  -77.05623 -77.05622 -14.30617 -14.30256 -14.29237
 Alpha  occ. eigenvalues --  -14.28913 -10.19585 -10.19583 -10.19509 -10.19475
 Alpha  occ. eigenvalues --  -10.19387 -10.19250 -10.19093 -10.18936 -10.16011
 Alpha  occ. eigenvalues --  -10.15824 -10.15823 -10.15775 -10.15644 -10.15619
 Alpha  occ. eigenvalues --  -10.15588 -10.15307 -10.15274  -6.53606  -6.53585
 Alpha  occ. eigenvalues --   -4.69848  -4.69815  -4.69736  -4.69726  -4.69213
 Alpha  occ. eigenvalues --   -4.69194  -0.91170  -0.90840  -0.88620  -0.88384
 Alpha  occ. eigenvalues --   -0.76246  -0.76089  -0.75898  -0.75644  -0.74372
 Alpha  occ. eigenvalues --   -0.72942  -0.71428  -0.71319  -0.70223  -0.63599
 Alpha  occ. eigenvalues --   -0.63525  -0.63146  -0.62218  -0.61919  -0.60809
 Alpha  occ. eigenvalues --   -0.57576  -0.57467  -0.53249  -0.52852  -0.48877
 Alpha  occ. eigenvalues --   -0.48316  -0.47435  -0.47307  -0.46979  -0.46804
 Alpha  occ. eigenvalues --   -0.46091  -0.45577  -0.45078  -0.44319  -0.42796
 Alpha  occ. eigenvalues --   -0.42398  -0.41967  -0.41879  -0.41784  -0.41106
 Alpha  occ. eigenvalues --   -0.41007  -0.40332  -0.40179  -0.39133  -0.38846
 Alpha  occ. eigenvalues --   -0.38761  -0.38177  -0.37932  -0.37286  -0.37020
 Alpha  occ. eigenvalues --   -0.36677  -0.36570  -0.36502  -0.36320  -0.35741
 Alpha  occ. eigenvalues --   -0.35459  -0.35157  -0.34962  -0.34182  -0.34153
 Alpha  occ. eigenvalues --   -0.34046  -0.33547  -0.33360  -0.32762  -0.31729
 Alpha  occ. eigenvalues --   -0.25803  -0.24145  -0.22955  -0.21876  -0.18691
 Alpha  occ. eigenvalues --   -0.15454
 Alpha virt. eigenvalues --    0.01738   0.02419   0.02872   0.03081   0.03668
 Alpha virt. eigenvalues --    0.04618   0.05014   0.05743   0.06143   0.06521
 Alpha virt. eigenvalues --    0.07003   0.07445   0.07803   0.07941   0.08165

 Mulliken charges:
               1
     1  P    0.221253
     2  P    0.225126
     3  C   -0.363752
     4  H    0.125572
     5  H    0.107889
     6  C   -0.151672
     7  H    0.104480
     8  H    0.092472
     9  C   -0.127873
    10  H    0.109538
    11  H    0.085157
    12  C   -0.077527
    13  H    0.074259
    14  H    0.106430
    15  C   -0.111590
    16  H    0.094122
    17  H    0.086228
    18  C   -0.141371
    19  H    0.113207
    20  H    0.079812
    21  C   -0.131760
    22  H    0.104749
    23  H    0.097501
    24  C   -0.106737
    25  H    0.093443
    26  H    0.085930
    27  C   -0.135138
    28  H    0.086400
    29  H    0.110684
    30  C   -0.335978
    31  H    0.116750
    32  H    0.105193
    33  H    0.102847
    34  C   -0.320568
    35  H    0.105648
    36  H    0.101807
    37  H    0.105331
    38  C   -0.340134
    39  H    0.103985
    40  H    0.096036
    41  H    0.126834
    42  C   -0.368195
    43  H    0.137005
    44  H    0.108125
    45  H    0.109825
    46  C   -0.333249
    47  H    0.105282
    48  H    0.103756
    49  H    0.125885
    50  C   -0.340106
    51  H    0.122594
    52  H    0.114511
    53  H    0.104700
    54  C   -0.330775
    55  H    0.106741
    56  H    0.104714
    57  H    0.110940
    58  C   -0.343778
    59  H    0.103792
    60  H    0.110128
    61  H    0.104433
    62  N   -0.167199
    63  N   -0.210536
    64  N   -0.222038
    65  N   -0.181136
 Sum of Mulliken charges =  -0.00000

 Dipole moment (field-independent basis, Debye):
    X=             -0.1175    Y=              0.1495    Z=              2.0059  Tot=              2.0148
 Quadrupole moment (field-independent basis, Debye-Ang):
   XX=           -158.5252   YY=           -159.6241   ZZ=           -169.4413
   XY=              0.2084   XZ=              1.3894   YZ=              0.0292

 Summary of Natural Population Analysis:

                                       Natural Population
                Natural  -----------------------------------------------
    Atom  No    Charge         Core      Valence    Rydberg      Total
 -----------------------------------------------------------------------
      P    1    1.19364      9.99809     3.74974    0.05853    13.80636
      P    2    1.19814      9.99817     3.74903    0.05466    13.80186
      C    3   -1.11030      1.99944     5.07082    0.04005     7.11030
      H    4    0.23996      0.00000     0.75817    0.00187     0.76004
      H    5    0.23310      0.00000     0.76418    0.00273     0.76690
      C    6   -0.20271      1.99938     4.18615    0.01719     6.20271
      H    7    0.18411      0.00000     0.81237    0.00352     0.81589
      H    8    0.17830      0.00000     0.81855    0.00315     0.82170
      C    9   -0.19941      1.99937     4.18187    0.01818     6.19941
      H   10    0.19881      0.00000     0.79875    0.00244     0.80119
      H   11    0.16743      0.00000     0.82933    0.00324     0.83257
      C   12   -0.19806      1.99937     4.18031    0.01838     6.19806
      H   13    0.16154      0.00000     0.83516    0.00330     0.83846
      H   14    0.21355      0.00000     0.78424    0.00221     0.78645
      C   15   -0.20930      1.99936     4.19036    0.01959     6.20930
      H   16    0.18541      0.00000     0.81219    0.00239     0.81459
      H   17    0.16378      0.00000     0.83257    0.00366     0.83622
      C   18   -0.21004      1.99937     4.19310    0.01756     6.21004
      H   19    0.20618      0.00000     0.79192    0.00190     0.79382
      H   20    0.15667      0.00000     0.83954    0.00380     0.84333
      C   21   -0.21081      1.99937     4.19413    0.01731     6.21081
      H   22    0.19088      0.00000     0.80604    0.00308     0.80912
      H   23    0.17917      0.00000     0.81827    0.00256     0.82083
      C   24   -0.19263      1.99936     4.17468    0.01858     6.19263
      H   25    0.18265      0.00000     0.81509    0.00225     0.81735
      H   26    0.16064      0.00000     0.83607    0.00328     0.83936
      C   27   -0.21142      1.99937     4.19440    0.01765     6.21142
      H   28    0.16973      0.00000     0.82721    0.00307     0.83027
      H   29    0.19242      0.00000     0.80492    0.00266     0.80758
      C   30   -0.60750      1.99945     4.60109    0.00696     6.60750
      H   31    0.20588      0.00000     0.79282    0.00131     0.79412
      H   32    0.19380      0.00000     0.80485    0.00136     0.80620
      H   33    0.20471      0.00000     0.79402    0.00126     0.79529
      C   34   -0.60136      1.99946     4.59134    0.01055     6.60136
      H   35    0.19828      0.00000     0.80058    0.00114     0.80172
      H   36    0.20057      0.00000     0.79808    0.00135     0.79943
      H   37    0.19842      0.00000     0.80006    0.00151     0.80158
      C   38   -0.60260      1.99946     4.59230    0.01084     6.60260
      H   39    0.20339      0.00000     0.79558    0.00103     0.79661
      H   40    0.19085      0.00000     0.80747    0.00168     0.80915
      H   41    0.21097      0.00000     0.78750    0.00152     0.78903
      C   42   -0.60280      1.99945     4.59209    0.01127     6.60280
      H   43    0.21220      0.00000     0.78613    0.00167     0.78780
      H   44    0.19665      0.00000     0.80192    0.00143     0.80335
      H   45    0.20823      0.00000     0.79092    0.00085     0.79177
      C   46   -0.60161      1.99945     4.59071    0.01145     6.60161
      H   47    0.20179      0.00000     0.79713    0.00108     0.79821
      H   48    0.19793      0.00000     0.80051    0.00155     0.80207
      H   49    0.20693      0.00000     0.79159    0.00147     0.79307
      C   50   -0.60135      1.99945     4.59086    0.01104     6.60135
      H   51    0.21438      0.00000     0.78437    0.00125     0.78562
      H   52    0.20847      0.00000     0.79017    0.00137     0.79153
      H   53    0.20397      0.00000     0.79513    0.00091     0.79603
      C   54   -0.60064      1.99946     4.59024    0.01094     6.60064
      H   55    0.19479      0.00000     0.80395    0.00125     0.80521
      H   56    0.20567      0.00000     0.79336    0.00098     0.79433
      H   57    0.20621      0.00000     0.79240    0.00138     0.79379
      C   58   -0.61328      1.99946     4.60675    0.00707     6.61328
      H   59    0.19644      0.00000     0.80198    0.00158     0.80356
      H   60    0.19689      0.00000     0.80172    0.00138     0.80311
      H   61    0.20468      0.00000     0.79403    0.00129     0.79532
      N   62   -0.75706      1.99955     5.72032    0.03719     7.75706
      N   63   -0.75368      1.99954     5.71967    0.03448     7.75368
      N   64   -0.75893      1.99952     5.72503    0.03438     7.75893
      N   65   -0.77270      1.99953     5.73757    0.03560     7.77270
 =======================================================================
   * Total *   -0.00000     61.98444   139.41340    0.60216   202.00000

 Normal termination of Gaussian 16 at Thu Jan 23 22:10:35 2025.
