 Gaussian 16, Revision B.01,
 Gaussian 16:  ES64L-G16RevB.01 20-Dec-2017

 --------------------------------------------
 # nmr=giao b3lyp/def2TZVP pop=nbo scfcyc=200
 --------------------------------------------

 -------------
 MB-4 SPE NoRh
 -------------
 Symbolic Z-matrix:
 Charge =  0 Multiplicity = 1

                         Standard orientation:
 ---------------------------------------------------------------------
 Center     Atomic      Atomic             Coordinates (Angstroms)
 Number     Number       Type             X           Y           Z
 ---------------------------------------------------------------------
      1         15           0       -2.178789   -0.084456   -0.348613
      2         15           0        0.621206   -0.010206   -0.409556
      3          6           0       -0.764580    0.130822    0.853758
      4          1           0       -0.786505    1.110013    1.332110
      5          1           0       -0.730489   -0.628225    1.635361
      6          6           0       -3.352712    1.304307   -0.031113
      7          1           0       -4.220475    1.205317   -0.684101
      8          1           0       -2.866440    2.254510   -0.245429
      9          1           0       -3.689388    1.294583    1.006762
     10          6           0       -3.115201   -1.575113    0.206783
     11          1           0       -3.468985   -1.450361    1.230638
     12          1           0       -2.478168   -2.456672    0.145882
     13          1           0       -3.972851   -1.727178   -0.449309
     14          6           0        1.666035    1.543637   -0.221579
     15          1           0        2.456000    1.411181   -0.967707
     16          6           0        0.861436    2.792624   -0.603556
     17          1           0        0.081061    3.009610    0.129819
     18          1           0        0.390468    2.692669   -1.582092
     19          1           0        1.522828    3.660445   -0.630810
     20          6           0        2.310402    1.688968    1.161120
     21          1           0        2.908767    2.601960    1.190620
     22          1           0        2.972990    0.859032    1.407485
     23          1           0        1.560172    1.770066    1.950669
     24          6           0        1.697634   -1.432587    0.188984
     25          1           0        1.929789   -1.196232    1.231145
     26          6           0        3.009219   -1.522831   -0.599246
     27          1           0        3.618319   -2.336393   -0.198179
     28          1           0        3.604142   -0.612025   -0.536801
     29          1           0        2.833675   -1.741908   -1.654469
     30          6           0        0.931273   -2.759260    0.149779
     31          1           0        0.632814   -3.018502   -0.867804
     32          1           0        0.035842   -2.743679    0.773048
     33          1           0        1.569142   -3.561695    0.526119
 ---------------------------------------------------------------------

 SCF Done:  E(RB3LYP) =  -1039.09652465     A.U. after   13 cycles

      1  P    Isotropic =   280.8068   Anisotropy =   145.1671

      2  P    Isotropic =   221.9772   Anisotropy =    90.5435

      3  C    Isotropic =   166.4175   Anisotropy =    27.2005

      4  H    Isotropic =    30.8203   Anisotropy =     5.1881

      5  H    Isotropic =    31.0494   Anisotropy =     5.2065

      6  C    Isotropic =   169.0822   Anisotropy =    22.1274

      7  H    Isotropic =    31.2268   Anisotropy =    10.4872

      8  H    Isotropic =    30.6797   Anisotropy =     6.8533

      9  H    Isotropic =    30.6875   Anisotropy =     8.8997

     10  C    Isotropic =   170.2834   Anisotropy =    20.0904

     11  H    Isotropic =    30.7886   Anisotropy =     8.8915

     12  H    Isotropic =    30.5223   Anisotropy =     6.9475

     13  H    Isotropic =    31.1978   Anisotropy =    10.6176

     14  C    Isotropic =   150.8241   Anisotropy =    16.4310

     15  H    Isotropic =    30.2365   Anisotropy =     6.6712

     16  C    Isotropic =   162.3280   Anisotropy =    34.0392

     17  H    Isotropic =    31.2230   Anisotropy =     5.9066

     18  H    Isotropic =    30.4872   Anisotropy =     8.7893

     19  H    Isotropic =    30.7625   Anisotropy =    10.3880

     20  C    Isotropic =   166.8734   Anisotropy =    27.8375

     21  H    Isotropic =    30.9943   Anisotropy =    10.9343

     22  H    Isotropic =    30.6282   Anisotropy =     7.4888

     23  H    Isotropic =    31.2850   Anisotropy =     5.9058

     24  C    Isotropic =   152.9060   Anisotropy =    18.3352

     25  H    Isotropic =    30.0243   Anisotropy =     4.2890

     26  C    Isotropic =   165.0480   Anisotropy =    32.3642

     27  H    Isotropic =    30.9473   Anisotropy =    10.5631

     28  H    Isotropic =    31.0213   Anisotropy =     8.1300

     29  H    Isotropic =    31.2337   Anisotropy =     8.2295

     30  C    Isotropic =   163.0000   Anisotropy =    31.7388

     31  H    Isotropic =    30.9951   Anisotropy =     7.3871

     32  H    Isotropic =    30.9022   Anisotropy =     7.8849

     33  H    Isotropic =    30.8306   Anisotropy =    10.2117

 The electronic state is 1-A.
 Alpha  occ. eigenvalues --  -77.03354 -77.03020 -10.17908 -10.17771 -10.17498
 Alpha  occ. eigenvalues --  -10.16400 -10.16364 -10.16355 -10.16301 -10.16240
 Alpha  occ. eigenvalues --  -10.16199  -6.51933  -6.51620  -4.68096  -4.68050
 Alpha  occ. eigenvalues --   -4.67791  -4.67704  -4.67533  -4.67240  -0.80418
 Alpha  occ. eigenvalues --   -0.78283  -0.75662  -0.70313  -0.69079  -0.69001
 Alpha  occ. eigenvalues --   -0.68649  -0.61984  -0.58317  -0.52704  -0.51571
 Alpha  occ. eigenvalues --   -0.46780  -0.45936  -0.44457  -0.43378  -0.42736
 Alpha  occ. eigenvalues --   -0.42419  -0.41893  -0.40933  -0.40129  -0.39995
 Alpha  occ. eigenvalues --   -0.39201  -0.38922  -0.38813  -0.36637  -0.35202
 Alpha  occ. eigenvalues --   -0.35050  -0.34945  -0.33873  -0.33144  -0.29599
 Alpha  occ. eigenvalues --   -0.29294  -0.21733  -0.17814
 Alpha virt. eigenvalues --    0.01352   0.02206   0.03192   0.04110   0.04959
 Alpha virt. eigenvalues --    0.06088   0.06231   0.07570   0.07888   0.08369
 Alpha virt. eigenvalues --    0.08823   0.09359   0.09771   0.09925   0.10170

 Mulliken charges:
               1
     1  P    0.183056
     2  P    0.162372
     3  C   -0.379185
     4  H    0.117975
     5  H    0.120096
     6  C   -0.419713
     7  H    0.123085
     8  H    0.125164
     9  H    0.105649
    10  C   -0.422341
    11  H    0.107083
    12  H    0.127670
    13  H    0.123729
    14  C   -0.089417
    15  H    0.084293
    16  C   -0.348591
    17  H    0.094503
    18  H    0.129801
    19  H    0.110630
    20  C   -0.339974
    21  H    0.102618
    22  H    0.116685
    23  H    0.103005
    24  C   -0.072200
    25  H    0.076178
    26  C   -0.357220
    27  H    0.108302
    28  H    0.115349
    29  H    0.113265
    30  C   -0.352208
    31  H    0.118634
    32  H    0.103867
    33  H    0.107836
 Sum of Mulliken charges =  -0.00000

 Dipole moment (field-independent basis, Debye):
    X=              0.3167    Y=              0.2085    Z=              1.9109  Tot=              1.9482
 Quadrupole moment (field-independent basis, Debye-Ang):
   XX=            -85.2174   YY=            -86.2398   ZZ=            -92.6693
   XY=              0.0976   XZ=             -1.6838   YZ=             -0.9403

 Summary of Natural Population Analysis:

                                       Natural Population
                Natural  -----------------------------------------------
    Atom  No    Charge         Core      Valence    Rydberg      Total
 -----------------------------------------------------------------------
      P    1    0.79381      9.99886     4.16509    0.04224    14.20619
      P    2    0.78661      9.99863     4.18052    0.03423    14.21339
      C    3   -1.03139      1.99947     4.99957    0.03235     7.03139
      H    4    0.24100      0.00000     0.75641    0.00259     0.75900
      H    5    0.23902      0.00000     0.75859    0.00240     0.76098
      C    6   -0.91807      1.99946     4.89992    0.01869     6.91807
      H    7    0.22830      0.00000     0.77075    0.00095     0.77170
      H    8    0.22492      0.00000     0.77400    0.00108     0.77508
      H    9    0.20239      0.00000     0.79435    0.00326     0.79761
      C   10   -0.91687      1.99946     4.89850    0.01891     6.91687
      H   11    0.20304      0.00000     0.79364    0.00332     0.79696
      H   12    0.22576      0.00000     0.77305    0.00119     0.77424
      H   13    0.22892      0.00000     0.77014    0.00094     0.77108
      C   14   -0.47770      1.99945     4.45410    0.02415     6.47770
      H   15    0.21659      0.00000     0.78173    0.00168     0.78341
      C   16   -0.59507      1.99943     4.58392    0.01172     6.59507
      H   17    0.19148      0.00000     0.80675    0.00177     0.80852
      H   18    0.21603      0.00000     0.78258    0.00139     0.78397
      H   19    0.20408      0.00000     0.79433    0.00158     0.79592
      C   20   -0.60195      1.99943     4.59029    0.01224     6.60195
      H   21    0.19889      0.00000     0.79918    0.00192     0.80111
      H   22    0.20215      0.00000     0.79652    0.00133     0.79785
      H   23    0.19583      0.00000     0.80246    0.00171     0.80417
      C   24   -0.47891      1.99945     4.45652    0.02294     6.47891
      H   25    0.19193      0.00000     0.80456    0.00352     0.80807
      C   26   -0.59727      1.99943     4.58582    0.01202     6.59727
      H   27    0.20403      0.00000     0.79438    0.00159     0.79597
      H   28    0.20248      0.00000     0.79610    0.00142     0.79752
      H   29    0.20529      0.00000     0.79283    0.00188     0.79471
      C   30   -0.59404      1.99943     4.58306    0.01155     6.59404
      H   31    0.20624      0.00000     0.79196    0.00179     0.79376
      H   32    0.19872      0.00000     0.79983    0.00145     0.80128
      H   33    0.20375      0.00000     0.79465    0.00160     0.79625
 =======================================================================
   * Total *    0.00000     37.99251    67.72610    0.28140   106.00000

 Normal termination of Gaussian 16 at Thu Jan 23 19:16:01 2025.
