 Gaussian 16, Revision B.01,
 Gaussian 16:  ES64L-G16RevB.01 20-Dec-2017

 --------------------------------------------
 # nmr=giao b3lyp/def2TZVP pop=nbo scfcyc=200
 --------------------------------------------

 --------------
 MB-49 SPE NoRh
 --------------
 Symbolic Z-matrix:
 Charge =  0 Multiplicity = 1

                         Standard orientation:
 ---------------------------------------------------------------------
 Center     Atomic      Atomic             Coordinates (Angstroms)
 Number     Number       Type             X           Y           Z
 ---------------------------------------------------------------------
      1         15           0        1.108035   -0.181578   -0.574165
      2          6           0       -0.270399   -0.529884    0.648481
      3          6           0        2.512362   -1.309689   -0.183193
      4          6           0        3.829193   -0.843922   -0.145621
      5          6           0        4.878396   -1.730316    0.078384
      6          6           0        4.624956   -3.084061    0.263734
      7          6           0        3.316322   -3.556962    0.214721
      8          6           0        2.265909   -2.677702   -0.016540
      9          6           0        1.686165    1.517388   -0.178965
     10          6           0        1.691902    2.497769   -1.172994
     11          6           0        2.114274    3.792577   -0.879728
     12          6           0        2.528821    4.114136    0.406692
     13          6           0        2.522543    3.141132    1.404998
     14          6           0        2.103706    1.848794    1.116570
     15          1           0       -0.204777   -1.554197    1.015622
     16          1           0       -0.327387    0.148337    1.499333
     17          1           0        4.041684    0.208462   -0.280510
     18          1           0        5.894472   -1.357998    0.111188
     19          1           0        5.442810   -3.770429    0.441996
     20          1           0        3.113554   -4.611595    0.353782
     21          1           0        1.256153   -3.066835   -0.071215
     22          1           0        1.356763    2.252358   -2.172252
     23          1           0        2.115880    4.546337   -1.656225
     24          1           0        2.856898    5.119589    0.635060
     25          1           0        2.846235    3.390088    2.407917
     26          1           0        2.114554    1.099109    1.898836
     27          6           0       -2.980926   -1.611572   -0.167792
     28          6           0       -2.745257    1.026680   -0.178676
     29          6           0       -4.108951   -0.932140    0.132378
     30          6           0       -3.977310    0.559753    0.120519
     31         15           0       -1.682784   -0.399333   -0.583894
     32          6           0       -2.262499    2.440666   -0.269645
     33          1           0       -1.391909    2.609870    0.370461
     34          1           0       -1.957258    2.694161   -1.288944
     35          1           0       -3.030877    3.150249    0.032435
     36          6           0       -5.171927    1.410267    0.438220
     37          1           0       -5.982852    1.227837   -0.271595
     38          1           0       -5.563821    1.181529    1.431919
     39          1           0       -4.939881    2.471855    0.409401
     40          6           0       -5.427383   -1.556882    0.482866
     41          1           0       -5.728823   -1.287319    1.498360
     42          1           0       -6.218636   -1.208243   -0.185049
     43          1           0       -5.396171   -2.642867    0.424804
     44          6           0       -2.740557   -3.087875   -0.210813
     45          1           0       -3.661757   -3.653215   -0.075481
     46          1           0       -2.297443   -3.397310   -1.160430
     47          1           0       -2.052214   -3.405048    0.579897
 ---------------------------------------------------------------------

 SCF Done:  E(RB3LYP) =  -1497.71356506     A.U. after   17 cycles

      1  P    Isotropic =   231.1947   Anisotropy =   119.2309

      2  C    Isotropic =   152.5653   Anisotropy =    27.8909

      3  C    Isotropic =    28.0779   Anisotropy =   199.5827

      4  C    Isotropic =    50.6881   Anisotropy =   181.5736

      5  C    Isotropic =    49.9088   Anisotropy =   183.2443

      6  C    Isotropic =    53.3213   Anisotropy =   179.7065

      7  C    Isotropic =    50.1340   Anisotropy =   182.6089

      8  C    Isotropic =    49.9085   Anisotropy =   181.6398

      9  C    Isotropic =    36.0422   Anisotropy =   205.1965

     10  C    Isotropic =    38.9347   Anisotropy =   183.6898

     11  C    Isotropic =    50.0536   Anisotropy =   184.2541

     12  C    Isotropic =    48.0753   Anisotropy =   190.3789

     13  C    Isotropic =    48.2227   Anisotropy =   186.6451

     14  C    Isotropic =    39.1648   Anisotropy =   188.6932

     15  H    Isotropic =    29.5073   Anisotropy =     6.1951

     16  H    Isotropic =    29.4244   Anisotropy =     5.1220

     17  H    Isotropic =    25.0902   Anisotropy =    13.0987

     18  H    Isotropic =    24.5887   Anisotropy =     6.3977

     19  H    Isotropic =    24.6061   Anisotropy =     4.2946

     20  H    Isotropic =    24.2971   Anisotropy =     5.9839

     21  H    Isotropic =    24.0617   Anisotropy =    10.1351

     22  H    Isotropic =    23.6012   Anisotropy =     7.7963

     23  H    Isotropic =    24.1620   Anisotropy =     5.0628

     24  H    Isotropic =    24.1704   Anisotropy =     4.1819

     25  H    Isotropic =    24.1516   Anisotropy =     5.7103

     26  H    Isotropic =    23.8863   Anisotropy =    10.5169

     27  C    Isotropic =    39.9056   Anisotropy =   161.4206

     28  C    Isotropic =    38.2603   Anisotropy =   164.7397

     29  C    Isotropic =    37.1394   Anisotropy =   130.6796

     30  C    Isotropic =    36.7115   Anisotropy =   131.6672

     31  P    Isotropic =   210.8317   Anisotropy =    51.1517

     32  C    Isotropic =   169.4977   Anisotropy =    19.1782

     33  H    Isotropic =    30.8904   Anisotropy =    10.3013

     34  H    Isotropic =    30.1518   Anisotropy =     7.8408

     35  H    Isotropic =    29.9617   Anisotropy =     7.6163

     36  C    Isotropic =   169.1784   Anisotropy =    18.2383

     37  H    Isotropic =    30.2473   Anisotropy =     8.6104

     38  H    Isotropic =    30.3413   Anisotropy =     8.0388

     39  H    Isotropic =    29.8296   Anisotropy =     5.4315

     40  C    Isotropic =   168.9770   Anisotropy =    19.0268

     41  H    Isotropic =    30.2923   Anisotropy =     8.0844

     42  H    Isotropic =    30.1569   Anisotropy =     8.2639

     43  H    Isotropic =    29.6775   Anisotropy =     5.9039

     44  C    Isotropic =   169.9280   Anisotropy =    22.0219

     45  H    Isotropic =    29.4408   Anisotropy =     7.3611

     46  H    Isotropic =    29.5438   Anisotropy =     8.2961

     47  H    Isotropic =    29.7280   Anisotropy =     7.4732

 The electronic state is 1-A.
 Alpha  occ. eigenvalues --  -77.04905 -77.03873 -10.18781 -10.18779 -10.18615
 Alpha  occ. eigenvalues --  -10.18557 -10.18539 -10.18396 -10.18392 -10.18370
 Alpha  occ. eigenvalues --  -10.17762 -10.17630 -10.17505 -10.17411 -10.17323
 Alpha  occ. eigenvalues --  -10.17318 -10.17296 -10.16852 -10.16585 -10.16496
 Alpha  occ. eigenvalues --  -10.16490 -10.16382 -10.16359  -6.53475  -6.52492
 Alpha  occ. eigenvalues --   -4.69625  -4.69595  -4.69109  -4.68647  -4.68584
 Alpha  occ. eigenvalues --   -4.68171  -0.86737  -0.85751  -0.84361  -0.77552
 Alpha  occ. eigenvalues --   -0.77431  -0.75754  -0.75121  -0.74702  -0.74631
 Alpha  occ. eigenvalues --   -0.72229  -0.71198  -0.69344  -0.63409  -0.62330
 Alpha  occ. eigenvalues --   -0.61546  -0.60838  -0.60240  -0.58524  -0.55872
 Alpha  occ. eigenvalues --   -0.52547  -0.51753  -0.50547  -0.48587  -0.46385
 Alpha  occ. eigenvalues --   -0.46244  -0.45530  -0.45278  -0.44707  -0.44117
 Alpha  occ. eigenvalues --   -0.43827  -0.43665  -0.43235  -0.42525  -0.41889
 Alpha  occ. eigenvalues --   -0.41447  -0.40965  -0.40209  -0.40068  -0.39666
 Alpha  occ. eigenvalues --   -0.39151  -0.38189  -0.37763  -0.37623  -0.37467
 Alpha  occ. eigenvalues --   -0.35984  -0.35637  -0.34930  -0.33853  -0.32961
 Alpha  occ. eigenvalues --   -0.32603  -0.30586  -0.29320  -0.27346  -0.26797
 Alpha  occ. eigenvalues --   -0.26149  -0.25800  -0.22244  -0.20839  -0.19035
 Alpha virt. eigenvalues --   -0.03930  -0.03206  -0.02523  -0.01477  -0.01344
 Alpha virt. eigenvalues --    0.01188   0.02646   0.03953   0.04366   0.04930
 Alpha virt. eigenvalues --    0.05499   0.05950   0.06417   0.06679   0.07463

 Mulliken charges:
               1
     1  P    0.172898
     2  C   -0.365452
     3  C    0.054821
     4  C   -0.158845
     5  C   -0.125801
     6  C   -0.106020
     7  C   -0.123713
     8  C   -0.200838
     9  C    0.010755
    10  C   -0.140538
    11  C   -0.104386
    12  C   -0.097642
    13  C   -0.097609
    14  C   -0.196020
    15  H    0.130139
    16  H    0.133829
    17  H    0.137683
    18  H    0.106550
    19  H    0.106714
    20  H    0.105259
    21  H    0.125691
    22  H    0.118033
    23  H    0.112844
    24  H    0.113817
    25  H    0.111280
    26  H    0.127722
    27  C   -0.001588
    28  C   -0.001222
    29  C   -0.002304
    30  C   -0.028954
    31  P    0.188820
    32  C   -0.372093
    33  H    0.127622
    34  H    0.122740
    35  H    0.105210
    36  C   -0.361481
    37  H    0.116419
    38  H    0.115635
    39  H    0.103583
    40  C   -0.360706
    41  H    0.117299
    42  H    0.114788
    43  H    0.102923
    44  C   -0.385692
    45  H    0.107185
    46  H    0.130968
    47  H    0.109678
 Sum of Mulliken charges =  -0.00000

 Dipole moment (field-independent basis, Debye):
    X=              0.0071    Y=              0.9235    Z=              2.0874  Tot=              2.2826
 Quadrupole moment (field-independent basis, Debye-Ang):
   XX=           -145.2129   YY=           -138.8857   ZZ=           -156.6892
   XY=              3.6503   XZ=              0.5683   YZ=             -2.4450

 Summary of Natural Population Analysis:

                                       Natural Population
                Natural  -----------------------------------------------
    Atom  No    Charge         Core      Valence    Rydberg      Total
 -----------------------------------------------------------------------
      P    1    0.82537      9.99817     4.14228    0.03419    14.17463
      C    2   -0.98345      1.99943     4.95064    0.03339     6.98345
      C    3   -0.31614      1.99899     4.28741    0.02973     6.31614
      C    4   -0.21202      1.99908     4.19287    0.02006     6.21202
      C    5   -0.19513      1.99919     4.17698    0.01896     6.19513
      C    6   -0.21632      1.99919     4.19746    0.01967     6.21632
      C    7   -0.19622      1.99919     4.17803    0.01900     6.19622
      C    8   -0.21319      1.99909     4.19403    0.02008     6.21319
      C    9   -0.33895      1.99901     4.30641    0.03353     6.33895
      C   10   -0.18736      1.99910     4.16730    0.02096     6.18736
      C   11   -0.20645      1.99918     4.18779    0.01948     6.20645
      C   12   -0.19520      1.99919     4.17702    0.01899     6.19520
      C   13   -0.20596      1.99919     4.18766    0.01912     6.20596
      C   14   -0.19473      1.99908     4.17544    0.02020     6.19473
      H   15    0.24925      0.00000     0.74873    0.00202     0.75075
      H   16    0.24551      0.00000     0.75225    0.00224     0.75449
      H   17    0.21358      0.00000     0.78458    0.00184     0.78642
      H   18    0.20722      0.00000     0.79146    0.00132     0.79278
      H   19    0.20742      0.00000     0.79138    0.00120     0.79258
      H   20    0.20749      0.00000     0.79120    0.00131     0.79251
      H   21    0.20005      0.00000     0.79725    0.00270     0.79995
      H   22    0.22034      0.00000     0.77803    0.00163     0.77966
      H   23    0.21092      0.00000     0.78782    0.00127     0.78908
      H   24    0.20964      0.00000     0.78919    0.00116     0.79036
      H   25    0.20929      0.00000     0.78933    0.00138     0.79071
      H   26    0.21021      0.00000     0.78738    0.00241     0.78979
      C   27   -0.29104      1.99891     4.26389    0.02824     6.29104
      C   28   -0.28880      1.99892     4.26131    0.02857     6.28880
      C   29   -0.02591      1.99888     4.00766    0.01937     6.02591
      C   30   -0.02832      1.99889     4.00996    0.01947     6.02832
      P   31    0.83238      9.99810     4.13558    0.03395    14.16762
      C   32   -0.62096      1.99938     4.60747    0.01411     6.62096
      H   33    0.21187      0.00000     0.78627    0.00185     0.78813
      H   34    0.21772      0.00000     0.78060    0.00168     0.78228
      H   35    0.20696      0.00000     0.79126    0.00178     0.79304
      C   36   -0.62110      1.99939     4.60781    0.01390     6.62110
      H   37    0.20974      0.00000     0.78837    0.00189     0.79026
      H   38    0.21162      0.00000     0.78689    0.00150     0.78838
      H   39    0.21013      0.00000     0.78845    0.00142     0.78987
      C   40   -0.62141      1.99939     4.60817    0.01385     6.62141
      H   41    0.21195      0.00000     0.78649    0.00155     0.78805
      H   42    0.20952      0.00000     0.78863    0.00186     0.79048
      H   43    0.20958      0.00000     0.78902    0.00140     0.79042
      C   44   -0.62106      1.99938     4.60812    0.01355     6.62106
      H   45    0.20922      0.00000     0.78900    0.00178     0.79078
      H   46    0.21760      0.00000     0.78078    0.00162     0.78240
      H   47    0.20514      0.00000     0.79302    0.00183     0.79486
 =======================================================================
   * Total *   -0.00000     61.97832   117.46867    0.55301   180.00000

 Normal termination of Gaussian 16 at Thu Jan 23 22:18:07 2025.
