 Gaussian 16, Revision B.01,
 Gaussian 16:  ES64L-G16RevB.01 20-Dec-2017

 --------------------------------------------
 # nmr=giao b3lyp/def2TZVP pop=nbo scfcyc=200
 --------------------------------------------

 --------------
 MB-44 SPE NoRh
 --------------
 Symbolic Z-matrix:
 Charge =  0 Multiplicity = 1

                         Standard orientation:
 ---------------------------------------------------------------------
 Center     Atomic      Atomic             Coordinates (Angstroms)
 Number     Number       Type             X           Y           Z
 ---------------------------------------------------------------------
      1          6           0        0.012486   -0.988654    0.779529
      2          1           0       -0.039986   -2.071329    0.906702
      3          1           0        0.036961   -0.507780    1.757134
      4          6           0       -1.768905    1.264601    0.217034
      5          1           0       -2.136640    1.152993    1.240479
      6          1           0       -0.823925    1.812784    0.264144
      7          6           0        2.766864   -1.838964    0.039287
      8          1           0        2.896592   -1.833459    1.125220
      9          1           0        2.367290   -2.820506   -0.231649
     10         15           0       -1.340417   -0.446684   -0.390097
     11         15           0        1.433060   -0.610165   -0.380610
     12          6           0        2.092827    1.020861    0.160713
     13          6           0        2.546132    1.217282    1.470733
     14          6           0        2.152463    2.079932   -0.747685
     15          6           0        3.051627    2.452121    1.859394
     16          1           0        2.510316    0.411254    2.193852
     17          6           0        2.659016    3.315529   -0.355516
     18          1           0        1.796888    1.937914   -1.760849
     19          6           0        3.109078    3.501938    0.946243
     20          1           0        3.400241    2.594977    2.874760
     21          1           0        2.703095    4.130141   -1.067587
     22          1           0        3.504845    4.462940    1.251553
     23          6           0       -2.835166   -1.458582   -0.036485
     24          6           0       -3.867696   -1.507164   -0.979819
     25          6           0       -2.981096   -2.155370    1.167119
     26          6           0       -5.023943   -2.234466   -0.721597
     27          1           0       -3.779311   -0.972385   -1.917288
     28          6           0       -4.135495   -2.887763    1.419042
     29          1           0       -2.201507   -2.130399    1.918431
     30          6           0       -5.157935   -2.930100    0.476163
     31          1           0       -5.816372   -2.262533   -1.457824
     32          1           0       -4.236953   -3.425250    2.353910
     33          1           0       -6.054913   -3.501296    0.673535
     34          6           0        4.099967   -1.579771   -0.667651
     35          1           0        4.488837   -0.601865   -0.371040
     36          1           0        3.969786   -1.545623   -1.751468
     37          6           0        5.144330   -2.654001   -0.352683
     38          1           0        5.291368   -2.705929    0.737591
     39          1           0        4.759320   -3.628669   -0.662844
     40          6           0       -2.776933    2.017711   -0.652070
     41          1           0       -3.714213    1.456519   -0.708952
     42          1           0       -2.400287    2.118662   -1.671907
     43          6           0       -3.071397    3.421117   -0.116868
     44          1           0       -3.433485    3.345046    0.920000
     45          1           0       -2.139300    3.991861   -0.082722
     46          7           0        6.368738   -2.398508   -1.106159
     47          1           0        6.873270   -1.601079   -0.735007
     48          1           0        6.994875   -3.193867   -1.073432
     49          7           0       -3.988540    4.118756   -1.015918
     50          1           0       -4.931447    3.752495   -0.937632
     51          1           0       -4.033705    5.107810   -0.801260
 ---------------------------------------------------------------------

 SCF Done:  E(RB3LYP) =  -1533.44449869     A.U. after   14 cycles

      1  C    Isotropic =   154.8700   Anisotropy =    17.9356

      2  H    Isotropic =    30.2268   Anisotropy =     6.7396

      3  H    Isotropic =    29.8680   Anisotropy =     4.5909

      4  C    Isotropic =   150.5490   Anisotropy =    21.0678

      5  H    Isotropic =    30.7835   Anisotropy =     3.4310

      6  H    Isotropic =    31.2767   Anisotropy =    11.3759

      7  C    Isotropic =   150.6863   Anisotropy =    29.5077

      8  H    Isotropic =    29.6836   Anisotropy =     4.6881

      9  H    Isotropic =    30.4950   Anisotropy =     5.3037

     10  P    Isotropic =   252.7142   Anisotropy =   102.0367

     11  P    Isotropic =   261.1949   Anisotropy =    92.2361

     12  C    Isotropic =    35.1271   Anisotropy =   212.3464

     13  C    Isotropic =    44.0856   Anisotropy =   189.8105

     14  C    Isotropic =    39.7685   Anisotropy =   180.7796

     15  C    Isotropic =    49.5561   Anisotropy =   184.1833

     16  H    Isotropic =    23.8405   Anisotropy =     9.9997

     17  C    Isotropic =    50.0440   Anisotropy =   184.1046

     18  H    Isotropic =    23.6777   Anisotropy =     7.4498

     19  C    Isotropic =    48.6629   Anisotropy =   188.2308

     20  H    Isotropic =    24.2673   Anisotropy =     5.5834

     21  H    Isotropic =    24.2385   Anisotropy =     5.1913

     22  H    Isotropic =    24.2676   Anisotropy =     4.3658

     23  C    Isotropic =    30.8272   Anisotropy =   209.7507

     24  C    Isotropic =    45.1148   Anisotropy =   183.0073

     25  C    Isotropic =    47.4381   Anisotropy =   180.5408

     26  C    Isotropic =    50.6404   Anisotropy =   182.3114

     27  H    Isotropic =    24.1873   Anisotropy =     9.6370

     28  C    Isotropic =    49.7182   Anisotropy =   183.2798

     29  H    Isotropic =    24.2026   Anisotropy =    11.9819

     30  C    Isotropic =    51.3204   Anisotropy =   184.2919

     31  H    Isotropic =    24.3677   Anisotropy =     5.6281

     32  H    Isotropic =    24.3836   Anisotropy =     6.1927

     33  H    Isotropic =    24.4752   Anisotropy =     4.4972

     34  C    Isotropic =   149.9044   Anisotropy =    33.3378

     35  H    Isotropic =    31.3493   Anisotropy =     7.8992

     36  H    Isotropic =    30.3390   Anisotropy =     5.1661

     37  C    Isotropic =   132.0990   Anisotropy =    41.8946

     38  H    Isotropic =    28.9328   Anisotropy =     5.0141

     39  H    Isotropic =    29.4425   Anisotropy =     4.2488

     40  C    Isotropic =   148.4505   Anisotropy =    34.1979

     41  H    Isotropic =    30.9237   Anisotropy =     6.2043

     42  H    Isotropic =    30.1687   Anisotropy =     4.3002

     43  C    Isotropic =   132.5210   Anisotropy =    42.4269

     44  H    Isotropic =    29.3311   Anisotropy =     4.4181

     45  H    Isotropic =    29.7795   Anisotropy =     5.5449

     46  N    Isotropic =   225.6027   Anisotropy =    41.2504

     47  H    Isotropic =    32.0448   Anisotropy =    11.2280

     48  H    Isotropic =    31.3814   Anisotropy =    15.5391

     49  N    Isotropic =   225.4323   Anisotropy =    41.0781

     50  H    Isotropic =    31.9915   Anisotropy =    12.2762

     51  H    Isotropic =    31.4435   Anisotropy =    15.1702

 The electronic state is 1-A.
 Alpha  occ. eigenvalues --  -77.03980 -77.03867 -14.29186 -14.29083 -10.19088
 Alpha  occ. eigenvalues --  -10.18896 -10.18353 -10.18340 -10.18297 -10.18193
 Alpha  occ. eigenvalues --  -10.18147 -10.18089 -10.17967 -10.17806 -10.17591
 Alpha  occ. eigenvalues --  -10.17563 -10.17535 -10.17506 -10.17468 -10.17075
 Alpha  occ. eigenvalues --  -10.16883 -10.16407 -10.16197  -6.52555  -6.52431
 Alpha  occ. eigenvalues --   -4.68714  -4.68666  -4.68610  -4.68521  -4.68175
 Alpha  occ. eigenvalues --   -4.68060  -0.88161  -0.88001  -0.86393  -0.85737
 Alpha  occ. eigenvalues --   -0.78655  -0.77708  -0.75679  -0.75486  -0.75172
 Alpha  occ. eigenvalues --   -0.74852  -0.72729  -0.67624  -0.65986  -0.61792
 Alpha  occ. eigenvalues --   -0.61275  -0.60966  -0.60535  -0.59081  -0.58689
 Alpha  occ. eigenvalues --   -0.55304  -0.54348  -0.51152  -0.50445  -0.49383
 Alpha  occ. eigenvalues --   -0.49265  -0.46791  -0.46518  -0.46066  -0.45615
 Alpha  occ. eigenvalues --   -0.45376  -0.45100  -0.44653  -0.44152  -0.43391
 Alpha  occ. eigenvalues --   -0.42884  -0.42470  -0.41645  -0.40653  -0.40109
 Alpha  occ. eigenvalues --   -0.38722  -0.38655  -0.38209  -0.37345  -0.37032
 Alpha  occ. eigenvalues --   -0.36098  -0.35511  -0.35374  -0.34905  -0.34548
 Alpha  occ. eigenvalues --   -0.33645  -0.33510  -0.31994  -0.31265  -0.30616
 Alpha  occ. eigenvalues --   -0.26520  -0.26271  -0.26106  -0.25856  -0.24024
 Alpha  occ. eigenvalues --   -0.23905  -0.22369  -0.18673
 Alpha virt. eigenvalues --   -0.03413  -0.02434  -0.01992  -0.01475   0.02509
 Alpha virt. eigenvalues --    0.02849   0.03076   0.03427   0.04270   0.04621
 Alpha virt. eigenvalues --    0.05410   0.05579   0.06402   0.06755   0.07128

 Mulliken charges:
               1
     1  C   -0.375092
     2  H    0.132023
     3  H    0.119136
     4  C   -0.289424
     5  H    0.095068
     6  H    0.133672
     7  C   -0.267461
     8  H    0.092164
     9  H    0.106195
    10  P    0.172990
    11  P    0.157093
    12  C    0.012151
    13  C   -0.167812
    14  C   -0.137626
    15  C   -0.123454
    16  H    0.114058
    17  C   -0.109687
    18  H    0.117559
    19  C   -0.090614
    20  H    0.107446
    21  H    0.112624
    22  H    0.112074
    23  C    0.109427
    24  C   -0.203032
    25  C   -0.205041
    26  C   -0.100732
    27  H    0.116737
    28  C   -0.113228
    29  H    0.115410
    30  C   -0.109058
    31  H    0.108711
    32  H    0.104438
    33  H    0.108074
    34  C   -0.162312
    35  H    0.096464
    36  H    0.101982
    37  C   -0.085937
    38  H    0.074229
    39  H    0.086030
    40  C   -0.146789
    41  H    0.086538
    42  H    0.097607
    43  C   -0.100866
    44  H    0.076137
    45  H    0.090385
    46  N   -0.489415
    47  H    0.201334
    48  H    0.204305
    49  N   -0.489905
    50  H    0.201263
    51  H    0.204157
 Sum of Mulliken charges =  -0.00000

 Dipole moment (field-independent basis, Debye):
    X=              0.4655    Y=              0.6310    Z=              4.1010  Tot=              4.1752
 Quadrupole moment (field-independent basis, Debye-Ang):
   XX=           -138.1740   YY=           -143.6052   ZZ=           -160.9308
   XY=             -1.4997   XZ=              6.1173   YZ=             -1.4573

 Summary of Natural Population Analysis:

                                       Natural Population
                Natural  -----------------------------------------------
    Atom  No    Charge         Core      Valence    Rydberg      Total
 -----------------------------------------------------------------------
      C    1   -1.01060      1.99946     4.98022    0.03091     7.01060
      H    2    0.24873      0.00000     0.74966    0.00161     0.75127
      H    3    0.23078      0.00000     0.76638    0.00285     0.76922
      C    4   -0.67208      1.99940     4.65057    0.02211     6.67208
      H    5    0.19969      0.00000     0.79637    0.00393     0.80031
      H    6    0.22224      0.00000     0.77569    0.00207     0.77776
      C    7   -0.67693      1.99941     4.65585    0.02167     6.67693
      H    8    0.19404      0.00000     0.80230    0.00366     0.80596
      H    9    0.21880      0.00000     0.77972    0.00148     0.78120
      P   10    0.81327      9.99843     4.15224    0.03606    14.18673
      P   11    0.80434      9.99844     4.16069    0.03653    14.19566
      C   12   -0.33558      1.99902     4.30271    0.03385     6.33558
      C   13   -0.20105      1.99909     4.18157    0.02039     6.20105
      C   14   -0.19110      1.99910     4.17096    0.02104     6.19110
      C   15   -0.20546      1.99919     4.18705    0.01921     6.20546
      H   16    0.20145      0.00000     0.79605    0.00249     0.79855
      C   17   -0.20567      1.99918     4.18686    0.01963     6.20567
      H   18    0.22155      0.00000     0.77674    0.00170     0.77845
      C   19   -0.19913      1.99919     4.18074    0.01920     6.19913
      H   20    0.20732      0.00000     0.79129    0.00139     0.79268
      H   21    0.21063      0.00000     0.78810    0.00127     0.78937
      H   22    0.20886      0.00000     0.78997    0.00117     0.79114
      C   23   -0.32654      1.99901     4.29686    0.03067     6.32654
      C   24   -0.20002      1.99910     4.17989    0.02103     6.20002
      C   25   -0.20901      1.99908     4.18923    0.02070     6.20901
      C   26   -0.20265      1.99918     4.18374    0.01972     6.20265
      H   27    0.21472      0.00000     0.78352    0.00175     0.78528
      C   28   -0.20219      1.99919     4.18356    0.01944     6.20219
      H   29    0.20144      0.00000     0.79615    0.00241     0.79856
      C   30   -0.20904      1.99919     4.19027    0.01958     6.20904
      H   31    0.20797      0.00000     0.79071    0.00133     0.79203
      H   32    0.20559      0.00000     0.79299    0.00142     0.79441
      H   33    0.20713      0.00000     0.79164    0.00123     0.79287
      C   34   -0.39623      1.99941     4.37965    0.01716     6.39623
      H   35    0.19314      0.00000     0.80478    0.00208     0.80686
      H   36    0.20859      0.00000     0.78913    0.00227     0.79141
      C   37   -0.19321      1.99940     4.17850    0.01531     6.19321
      H   38    0.15144      0.00000     0.84647    0.00209     0.84856
      H   39    0.17627      0.00000     0.82187    0.00186     0.82373
      C   40   -0.39555      1.99941     4.37898    0.01716     6.39555
      H   41    0.19115      0.00000     0.80661    0.00223     0.80885
      H   42    0.20668      0.00000     0.79092    0.00241     0.79332
      C   43   -0.19461      1.99939     4.17988    0.01533     6.19461
      H   44    0.15294      0.00000     0.84499    0.00208     0.84706
      H   45    0.17733      0.00000     0.82102    0.00164     0.82267
      N   46   -0.81869      1.99961     5.79363    0.02545     7.81869
      H   47    0.34429      0.00000     0.65401    0.00170     0.65571
      H   48    0.35033      0.00000     0.64814    0.00154     0.64967
      N   49   -0.81919      1.99961     5.79420    0.02538     7.81919
      H   50    0.34390      0.00000     0.65440    0.00170     0.65610
      H   51    0.34990      0.00000     0.64856    0.00154     0.65010
 =======================================================================
   * Total *   -0.00000     61.98150   123.43605    0.58245   186.00000

 Normal termination of Gaussian 16 at Thu Jan 23 21:56:09 2025.
