 Gaussian 16, Revision B.01,
 Gaussian 16:  ES64L-G16RevB.01 20-Dec-2017

 --------------------------------------------
 # nmr=giao b3lyp/def2TZVP pop=nbo scfcyc=200
 --------------------------------------------

 --------------
 MB-48 SPE NoRh
 --------------
 Symbolic Z-matrix:
 Charge =  0 Multiplicity = 1

                         Standard orientation:
 ---------------------------------------------------------------------
 Center     Atomic      Atomic             Coordinates (Angstroms)
 Number     Number       Type             X           Y           Z
 ---------------------------------------------------------------------
      1         15           0       -1.053796    0.209096   -0.644701
      2         15           0        1.625627   -0.513361   -0.624407
      3          6           0        0.375361    0.192797    0.571307
      4          6           0       -2.087678    1.686955   -0.268586
      5          6           0       -3.478620    1.599738   -0.174858
      6          6           0       -4.237955    2.746626    0.038730
      7          6           0       -3.619795    3.986006    0.157439
      8          6           0       -2.234761    4.081139    0.052600
      9          6           0       -1.472656    2.941412   -0.168340
     10          6           0       -2.069396   -1.261449   -0.215248
     11          6           0       -2.358721   -2.208532   -1.199906
     12          6           0       -3.114848   -3.335266   -0.888145
     13          6           0       -3.581631   -3.523081    0.407126
     14          6           0       -3.294709   -2.582570    1.394949
     15          6           0       -2.542903   -1.456518    1.087971
     16          6           0        3.283470    0.173200   -0.224179
     17          6           0        4.346897   -0.134670   -1.081350
     18          6           0        5.623238    0.348289   -0.820777
     19          6           0        5.851319    1.152303    0.292263
     20          6           0        4.800552    1.464002    1.146779
     21          6           0        3.522387    0.977060    0.893610
     22          6           0        1.747928   -2.329970   -0.222669
     23          1           0        0.638714    1.222745    0.806797
     24          1           0        0.210561   -0.353776    1.499469
     25          1           0        0.753332   -2.743874   -0.402054
     26          1           0        2.402620   -2.758837   -0.984966
     27          1           0       -3.974812    0.641908   -0.259549
     28          1           0       -5.314956    2.667318    0.115882
     29          1           0       -4.212747    4.874612    0.327522
     30          1           0       -1.747587    5.044145    0.138664
     31          1           0       -0.397733    3.037155   -0.270120
     32          1           0       -1.986935   -2.069213   -2.207127
     33          1           0       -3.336165   -4.065431   -1.656686
     34          1           0       -4.169777   -4.400097    0.650676
     35          1           0       -3.658979   -2.727304    2.404217
     36          1           0       -2.335826   -0.728192    1.862414
     37          1           0        4.187592   -0.759227   -1.952176
     38          1           0        6.438721    0.099724   -1.488463
     39          1           0        6.844846    1.531889    0.492770
     40          1           0        4.974147    2.083680    2.017692
     41          1           0        2.723126    1.221425    1.580999
     42          6           0        2.250727   -2.673166    1.179061
     43          1           0        2.283792   -3.757492    1.303981
     44          1           0        3.255158   -2.286311    1.352397
     45          1           0        1.596208   -2.276704    1.957602
 ---------------------------------------------------------------------

 SCF Done:  E(RB3LYP) =  -1496.52416879     A.U. after   14 cycles

      1  P    Isotropic =   244.9139   Anisotropy =    93.3279

      2  P    Isotropic =   242.1054   Anisotropy =    91.7957

      3  C    Isotropic =   157.5582   Anisotropy =    29.2846

      4  C    Isotropic =    29.1804   Anisotropy =   198.7852

      5  C    Isotropic =    50.6800   Anisotropy =   182.4334

      6  C    Isotropic =    49.8674   Anisotropy =   183.1778

      7  C    Isotropic =    53.4573   Anisotropy =   180.3551

      8  C    Isotropic =    50.0957   Anisotropy =   183.0232

      9  C    Isotropic =    49.7370   Anisotropy =   183.2334

     10  C    Isotropic =    35.8497   Anisotropy =   206.1855

     11  C    Isotropic =    39.3500   Anisotropy =   182.5162

     12  C    Isotropic =    49.8280   Anisotropy =   184.2577

     13  C    Isotropic =    47.9026   Anisotropy =   190.2390

     14  C    Isotropic =    48.2287   Anisotropy =   186.1832

     15  C    Isotropic =    39.6745   Anisotropy =   188.3388

     16  C    Isotropic =    33.6044   Anisotropy =   202.5132

     17  C    Isotropic =    48.4073   Anisotropy =   183.3748

     18  C    Isotropic =    49.4672   Anisotropy =   184.0804

     19  C    Isotropic =    52.4075   Anisotropy =   181.7022

     20  C    Isotropic =    50.1999   Anisotropy =   182.5762

     21  C    Isotropic =    48.1011   Anisotropy =   182.3050

     22  C    Isotropic =   156.3362   Anisotropy =    16.4485

     23  H    Isotropic =    29.7160   Anisotropy =     7.7622

     24  H    Isotropic =    29.2433   Anisotropy =     4.3513

     25  H    Isotropic =    30.7110   Anisotropy =     9.9247

     26  H    Isotropic =    30.2969   Anisotropy =     8.6899

     27  H    Isotropic =    25.0817   Anisotropy =    13.0766

     28  H    Isotropic =    24.5877   Anisotropy =     6.4028

     29  H    Isotropic =    24.6206   Anisotropy =     4.2315

     30  H    Isotropic =    24.3439   Anisotropy =     5.9939

     31  H    Isotropic =    24.2129   Anisotropy =    10.6547

     32  H    Isotropic =    23.6174   Anisotropy =     8.1172

     33  H    Isotropic =    24.1396   Anisotropy =     5.1065

     34  H    Isotropic =    24.1483   Anisotropy =     4.3410

     35  H    Isotropic =    24.1465   Anisotropy =     5.8360

     36  H    Isotropic =    23.8155   Anisotropy =    10.3682

     37  H    Isotropic =    24.3134   Anisotropy =    10.1852

     38  H    Isotropic =    24.3012   Anisotropy =     5.3306

     39  H    Isotropic =    24.4997   Anisotropy =     4.3641

     40  H    Isotropic =    24.3579   Anisotropy =     6.1634

     41  H    Isotropic =    24.2117   Anisotropy =    11.5222

     42  C    Isotropic =   175.0798   Anisotropy =    15.1828

     43  H    Isotropic =    31.2788   Anisotropy =    11.7345

     44  H    Isotropic =    31.6269   Anisotropy =     6.6421

     45  H    Isotropic =    31.3839   Anisotropy =     5.7320

 The electronic state is 1-A.
 Alpha  occ. eigenvalues --  -77.05022 -77.04226 -10.18890 -10.18724 -10.18650
 Alpha  occ. eigenvalues --  -10.18635 -10.18529 -10.18487 -10.18475 -10.18424
 Alpha  occ. eigenvalues --  -10.18158 -10.17725 -10.17715 -10.17694 -10.17653
 Alpha  occ. eigenvalues --  -10.17623 -10.17592 -10.17579 -10.17501 -10.17481
 Alpha  occ. eigenvalues --  -10.17413 -10.17299 -10.16191  -6.53581  -6.52809
 Alpha  occ. eigenvalues --   -4.69735  -4.69700  -4.69215  -4.68988  -4.68902
 Alpha  occ. eigenvalues --   -4.68434  -0.86851  -0.85891  -0.85740  -0.78453
 Alpha  occ. eigenvalues --   -0.76970  -0.75878  -0.75093  -0.74988  -0.74814
 Alpha  occ. eigenvalues --   -0.74701  -0.72460  -0.64499  -0.63053  -0.61635
 Alpha  occ. eigenvalues --   -0.60883  -0.60734  -0.60537  -0.60269  -0.56208
 Alpha  occ. eigenvalues --   -0.54485  -0.52591  -0.51081  -0.50274  -0.46521
 Alpha  occ. eigenvalues --   -0.46372  -0.45919  -0.45619  -0.45454  -0.45221
 Alpha  occ. eigenvalues --   -0.45124  -0.44100  -0.43346  -0.42775  -0.42515
 Alpha  occ. eigenvalues --   -0.42153  -0.41316  -0.39970  -0.38776  -0.38474
 Alpha  occ. eigenvalues --   -0.37738  -0.37455  -0.37350  -0.36019  -0.35741
 Alpha  occ. eigenvalues --   -0.35267  -0.34974  -0.34673  -0.32782  -0.31879
 Alpha  occ. eigenvalues --   -0.31730  -0.27467  -0.26935  -0.26787  -0.26360
 Alpha  occ. eigenvalues --   -0.25999  -0.25802  -0.22077  -0.18672
 Alpha virt. eigenvalues --   -0.03937  -0.02707  -0.02292  -0.01952  -0.01656
 Alpha virt. eigenvalues --   -0.01281   0.01987   0.03267   0.04140   0.04561
 Alpha virt. eigenvalues --    0.05173   0.05244   0.06595   0.06926   0.07193

 Mulliken charges:
               1
     1  P    0.178202
     2  P    0.139376
     3  C   -0.378814
     4  C    0.080622
     5  C   -0.169683
     6  C   -0.121563
     7  C   -0.110805
     8  C   -0.114084
     9  C   -0.214734
    10  C    0.011173
    11  C   -0.148330
    12  C   -0.101132
    13  C   -0.098497
    14  C   -0.095831
    15  C   -0.197189
    16  C    0.091968
    17  C   -0.175741
    18  C   -0.111747
    19  C   -0.107390
    20  C   -0.121321
    21  C   -0.173381
    22  C   -0.248372
    23  H    0.128081
    24  H    0.124833
    25  H    0.128599
    26  H    0.109341
    27  H    0.138222
    28  H    0.106437
    29  H    0.106999
    30  H    0.107107
    31  H    0.114999
    32  H    0.119726
    33  H    0.113286
    34  H    0.114263
    35  H    0.111530
    36  H    0.127315
    37  H    0.103947
    38  H    0.108052
    39  H    0.108080
    40  H    0.105660
    41  H    0.111433
    42  C   -0.337999
    43  H    0.107354
    44  H    0.128420
    45  H    0.101587
 Sum of Mulliken charges =  -0.00000

 Dipole moment (field-independent basis, Debye):
    X=             -0.4080    Y=             -1.2472    Z=              2.0084  Tot=              2.3991
 Quadrupole moment (field-independent basis, Debye-Ang):
   XX=           -141.3138   YY=           -142.0269   ZZ=           -153.7230
   XY=              5.1118   XZ=             -2.3820   YZ=              5.3664

 Summary of Natural Population Analysis:

                                       Natural Population
                Natural  -----------------------------------------------
    Atom  No    Charge         Core      Valence    Rydberg      Total
 -----------------------------------------------------------------------
      P    1    0.83237      9.99816     4.13571    0.03377    14.16763
      P    2    0.80866      9.99844     4.15712    0.03578    14.19134
      C    3   -1.00639      1.99945     4.97449    0.03244     7.00639
      C    4   -0.31568      1.99899     4.28693    0.02976     6.31568
      C    5   -0.21306      1.99908     4.19385    0.02013     6.21306
      C    6   -0.19520      1.99919     4.17703    0.01898     6.19520
      C    7   -0.21621      1.99919     4.19736    0.01966     6.21621
      C    8   -0.19600      1.99919     4.17782    0.01900     6.19600
      C    9   -0.21217      1.99909     4.19302    0.02006     6.21217
      C   10   -0.33978      1.99901     4.30667    0.03409     6.33978
      C   11   -0.19007      1.99910     4.17004    0.02093     6.19007
      C   12   -0.20664      1.99918     4.18794    0.01952     6.20664
      C   13   -0.19503      1.99919     4.17682    0.01902     6.19503
      C   14   -0.20535      1.99919     4.18705    0.01911     6.20535
      C   15   -0.19519      1.99908     4.17576    0.02035     6.19519
      C   16   -0.32155      1.99901     4.29266    0.02988     6.32155
      C   17   -0.20535      1.99909     4.18532    0.02094     6.20535
      C   18   -0.19753      1.99918     4.17925    0.01910     6.19753
      C   19   -0.21368      1.99919     4.19476    0.01973     6.21368
      C   20   -0.19855      1.99919     4.18000    0.01937     6.19855
      C   21   -0.21413      1.99908     4.19458    0.02048     6.21413
      C   22   -0.67240      1.99943     4.65075    0.02223     6.67240
      H   23    0.25020      0.00000     0.74809    0.00171     0.74980
      H   24    0.23555      0.00000     0.76166    0.00279     0.76445
      H   25    0.22591      0.00000     0.77274    0.00135     0.77409
      H   26    0.22227      0.00000     0.77645    0.00128     0.77773
      H   27    0.21336      0.00000     0.78477    0.00186     0.78664
      H   28    0.20704      0.00000     0.79163    0.00133     0.79296
      H   29    0.20742      0.00000     0.79138    0.00120     0.79258
      H   30    0.20789      0.00000     0.79080    0.00131     0.79211
      H   31    0.20247      0.00000     0.79537    0.00216     0.79753
      H   32    0.22117      0.00000     0.77723    0.00160     0.77883
      H   33    0.21120      0.00000     0.78753    0.00126     0.78880
      H   34    0.20995      0.00000     0.78888    0.00116     0.79005
      H   35    0.20938      0.00000     0.78924    0.00138     0.79062
      H   36    0.20986      0.00000     0.78767    0.00247     0.79014
      H   37    0.20726      0.00000     0.79049    0.00225     0.79274
      H   38    0.20805      0.00000     0.79062    0.00133     0.79195
      H   39    0.20763      0.00000     0.79114    0.00123     0.79237
      H   40    0.20644      0.00000     0.79220    0.00136     0.79356
      H   41    0.20090      0.00000     0.79682    0.00227     0.79910
      C   42   -0.60072      1.99947     4.58912    0.01213     6.60072
      H   43    0.20263      0.00000     0.79588    0.00150     0.79737
      H   44    0.20798      0.00000     0.79054    0.00148     0.79202
      H   45    0.19506      0.00000     0.80329    0.00164     0.80494
 =======================================================================
   * Total *   -0.00000     61.97917   115.45845    0.56238   178.00000

 Normal termination of Gaussian 16 at Thu Jan 23 22:10:52 2025.
