 Gaussian 16, Revision B.01,
 Gaussian 16:  ES64L-G16RevB.01 20-Dec-2017

 --------------------------------------------
 # nmr=giao b3lyp/def2TZVP pop=nbo scfcyc=200
 --------------------------------------------

 --------------
 MB-46 SPE NoRh
 --------------
 Symbolic Z-matrix:
 Charge =  0 Multiplicity = 1

                         Standard orientation:
 ---------------------------------------------------------------------
 Center     Atomic      Atomic             Coordinates (Angstroms)
 Number     Number       Type             X           Y           Z
 ---------------------------------------------------------------------
      1         15           0        1.364465   -0.337088   -0.675927
      2         15           0       -1.331058    0.048888   -0.702625
      3          6           0       -0.044438   -0.510804    0.533028
      4          6           0        5.096770   -1.442046    0.474171
      5          6           0        3.562687   -4.112260   -0.002934
      6          6           0        3.384598    3.231245    1.043726
      7          6           0        4.387708    2.058737   -1.659639
      8          6           0       -4.542531    2.315232   -0.136982
      9          6           0       -2.188878    4.153829    0.745374
     10          1           0        0.038361    0.073298    1.450910
     11          1           0       -0.198526   -1.564487    0.770423
     12          1           0        5.851917   -1.946703    1.082142
     13          1           0        5.459612   -1.423471   -0.556067
     14          1           0        5.018309   -0.412979    0.830961
     15          1           0        4.248407   -4.690350    0.621575
     16          1           0        2.588320   -4.603355    0.027736
     17          1           0        3.931123   -4.153440   -1.029701
     18          1           0        3.856476    4.201703    0.866832
     19          1           0        2.514646    3.395011    1.683288
     20          1           0        4.095558    2.611447    1.592629
     21          1           0        4.885624    2.988846   -1.946773
     22          1           0        5.118568    1.442888   -1.131864
     23          1           0        4.110355    1.539977   -2.579582
     24          1           0       -4.900297    1.286075   -0.200856
     25          1           0       -5.284014    2.893817    0.420444
     26          1           0       -4.495797    2.724713   -1.149084
     27          1           0       -2.852731    4.809745    1.314783
     28          1           0       -1.204706    4.189148    1.215088
     29          1           0       -2.101111    4.564176   -0.262659
     30          6           0       -2.897753    1.623456    2.419776
     31          1           0       -3.217462    0.580464    2.381066
     32          1           0       -1.916478    1.666095    2.897737
     33          1           0       -3.597990    2.160295    3.065847
     34          6           0        1.599316    3.430055   -1.508473
     35          1           0        1.268058    2.908421   -2.409155
     36          1           0        0.720391    3.614168   -0.888184
     37          1           0        2.008405    4.397854   -1.810553
     38          6           0        2.735508   -2.222439    2.340043
     39          1           0        2.600835   -1.184619    2.652341
     40          1           0        1.774282   -2.735687    2.419606
     41          1           0        3.416551   -2.692545    3.054638
     42         14           0        2.893928    2.433214   -0.580286
     43         14           0        3.454070   -2.340710    0.604653
     44         14           0       -2.868626    2.406427    0.709014
     45          6           0       -4.795939   -2.193785   -1.795545
     46          1           0       -5.462785   -1.349180   -1.608676
     47          1           0       -4.365124   -2.069432   -2.790789
     48          1           0       -5.407544   -3.099925   -1.811642
     49          6           0       -4.232783   -2.539321    1.242900
     50          1           0       -4.933663   -1.733713    1.470129
     51          1           0       -4.782200   -3.482192    1.300046
     52          1           0       -3.467086   -2.553420    2.021171
     53          6           0       -2.217560   -3.666062   -0.849315
     54          1           0       -1.679719   -3.457339   -1.776359
     55          1           0       -1.483432   -3.779034   -0.048453
     56          1           0       -2.720183   -4.629350   -0.965797
     57         14           0       -3.479651   -2.323853   -0.462773
     58          8           0       -2.669491   -0.806771   -0.417579
     59          8           0       -1.737773    1.541475   -0.272983
     60          8           0        2.179096    0.936002   -0.105586
     61          8           0        2.351619   -1.591963   -0.498879
 ---------------------------------------------------------------------

 SCF Done:  E(RB3LYP) =  -2660.78054540     A.U. after   13 cycles

      1  P    Isotropic =    96.3923   Anisotropy =   242.0834

      2  P    Isotropic =    85.2069   Anisotropy =   268.0955

      3  C    Isotropic =   123.4876   Anisotropy =    24.7159

      4  C    Isotropic =   180.8171   Anisotropy =     9.9686

      5  C    Isotropic =   182.3507   Anisotropy =    12.4673

      6  C    Isotropic =   181.6883   Anisotropy =    11.5382

      7  C    Isotropic =   182.7518   Anisotropy =    10.4284

      8  C    Isotropic =   181.5454   Anisotropy =    11.2238

      9  C    Isotropic =   182.0418   Anisotropy =    11.3014

     10  H    Isotropic =    29.8830   Anisotropy =     4.2665

     11  H    Isotropic =    30.3815   Anisotropy =     6.1876

     12  H    Isotropic =    31.9926   Anisotropy =     9.9214

     13  H    Isotropic =    31.5089   Anisotropy =     6.9726

     14  H    Isotropic =    31.4643   Anisotropy =     8.0443

     15  H    Isotropic =    32.0934   Anisotropy =     9.7952

     16  H    Isotropic =    31.6924   Anisotropy =     8.1561

     17  H    Isotropic =    31.5540   Anisotropy =     8.1280

     18  H    Isotropic =    32.0195   Anisotropy =     9.8879

     19  H    Isotropic =    31.6247   Anisotropy =     7.5081

     20  H    Isotropic =    31.6273   Anisotropy =     7.4202

     21  H    Isotropic =    32.0755   Anisotropy =     9.9571

     22  H    Isotropic =    31.6458   Anisotropy =     8.3337

     23  H    Isotropic =    31.4482   Anisotropy =     7.0497

     24  H    Isotropic =    31.3903   Anisotropy =     8.8942

     25  H    Isotropic =    32.0561   Anisotropy =     9.8479

     26  H    Isotropic =    31.5151   Anisotropy =     7.6766

     27  H    Isotropic =    32.0309   Anisotropy =     9.8573

     28  H    Isotropic =    31.6618   Anisotropy =     7.9835

     29  H    Isotropic =    31.5328   Anisotropy =     7.3905

     30  C    Isotropic =   181.4827   Anisotropy =     8.7409

     31  H    Isotropic =    31.4222   Anisotropy =     8.6294

     32  H    Isotropic =    31.5897   Anisotropy =     7.1296

     33  H    Isotropic =    31.9540   Anisotropy =     9.8623

     34  C    Isotropic =   182.4439   Anisotropy =    10.2704

     35  H    Isotropic =    31.3414   Anisotropy =     6.5069

     36  H    Isotropic =    31.5967   Anisotropy =    11.1329

     37  H    Isotropic =    32.1420   Anisotropy =     9.6224

     38  C    Isotropic =   181.8901   Anisotropy =     7.5380

     39  H    Isotropic =    31.4931   Anisotropy =     6.6696

     40  H    Isotropic =    31.6934   Anisotropy =     7.5635

     41  H    Isotropic =    31.9754   Anisotropy =     9.8379

     42  Si   Isotropic =   291.3989   Anisotropy =    18.7902

     43  Si   Isotropic =   290.2383   Anisotropy =    24.1301

     44  Si   Isotropic =   291.4865   Anisotropy =    21.4186

     45  C    Isotropic =   182.3615   Anisotropy =    11.8466

     46  H    Isotropic =    31.5731   Anisotropy =     7.6224

     47  H    Isotropic =    31.4571   Anisotropy =     7.8254

     48  H    Isotropic =    32.0510   Anisotropy =     9.8779

     49  C    Isotropic =   181.2413   Anisotropy =    11.1633

     50  H    Isotropic =    31.5786   Anisotropy =     6.9987

     51  H    Isotropic =    32.0039   Anisotropy =    10.0509

     52  H    Isotropic =    31.6481   Anisotropy =     6.5229

     53  C    Isotropic =   182.2446   Anisotropy =     9.7985

     54  H    Isotropic =    31.4183   Anisotropy =     7.1030

     55  H    Isotropic =    31.5958   Anisotropy =     7.9908

     56  H    Isotropic =    31.9876   Anisotropy =     9.7681

     57  Si   Isotropic =   296.3113   Anisotropy =    17.8535

     58  O    Isotropic =   198.8457   Anisotropy =   146.3479

     59  O    Isotropic =   202.0200   Anisotropy =   125.4465

     60  O    Isotropic =   189.7365   Anisotropy =   125.0338

     61  O    Isotropic =   190.4521   Anisotropy =   137.0392

 The electronic state is 1-A.
 Alpha  occ. eigenvalues --  -77.08494 -77.08222 -66.12078 -66.11626 -66.11545
 Alpha  occ. eigenvalues --  -66.11539 -19.10912 -19.10795 -19.10761 -19.10625
 Alpha  occ. eigenvalues --  -10.15114 -10.15044 -10.14940 -10.14939 -10.14868
 Alpha  occ. eigenvalues --  -10.14853 -10.14839 -10.14828 -10.14755 -10.14754
 Alpha  occ. eigenvalues --  -10.14703 -10.14519 -10.14115  -6.56022  -6.55776
 Alpha  occ. eigenvalues --   -5.27739  -5.27340  -5.27278  -5.27216  -4.72353
 Alpha  occ. eigenvalues --   -4.72172  -4.72100  -4.71921  -4.71559  -4.71328
 Alpha  occ. eigenvalues --   -3.63774  -3.63451  -3.63436  -3.63365  -3.63294
 Alpha  occ. eigenvalues --   -3.63251  -3.63051  -3.63037  -3.62989  -3.62979
 Alpha  occ. eigenvalues --   -3.62921  -3.62914  -1.00444  -1.00082  -0.96329
 Alpha  occ. eigenvalues --   -0.96182  -0.72578  -0.71877  -0.71630  -0.71407
 Alpha  occ. eigenvalues --   -0.70859  -0.68638  -0.68499  -0.68421  -0.68380
 Alpha  occ. eigenvalues --   -0.68351  -0.68264  -0.68175  -0.67767  -0.60037
 Alpha  occ. eigenvalues --   -0.57921  -0.52452  -0.52031  -0.46182  -0.44375
 Alpha  occ. eigenvalues --   -0.43339  -0.43208  -0.42804  -0.42446  -0.42346
 Alpha  occ. eigenvalues --   -0.42000  -0.41907  -0.41622  -0.41408  -0.41370
 Alpha  occ. eigenvalues --   -0.41173  -0.41125  -0.41040  -0.40547  -0.40487
 Alpha  occ. eigenvalues --   -0.40337  -0.40046  -0.39783  -0.39702  -0.39640
 Alpha  occ. eigenvalues --   -0.39378  -0.39217  -0.39006  -0.38902  -0.38786
 Alpha  occ. eigenvalues --   -0.38672  -0.38582  -0.38454  -0.38213  -0.37381
 Alpha  occ. eigenvalues --   -0.37188  -0.35431  -0.34527  -0.34260  -0.33756
 Alpha  occ. eigenvalues --   -0.33290  -0.31921  -0.30534  -0.30273  -0.29998
 Alpha  occ. eigenvalues --   -0.29786  -0.29425  -0.29153  -0.28461  -0.28024
 Alpha  occ. eigenvalues --   -0.20234  -0.16416
 Alpha virt. eigenvalues --    0.00796   0.00956   0.02102   0.02210   0.03720
 Alpha virt. eigenvalues --    0.04117   0.04731   0.05085   0.05467   0.06080
 Alpha virt. eigenvalues --    0.06314   0.06501   0.06746   0.07015   0.07035

 Mulliken charges:
               1
     1  P    0.405911
     2  P    0.426995
     3  C   -0.356653
     4  C   -0.455240
     5  C   -0.449662
     6  C   -0.449962
     7  C   -0.460038
     8  C   -0.450212
     9  C   -0.471096
    10  H    0.104746
    11  H    0.100856
    12  H    0.113873
    13  H    0.125532
    14  H    0.120675
    15  H    0.108298
    16  H    0.118126
    17  H    0.124776
    18  H    0.109814
    19  H    0.117923
    20  H    0.118277
    21  H    0.113170
    22  H    0.121758
    23  H    0.130149
    24  H    0.124486
    25  H    0.109643
    26  H    0.123941
    27  H    0.115498
    28  H    0.117490
    29  H    0.126132
    30  C   -0.469956
    31  H    0.138055
    32  H    0.118735
    33  H    0.114435
    34  C   -0.461764
    35  H    0.134710
    36  H    0.133067
    37  H    0.109021
    38  C   -0.461837
    39  H    0.127510
    40  H    0.116183
    41  H    0.118197
    42  Si   0.554973
    43  Si   0.536838
    44  Si   0.550016
    45  C   -0.449747
    46  H    0.121831
    47  H    0.129214
    48  H    0.110267
    49  C   -0.456924
    50  H    0.121269
    51  H    0.116871
    52  H    0.119719
    53  C   -0.468675
    54  H    0.138948
    55  H    0.114691
    56  H    0.115948
    57  Si   0.537565
    58  O   -0.422265
    59  O   -0.417469
    60  O   -0.440617
    61  O   -0.414016
 Sum of Mulliken charges =  -0.00000

 Dipole moment (field-independent basis, Debye):
    X=             -0.3605    Y=             -0.3159    Z=              2.6485  Tot=              2.6915
 Quadrupole moment (field-independent basis, Debye-Ang):
   XX=           -174.6742   YY=           -176.7700   ZZ=           -193.7387
   XY=              2.2918   XZ=              0.2937   YZ=             -0.9727

 Summary of Natural Population Analysis:

                                       Natural Population
                Natural  -----------------------------------------------
    Atom  No    Charge         Core      Valence    Rydberg      Total
 -----------------------------------------------------------------------
      P    1    1.38236      9.99863     3.51334    0.10567    13.61764
      P    2    1.39791      9.99865     3.49819    0.10525    13.60209
      C    3   -1.15645      1.99950     5.12604    0.03091     7.15645
      C    4   -1.12364      1.99942     5.10363    0.02059     7.12364
      C    5   -1.11748      1.99942     5.09812    0.01994     7.11748
      C    6   -1.11907      1.99942     5.09938    0.02027     7.11907
      C    7   -1.12516      1.99942     5.10520    0.02054     7.12516
      C    8   -1.12263      1.99942     5.10271    0.02050     7.12263
      C    9   -1.12037      1.99942     5.10063    0.02032     7.12037
      H   10    0.24289      0.00000     0.75459    0.00252     0.75711
      H   11    0.24210      0.00000     0.75630    0.00160     0.75790
      H   12    0.22721      0.00000     0.77204    0.00075     0.77279
      H   13    0.23691      0.00000     0.76225    0.00084     0.76309
      H   14    0.23460      0.00000     0.76431    0.00108     0.76540
      H   15    0.22579      0.00000     0.77347    0.00075     0.77421
      H   16    0.23475      0.00000     0.76443    0.00082     0.76525
      H   17    0.23767      0.00000     0.76157    0.00076     0.76233
      H   18    0.22670      0.00000     0.77245    0.00085     0.77330
      H   19    0.23403      0.00000     0.76510    0.00088     0.76597
      H   20    0.23258      0.00000     0.76651    0.00091     0.76742
      H   21    0.22746      0.00000     0.77182    0.00072     0.77254
      H   22    0.23280      0.00000     0.76630    0.00090     0.76720
      H   23    0.23953      0.00000     0.75962    0.00085     0.76047
      H   24    0.23742      0.00000     0.76159    0.00098     0.76258
      H   25    0.22593      0.00000     0.77333    0.00074     0.77407
      H   26    0.23702      0.00000     0.76221    0.00077     0.76298
      H   27    0.22727      0.00000     0.77199    0.00075     0.77273
      H   28    0.23302      0.00000     0.76604    0.00095     0.76698
      H   29    0.23784      0.00000     0.76133    0.00083     0.76216
      C   30   -1.12748      1.99942     5.10707    0.02098     7.12748
      H   31    0.23856      0.00000     0.76054    0.00091     0.76144
      H   32    0.23221      0.00000     0.76678    0.00102     0.76779
      H   33    0.22761      0.00000     0.77159    0.00080     0.77239
      C   34   -1.12697      1.99942     5.10657    0.02099     7.12697
      H   35    0.24449      0.00000     0.75453    0.00098     0.75551
      H   36    0.23965      0.00000     0.75946    0.00089     0.76035
      H   37    0.22531      0.00000     0.77395    0.00074     0.77469
      C   38   -1.12733      1.99943     5.10705    0.02086     7.12733
      H   39    0.23775      0.00000     0.76112    0.00113     0.76225
      H   40    0.23184      0.00000     0.76716    0.00100     0.76816
      H   41    0.22840      0.00000     0.77084    0.00077     0.77160
     Si   42    1.91491      9.99802     2.05471    0.03237    12.08509
     Si   43    1.89740      9.99804     2.07355    0.03101    12.10260
     Si   44    1.90243      9.99803     2.06822    0.03132    12.09757
      C   45   -1.12110      1.99942     5.10152    0.02016     7.12110
      H   46    0.23455      0.00000     0.76454    0.00091     0.76545
      H   47    0.23919      0.00000     0.76006    0.00076     0.76081
      H   48    0.22723      0.00000     0.77204    0.00073     0.77277
      C   49   -1.12239      1.99942     5.10230    0.02067     7.12239
      H   50    0.23329      0.00000     0.76582    0.00089     0.76671
      H   51    0.22744      0.00000     0.77171    0.00085     0.77256
      H   52    0.23366      0.00000     0.76544    0.00090     0.76634
      C   53   -1.12686      1.99942     5.10674    0.02070     7.12686
      H   54    0.24262      0.00000     0.75646    0.00092     0.75738
      H   55    0.23002      0.00000     0.76892    0.00106     0.76998
      H   56    0.22955      0.00000     0.76971    0.00074     0.77045
     Si   57    1.91285      9.99799     2.05773    0.03143    12.08715
      O   58   -1.17761      1.99975     7.16652    0.01134     9.17761
      O   59   -1.15085      1.99978     7.13831    0.01276     9.15085
      O   60   -1.17113      1.99976     7.15844    0.01293     9.17113
      O   61   -1.14820      1.99978     7.13621    0.01221     9.14820
 =======================================================================
   * Total *    0.00000     93.98099   139.32007    0.69894   234.00000

 Normal termination of Gaussian 16 at Thu Jan 23 22:06:57 2025.
