 Gaussian 16, Revision B.01,
 Gaussian 16:  ES64L-G16RevB.01 20-Dec-2017

 --------------------------------------------
 # nmr=giao b3lyp/def2TZVP pop=nbo scfcyc=200
 --------------------------------------------

 --------------
 MB-50 SPE NoRh
 --------------
 Symbolic Z-matrix:
 Charge =  0 Multiplicity = 1

                         Standard orientation:
 ---------------------------------------------------------------------
 Center     Atomic      Atomic             Coordinates (Angstroms)
 Number     Number       Type             X           Y           Z
 ---------------------------------------------------------------------
      1         15           0       -1.005781    0.224325   -0.603218
      2         15           0        1.634782   -0.646670   -0.683885
      3          6           0        0.427043    0.012442    0.584708
      4          6           0       -1.914094    1.759839   -0.148328
      5          6           0       -3.311223    1.795875   -0.155488
      6          6           0       -3.981491    2.985432    0.112708
      7          6           0       -3.267125    4.146569    0.386689
      8          6           0       -1.875612    4.119277    0.384204
      9          6           0       -1.201361    2.936682    0.109632
     10          6           0       -2.142603   -1.174260   -0.242201
     11          6           0       -2.502523   -2.059938   -1.260851
     12          6           0       -3.349929   -3.131926   -0.992709
     13          6           0       -3.840354   -3.325521    0.293543
     14          6           0       -3.483914   -2.447425    1.314914
     15          6           0       -2.638785   -1.377493    1.051731
     16          6           0        3.307377   -0.007459   -0.278585
     17          6           0        4.221012   -0.724172    0.501731
     18          6           0        5.468260   -0.178487    0.785400
     19          6           0        5.810684    1.082922    0.307919
     20          6           0        4.902534    1.803490   -0.461625
     21          6           0        3.659287    1.259437   -0.759518
     22          6           0        1.658682   -2.483991   -0.366755
     23          1           0        0.776723    0.983607    0.934690
     24          1           0        0.257777   -0.638758    1.440826
     25          1           0        0.708682   -2.874036   -0.744408
     26          1           0        2.469030   -2.910415   -0.968024
     27          1           0       -3.881053    0.899063   -0.357783
     28          1           0       -5.064086    3.001318    0.111614
     29          1           0       -3.791608    5.068909    0.599410
     30          1           0       -1.313891    5.020716    0.594170
     31          1           0       -0.117966    2.940340    0.098220
     32          1           0       -2.114805   -1.913954   -2.261297
     33          1           0       -3.626167   -3.812295   -1.787594
     34          1           0       -4.500653   -4.157859    0.502540
     35          1           0       -3.865211   -2.596697    2.317350
     36          1           0       -2.375780   -0.697198    1.853009
     37          1           0        3.956092   -1.692290    0.904049
     38          1           0        6.171217   -0.738641    1.388617
     39          1           0        6.781964    1.503518    0.534776
     40          1           0        5.165091    2.784624   -0.835836
     41          1           0        2.960343    1.819337   -1.370071
     42          8           0        1.823614   -2.739860    1.020510
     43          1           0        1.705190   -3.682986    1.185476
 ---------------------------------------------------------------------

 SCF Done:  E(RB3LYP) =  -1532.43793326     A.U. after   14 cycles

      1  P    Isotropic =   234.6928   Anisotropy =   109.1405

      2  P    Isotropic =   239.3584   Anisotropy =    97.9098

      3  C    Isotropic =   152.7290   Anisotropy =    38.5091

      4  C    Isotropic =    28.6469   Anisotropy =   199.0943

      5  C    Isotropic =    51.0211   Anisotropy =   181.6942

      6  C    Isotropic =    49.7092   Anisotropy =   183.1177

      7  C    Isotropic =    53.6930   Anisotropy =   179.4548

      8  C    Isotropic =    50.3918   Anisotropy =   182.6737

      9  C    Isotropic =    50.5711   Anisotropy =   182.2826

     10  C    Isotropic =    34.0989   Anisotropy =   207.7025

     11  C    Isotropic =    39.6733   Anisotropy =   181.9322

     12  C    Isotropic =    50.3748   Anisotropy =   183.3799

     13  C    Isotropic =    48.3024   Anisotropy =   189.9683

     14  C    Isotropic =    48.1472   Anisotropy =   186.2826

     15  C    Isotropic =    38.9468   Anisotropy =   188.3239

     16  C    Isotropic =    33.5583   Anisotropy =   199.6173

     17  C    Isotropic =    44.8886   Anisotropy =   180.5186

     18  C    Isotropic =    49.7971   Anisotropy =   183.3061

     19  C    Isotropic =    50.3568   Anisotropy =   186.1746

     20  C    Isotropic =    50.2266   Anisotropy =   183.2972

     21  C    Isotropic =    44.4965   Anisotropy =   180.3013

     22  C    Isotropic =   115.9125   Anisotropy =    64.8015

     23  H    Isotropic =    30.1438   Anisotropy =     6.2522

     24  H    Isotropic =    28.3883   Anisotropy =     3.9714

     25  H    Isotropic =    27.7897   Anisotropy =     6.8216

     26  H    Isotropic =    27.2443   Anisotropy =     4.7665

     27  H    Isotropic =    25.1409   Anisotropy =    12.9444

     28  H    Isotropic =    24.6004   Anisotropy =     6.3207

     29  H    Isotropic =    24.6414   Anisotropy =     4.2717

     30  H    Isotropic =    24.3474   Anisotropy =     6.0358

     31  H    Isotropic =    24.1405   Anisotropy =    10.3816

     32  H    Isotropic =    23.6424   Anisotropy =     8.1495

     33  H    Isotropic =    24.1765   Anisotropy =     5.1134

     34  H    Isotropic =    24.1770   Anisotropy =     4.2482

     35  H    Isotropic =    24.1708   Anisotropy =     5.8063

     36  H    Isotropic =    23.8567   Anisotropy =    10.6943

     37  H    Isotropic =    23.2756   Anisotropy =    12.0514

     38  H    Isotropic =    24.3823   Anisotropy =     5.9442

     39  H    Isotropic =    24.3725   Anisotropy =     4.6018

     40  H    Isotropic =    24.2386   Anisotropy =     5.6407

     41  H    Isotropic =    23.8624   Anisotropy =     9.4328

     42  O    Isotropic =   306.6142   Anisotropy =    99.8105

     43  H    Isotropic =    31.7891   Anisotropy =    19.8899

 The electronic state is 1-A.
 Alpha  occ. eigenvalues --  -77.04749 -77.04319 -19.13760 -10.22618 -10.18740
 Alpha  occ. eigenvalues --  -10.18621 -10.18552 -10.18474 -10.18398 -10.18345
 Alpha  occ. eigenvalues --  -10.18299 -10.18117 -10.17931 -10.17654 -10.17571
 Alpha  occ. eigenvalues --  -10.17543 -10.17486 -10.17449 -10.17371 -10.17337
 Alpha  occ. eigenvalues --  -10.17273 -10.17169 -10.17143  -6.53325  -6.52930
 Alpha  occ. eigenvalues --   -4.69477  -4.69447  -4.69076  -4.69055  -4.68958
 Alpha  occ. eigenvalues --   -4.68556  -1.03313  -0.86709  -0.85666  -0.85603
 Alpha  occ. eigenvalues --   -0.77668  -0.75940  -0.75743  -0.74867  -0.74768
 Alpha  occ. eigenvalues --   -0.74576  -0.72835  -0.69408  -0.63323  -0.61513
 Alpha  occ. eigenvalues --   -0.61065  -0.60548  -0.60458  -0.60155  -0.56092
 Alpha  occ. eigenvalues --   -0.54676  -0.52764  -0.52467  -0.50736  -0.50239
 Alpha  occ. eigenvalues --   -0.46609  -0.46326  -0.46165  -0.45584  -0.45353
 Alpha  occ. eigenvalues --   -0.45177  -0.44882  -0.43587  -0.43182  -0.42382
 Alpha  occ. eigenvalues --   -0.42172  -0.41625  -0.40616  -0.39402  -0.38373
 Alpha  occ. eigenvalues --   -0.37746  -0.37373  -0.37272  -0.35677  -0.35590
 Alpha  occ. eigenvalues --   -0.34781  -0.34662  -0.32733  -0.32169  -0.31534
 Alpha  occ. eigenvalues --   -0.29360  -0.27496  -0.26869  -0.26767  -0.25761
 Alpha  occ. eigenvalues --   -0.25691  -0.25438  -0.22267  -0.18956
 Alpha virt. eigenvalues --   -0.03809  -0.02734  -0.02523  -0.01522  -0.01398
 Alpha virt. eigenvalues --   -0.01261   0.01052   0.02145   0.04268   0.04966
 Alpha virt. eigenvalues --    0.05118   0.05784   0.06367   0.07036   0.07436

 Mulliken charges:
               1
     1  P    0.171072
     2  P    0.146730
     3  C   -0.346163
     4  C    0.074918
     5  C   -0.166630
     6  C   -0.122362
     7  C   -0.110485
     8  C   -0.116755
     9  C   -0.205119
    10  C    0.006562
    11  C   -0.158009
    12  C   -0.105500
    13  C   -0.096989
    14  C   -0.103723
    15  C   -0.180700
    16  C    0.046411
    17  C   -0.144696
    18  C   -0.115894
    19  C   -0.102363
    20  C   -0.104929
    21  C   -0.190242
    22  C   -0.156998
    23  H    0.135197
    24  H    0.141266
    25  H    0.132019
    26  H    0.115497
    27  H    0.135321
    28  H    0.106014
    29  H    0.106168
    30  H    0.105548
    31  H    0.112145
    32  H    0.119396
    33  H    0.112385
    34  H    0.113479
    35  H    0.110931
    36  H    0.128253
    37  H    0.132252
    38  H    0.105343
    39  H    0.108101
    40  H    0.107844
    41  H    0.112635
    42  O   -0.453159
    43  H    0.295229
 Sum of Mulliken charges =  -0.00000

 Dipole moment (field-independent basis, Debye):
    X=             -0.5094    Y=             -2.1894    Z=              1.5025  Tot=              2.7037
 Quadrupole moment (field-independent basis, Debye-Ang):
   XX=           -140.9877   YY=           -130.2755   ZZ=           -155.3222
   XY=              4.6893   XZ=              0.2045   YZ=              0.6141

 Summary of Natural Population Analysis:

                                       Natural Population
                Natural  -----------------------------------------------
    Atom  No    Charge         Core      Valence    Rydberg      Total
 -----------------------------------------------------------------------
      P    1    0.82237      9.99816     4.14516    0.03431    14.17763
      P    2    0.77755      9.99852     4.18595    0.03799    14.22245
      C    3   -0.99230      1.99944     4.95926    0.03360     6.99230
      C    4   -0.31415      1.99899     4.28555    0.02962     6.31415
      C    5   -0.21288      1.99908     4.19368    0.02012     6.21288
      C    6   -0.19480      1.99919     4.17666    0.01896     6.19480
      C    7   -0.21768      1.99919     4.19878    0.01972     6.21768
      C    8   -0.19564      1.99918     4.17744    0.01901     6.19564
      C    9   -0.21334      1.99908     4.19422    0.02004     6.21334
      C   10   -0.33725      1.99902     4.30418    0.03405     6.33725
      C   11   -0.19288      1.99910     4.17260    0.02117     6.19288
      C   12   -0.20891      1.99918     4.19014    0.01959     6.20891
      C   13   -0.19656      1.99919     4.17833    0.01903     6.19656
      C   14   -0.20567      1.99919     4.18737    0.01911     6.20567
      C   15   -0.19089      1.99908     4.17145    0.02035     6.19089
      C   16   -0.33136      1.99901     4.30208    0.03028     6.33136
      C   17   -0.20072      1.99909     4.18088    0.02075     6.20072
      C   18   -0.20256      1.99919     4.18409    0.01929     6.20256
      C   19   -0.20443      1.99919     4.18575    0.01949     6.20443
      C   20   -0.20566      1.99918     4.18663    0.01985     6.20566
      C   21   -0.19931      1.99910     4.17954    0.02067     6.19931
      C   22   -0.35368      1.99933     4.32497    0.02937     6.35368
      H   23    0.25238      0.00000     0.74608    0.00154     0.74762
      H   24    0.25392      0.00000     0.74352    0.00256     0.74608
      H   25    0.19007      0.00000     0.80864    0.00129     0.80993
      H   26    0.18522      0.00000     0.81319    0.00159     0.81478
      H   27    0.21275      0.00000     0.78539    0.00186     0.78725
      H   28    0.20692      0.00000     0.79176    0.00133     0.79308
      H   29    0.20714      0.00000     0.79166    0.00121     0.79286
      H   30    0.20736      0.00000     0.79132    0.00132     0.79264
      H   31    0.20036      0.00000     0.79711    0.00254     0.79964
      H   32    0.21997      0.00000     0.77839    0.00164     0.78003
      H   33    0.21041      0.00000     0.78832    0.00127     0.78959
      H   34    0.20925      0.00000     0.78959    0.00117     0.79075
      H   35    0.20922      0.00000     0.78940    0.00138     0.79078
      H   36    0.21130      0.00000     0.78628    0.00242     0.78870
      H   37    0.22370      0.00000     0.77423    0.00207     0.77630
      H   38    0.20577      0.00000     0.79281    0.00142     0.79423
      H   39    0.20700      0.00000     0.79177    0.00123     0.79300
      H   40    0.20806      0.00000     0.79061    0.00133     0.79194
      H   41    0.21202      0.00000     0.78634    0.00164     0.78798
      O   42   -0.72020      1.99982     6.70602    0.01437     8.72020
      H   43    0.45813      0.00000     0.53729    0.00459     0.54187
 =======================================================================
   * Total *   -0.00000     61.97951   115.44438    0.57611   178.00000

 Normal termination of Gaussian 16 at Thu Jan 23 22:28:46 2025.
