 Gaussian 16, Revision B.01,
 Gaussian 16:  ES64L-G16RevB.01 20-Dec-2017

 --------------------------------------------
 # nmr=giao b3lyp/def2TZVP pop=nbo scfcyc=200
 --------------------------------------------

 --------------
 MB-54 SPE NoRh
 --------------
 Symbolic Z-matrix:
 Charge =  0 Multiplicity = 1

                         Standard orientation:
 ---------------------------------------------------------------------
 Center     Atomic      Atomic             Coordinates (Angstroms)
 Number     Number       Type             X           Y           Z
 ---------------------------------------------------------------------
      1          6           0        3.971299   -0.272302   -2.546636
      2          6           0        2.681574   -1.376981   -0.840941
      3          6           0        1.485174   -1.405001   -0.098875
      4          6           0        1.359541   -2.342988    0.924822
      5          6           0        2.383767   -3.237099    1.216817
      6          6           0        3.558224   -3.193266    0.479382
      7          6           0        3.713612   -2.266090   -0.545638
      8          6           0        1.703176    1.175687    3.337025
      9          6           0        1.258239    1.839805    1.067467
     10          6           0        0.796811    1.465938   -0.211176
     11          6           0        0.848764    2.400042   -1.245742
     12          6           0        1.348864    3.680155   -1.039423
     13          6           0        1.808087    4.032534    0.223113
     14          6           0        1.764146    3.123155    1.275128
     15          6           0       -1.272773   -0.459040    0.650825
     16          6           0       -3.696086    1.127475   -0.133710
     17          6           0       -2.902300    2.424788   -0.310810
     18          6           0       -5.013301    1.172490   -0.917104
     19          6           0       -3.764540   -1.866934   -0.245350
     20          6           0       -4.395644   -1.845713    1.151270
     21          6           0       -3.014792   -3.179430   -0.501936
     22          8           0        2.745334   -0.446346   -1.834064
     23          8           0        1.161549    0.898689    2.043566
     24         15           0       -2.665560   -0.376891   -0.598190
     25         15           0        0.144433   -0.219894   -0.551051
     26          1           0        3.802348    0.555688   -3.230377
     27          1           0        4.787328   -0.018153   -1.866939
     28          1           0        4.228793   -1.167667   -3.118181
     29          1           0        0.461696   -2.374401    1.524983
     30          1           0        2.264206   -3.954796    2.017614
     31          1           0        4.365162   -3.881485    0.697800
     32          1           0        4.635987   -2.244965   -1.108671
     33          1           0        1.554630    0.270090    3.917874
     34          1           0        2.770471    1.398373    3.276555
     35          1           0        1.178912    2.006011    3.817419
     36          1           0        0.485845    2.112282   -2.223408
     37          1           0        1.380131    4.391095   -1.853947
     38          1           0        2.203594    5.024411    0.400703
     39          1           0        2.123549    3.421992    2.249487
     40          1           0       -1.300909    0.280249    1.449053
     41          1           0       -1.250773   -1.447638    1.104665
     42          1           0       -3.922099    1.000299    0.928770
     43          1           0       -1.980487    2.438105    0.271639
     44          1           0       -2.638844    2.588913   -1.357677
     45          1           0       -3.510948    3.270578    0.016894
     46          1           0       -5.634715    0.291145   -0.755247
     47          1           0       -4.840089    1.274593   -1.990188
     48          1           0       -5.594537    2.041990   -0.600511
     49          1           0       -4.559515   -1.782907   -0.992796
     50          1           0       -5.026244   -0.972841    1.317262
     51          1           0       -3.636899   -1.870680    1.936085
     52          1           0       -5.023132   -2.730844    1.281509
     53          1           0       -2.547639   -3.200276   -1.486253
     54          1           0       -2.234321   -3.351501    0.242709
     55          1           0       -3.710722   -4.017973   -0.435286
 ---------------------------------------------------------------------

 SCF Done:  E(RB3LYP) =  -1651.83642701     A.U. after   16 cycles

      1  C    Isotropic =   127.1741   Anisotropy =    76.7768

      2  C    Isotropic =    16.4998   Anisotropy =   133.8399

      3  C    Isotropic =    46.0608   Anisotropy =   167.6924

      4  C    Isotropic =    48.4300   Anisotropy =   180.6092

      5  C    Isotropic =    59.9603   Anisotropy =   168.3043

      6  C    Isotropic =    51.6574   Anisotropy =   177.2590

      7  C    Isotropic =    71.6572   Anisotropy =   155.4265

      8  C    Isotropic =   127.0605   Anisotropy =    77.1000

      9  C    Isotropic =    12.7399   Anisotropy =   139.2655

     10  C    Isotropic =    50.1531   Anisotropy =   162.6970

     11  C    Isotropic =    37.3248   Anisotropy =   180.1552

     12  C    Isotropic =    59.9818   Anisotropy =   169.3941

     13  C    Isotropic =    46.8660   Anisotropy =   185.3627

     14  C    Isotropic =    71.4157   Anisotropy =   155.3708

     15  C    Isotropic =   169.0159   Anisotropy =    18.0907

     16  C    Isotropic =   153.0946   Anisotropy =    18.4882

     17  C    Isotropic =   162.3573   Anisotropy =    30.5119

     18  C    Isotropic =   164.5114   Anisotropy =    33.8314

     19  C    Isotropic =   150.4049   Anisotropy =    17.4073

     20  C    Isotropic =   166.5611   Anisotropy =    27.5107

     21  C    Isotropic =   162.1813   Anisotropy =    33.2559

     22  O    Isotropic =   213.8135   Anisotropy =   110.0086

     23  O    Isotropic =   209.4636   Anisotropy =    99.2225

     24  P    Isotropic =   225.9817   Anisotropy =    73.3400

     25  P    Isotropic =   258.6015   Anisotropy =   100.7690

     26  H    Isotropic =    28.2107   Anisotropy =     8.4232

     27  H    Isotropic =    28.8009   Anisotropy =     8.8831

     28  H    Isotropic =    28.3514   Anisotropy =     9.9972

     29  H    Isotropic =    24.0836   Anisotropy =    10.9612

     30  H    Isotropic =    24.8010   Anisotropy =     5.6447

     31  H    Isotropic =    24.6008   Anisotropy =     4.3027

     32  H    Isotropic =    25.2650   Anisotropy =     7.8879

     33  H    Isotropic =    28.1566   Anisotropy =     8.4005

     34  H    Isotropic =    28.7420   Anisotropy =     9.2494

     35  H    Isotropic =    28.3185   Anisotropy =     9.7095

     36  H    Isotropic =    23.6986   Anisotropy =     7.5211

     37  H    Isotropic =    24.7504   Anisotropy =     4.5509

     38  H    Isotropic =    24.3728   Anisotropy =     4.3425

     39  H    Isotropic =    25.2507   Anisotropy =     8.1237

     40  H    Isotropic =    30.2806   Anisotropy =     6.7477

     41  H    Isotropic =    29.7691   Anisotropy =     6.3342

     42  H    Isotropic =    30.1358   Anisotropy =     4.4256

     43  H    Isotropic =    31.7875   Anisotropy =    12.1586

     44  H    Isotropic =    31.4121   Anisotropy =     6.7055

     45  H    Isotropic =    31.2446   Anisotropy =     9.4910

     46  H    Isotropic =    30.9876   Anisotropy =     8.7105

     47  H    Isotropic =    31.2657   Anisotropy =     8.2582

     48  H    Isotropic =    31.0123   Anisotropy =    10.9656

     49  H    Isotropic =    30.2065   Anisotropy =     7.2050

     50  H    Isotropic =    30.5572   Anisotropy =     7.3453

     51  H    Isotropic =    31.1268   Anisotropy =     5.5964

     52  H    Isotropic =    30.9247   Anisotropy =    11.3914

     53  H    Isotropic =    30.5716   Anisotropy =     8.0831

     54  H    Isotropic =    31.0758   Anisotropy =     6.2216

     55  H    Isotropic =    30.7785   Anisotropy =    10.7124

 The electronic state is 1-A.
 Alpha  occ. eigenvalues --  -77.03714 -77.02486 -19.16130 -19.15334 -10.23721
 Alpha  occ. eigenvalues --  -10.23012 -10.22990 -10.22336 -10.17847 -10.17424
 Alpha  occ. eigenvalues --  -10.17370 -10.17359 -10.17356 -10.17197 -10.17145
 Alpha  occ. eigenvalues --  -10.16930 -10.16920 -10.16884 -10.16750 -10.16681
 Alpha  occ. eigenvalues --  -10.16176 -10.15814 -10.15773 -10.15757 -10.15399
 Alpha  occ. eigenvalues --   -6.52221  -6.51091  -4.68381  -4.68341  -4.67847
 Alpha  occ. eigenvalues --   -4.67258  -4.67180  -4.66717  -1.07052  -1.06190
 Alpha  occ. eigenvalues --   -0.85475  -0.84873  -0.79861  -0.77690  -0.76948
 Alpha  occ. eigenvalues --   -0.75548  -0.74997  -0.74443  -0.71916  -0.70053
 Alpha  occ. eigenvalues --   -0.69327  -0.68421  -0.68018  -0.63306  -0.61196
 Alpha  occ. eigenvalues --   -0.60498  -0.59490  -0.58800  -0.57700  -0.55538
 Alpha  occ. eigenvalues --   -0.53591  -0.51976  -0.51004  -0.48694  -0.48107
 Alpha  occ. eigenvalues --   -0.47838  -0.47612  -0.46885  -0.46788  -0.45939
 Alpha  occ. eigenvalues --   -0.45335  -0.44515  -0.44349  -0.43589  -0.42725
 Alpha  occ. eigenvalues --   -0.42339  -0.41676  -0.41409  -0.40444  -0.39688
 Alpha  occ. eigenvalues --   -0.39482  -0.39014  -0.38484  -0.38233  -0.38113
 Alpha  occ. eigenvalues --   -0.37873  -0.36530  -0.36155  -0.35406  -0.35327
 Alpha  occ. eigenvalues --   -0.34742  -0.34458  -0.34358  -0.33590  -0.33291
 Alpha  occ. eigenvalues --   -0.32815  -0.32124  -0.31640  -0.29572  -0.28676
 Alpha  occ. eigenvalues --   -0.26225  -0.25325  -0.22890  -0.22776  -0.20764
 Alpha  occ. eigenvalues --   -0.17452
 Alpha virt. eigenvalues --   -0.02614  -0.01186  -0.00097   0.00425   0.02336
 Alpha virt. eigenvalues --    0.02875   0.03692   0.04087   0.04288   0.04906
 Alpha virt. eigenvalues --    0.05623   0.06248   0.06456   0.07122   0.07389

 Mulliken charges:
               1
     1  C   -0.203324
     2  C    0.302120
     3  C    0.018376
     4  C   -0.152846
     5  C   -0.165114
     6  C   -0.105250
     7  C   -0.265989
     8  C   -0.204908
     9  C    0.338142
    10  C   -0.074308
    11  C   -0.108547
    12  C   -0.145299
    13  C   -0.086811
    14  C   -0.283635
    15  C   -0.356096
    16  C   -0.061534
    17  C   -0.358088
    18  C   -0.354860
    19  C   -0.091357
    20  C   -0.345851
    21  C   -0.341870
    22  O   -0.280458
    23  O   -0.289965
    24  P    0.149103
    25  P    0.163942
    26  H    0.134266
    27  H    0.118527
    28  H    0.120713
    29  H    0.096713
    30  H    0.096790
    31  H    0.102957
    32  H    0.111584
    33  H    0.135101
    34  H    0.124334
    35  H    0.120904
    36  H    0.110014
    37  H    0.103255
    38  H    0.107568
    39  H    0.113156
    40  H    0.127436
    41  H    0.096203
    42  H    0.071550
    43  H    0.130366
    44  H    0.106389
    45  H    0.103783
    46  H    0.114566
    47  H    0.112182
    48  H    0.107021
    49  H    0.082797
    50  H    0.116976
    51  H    0.104512
    52  H    0.101269
    53  H    0.128905
    54  H    0.097327
    55  H    0.107264
 Sum of Mulliken charges =  -0.00000

 Dipole moment (field-independent basis, Debye):
    X=              1.6744    Y=              1.1561    Z=              2.4696  Tot=              3.1999
 Quadrupole moment (field-independent basis, Debye-Ang):
   XX=           -154.1428   YY=           -163.1877   ZZ=           -159.0487
   XY=              2.9177   XZ=             -4.0204   YZ=             -0.6261

 Summary of Natural Population Analysis:

                                       Natural Population
                Natural  -----------------------------------------------
    Atom  No    Charge         Core      Valence    Rydberg      Total
 -----------------------------------------------------------------------
      C    1   -0.24668      1.99927     4.23375    0.01366     6.24668
      C    2    0.28847      1.99867     3.68872    0.02413     5.71153
      C    3   -0.34896      1.99889     4.31853    0.03154     6.34896
      C    4   -0.18626      1.99909     4.16788    0.01929     6.18626
      C    5   -0.23520      1.99917     4.21651    0.01952     6.23520
      C    6   -0.19457      1.99920     4.17532    0.02004     6.19457
      C    7   -0.29311      1.99906     4.27494    0.01912     6.29311
      C    8   -0.24713      1.99927     4.23501    0.01285     6.24713
      C    9    0.29602      1.99865     3.68099    0.02434     5.70398
      C   10   -0.36830      1.99889     4.33542    0.03399     6.36830
      C   11   -0.15980      1.99912     4.13955    0.02113     6.15980
      C   12   -0.24386      1.99917     4.22483    0.01986     6.24386
      C   13   -0.17621      1.99921     4.15761    0.01940     6.17621
      C   14   -0.30061      1.99906     4.28256    0.01900     6.30061
      C   15   -1.01929      1.99945     4.98780    0.03204     7.01929
      C   16   -0.47661      1.99945     4.45467    0.02249     6.47661
      C   17   -0.59383      1.99943     4.58224    0.01216     6.59383
      C   18   -0.59675      1.99943     4.58540    0.01192     6.59675
      C   19   -0.47448      1.99945     4.45127    0.02376     6.47448
      C   20   -0.60187      1.99943     4.59025    0.01218     6.60187
      C   21   -0.59405      1.99943     4.58304    0.01158     6.59405
      O   22   -0.45679      1.99976     6.43983    0.01721     8.45679
      O   23   -0.46476      1.99974     6.43907    0.02595     8.46476
      P   24    0.78463      9.99859     4.18327    0.03351    14.21537
      P   25    0.84601      9.99823     4.12210    0.03365    14.15399
      H   26    0.19483      0.00000     0.80381    0.00136     0.80517
      H   27    0.17115      0.00000     0.82649    0.00235     0.82885
      H   28    0.16984      0.00000     0.82783    0.00233     0.83016
      H   29    0.19681      0.00000     0.80057    0.00262     0.80319
      H   30    0.20519      0.00000     0.79356    0.00125     0.79481
      H   31    0.20527      0.00000     0.79351    0.00122     0.79473
      H   32    0.21093      0.00000     0.78738    0.00169     0.78907
      H   33    0.19539      0.00000     0.80327    0.00134     0.80461
      H   34    0.17445      0.00000     0.82325    0.00230     0.82555
      H   35    0.16927      0.00000     0.82841    0.00232     0.83073
      H   36    0.22032      0.00000     0.77807    0.00161     0.77968
      H   37    0.20921      0.00000     0.78962    0.00116     0.79079
      H   38    0.20657      0.00000     0.79221    0.00122     0.79343
      H   39    0.21031      0.00000     0.78791    0.00178     0.78969
      H   40    0.24710      0.00000     0.75054    0.00235     0.75290
      H   41    0.23971      0.00000     0.75783    0.00246     0.76029
      H   42    0.19100      0.00000     0.80540    0.00359     0.80900
      H   43    0.20855      0.00000     0.79013    0.00133     0.79145
      H   44    0.20475      0.00000     0.79346    0.00179     0.79525
      H   45    0.20091      0.00000     0.79743    0.00166     0.79909
      H   46    0.20147      0.00000     0.79707    0.00145     0.79853
      H   47    0.20461      0.00000     0.79344    0.00194     0.79539
      H   48    0.20338      0.00000     0.79501    0.00161     0.79662
      H   49    0.21558      0.00000     0.78273    0.00169     0.78442
      H   50    0.20177      0.00000     0.79689    0.00134     0.79823
      H   51    0.19522      0.00000     0.80309    0.00168     0.80478
      H   52    0.19804      0.00000     0.80001    0.00195     0.80196
      H   53    0.21692      0.00000     0.78175    0.00133     0.78308
      H   54    0.19279      0.00000     0.80565    0.00156     0.80721
      H   55    0.20262      0.00000     0.79579    0.00159     0.79738
 =======================================================================
   * Total *    0.00000     65.97910   135.43271    0.58819   202.00000

 Normal termination of Gaussian 16 at Thu Jan 23 22:49:04 2025.
