 Gaussian 16, Revision B.01,
 Gaussian 16:  ES64L-G16RevB.01 20-Dec-2017

 --------------------------------------------
 # nmr=giao b3lyp/def2TZVP pop=nbo scfcyc=200
 --------------------------------------------

 --------------
 MB-58 SPE NoRh
 --------------
 Symbolic Z-matrix:
 Charge =  0 Multiplicity = 1

                         Standard orientation:
 ---------------------------------------------------------------------
 Center     Atomic      Atomic             Coordinates (Angstroms)
 Number     Number       Type             X           Y           Z
 ---------------------------------------------------------------------
      1         15           0        0.030942   -0.835468   -0.419735
      2         15           0        0.074854    1.964838   -0.501254
      3          6           0       -2.727533   -1.590457    0.198252
      4          6           0       -3.274156   -2.240151   -0.913222
      5          1           0       -2.662156   -2.906122   -1.509066
      6          6           0       -4.609250   -2.068184   -1.256338
      7          1           0       -5.014868   -2.589608   -2.114606
      8          6           0       -5.430134   -1.241260   -0.494810
      9          1           0       -6.472175   -1.114163   -0.757559
     10          6           0       -4.904933   -0.596531    0.619193
     11          1           0       -5.538422    0.031783    1.233098
     12          6           0       -3.567765   -0.772633    0.960697
     13          1           0       -3.177684   -0.287219    1.849145
     14          6           0       -1.287177   -1.769770    0.607601
     15          1           0       -1.168841   -1.347176    1.608891
     16          6           0       -0.766597   -3.220778    0.652050
     17          1           0       -1.240478   -3.758516    1.474672
     18          1           0       -1.033303   -3.750287   -0.265984
     19          6           0        0.753501   -3.175629    0.799239
     20          1           0        1.199702   -4.169090    0.713326
     21          1           0        1.014650   -2.795506    1.789315
     22          6           0        1.306757   -2.252154   -0.301420
     23          1           0        1.182447   -2.766945   -1.257543
     24          6           0        2.748659   -1.823241   -0.193314
     25          6           0        3.345426   -1.509305    1.032486
     26          1           0        2.778379   -1.584174    1.952404
     27          6           0        4.678947   -1.119274    1.098343
     28          1           0        5.124356   -0.895601    2.060624
     29          6           0        5.442916   -1.031550   -0.060122
     30          1           0        6.483368   -0.736530   -0.006190
     31          6           0        4.864323   -1.340720   -1.285922
     32          1           0        5.453814   -1.291422   -2.193252
     33          6           0        3.531519   -1.732437   -1.349014
     34          1           0        3.097240   -1.988479   -2.308236
     35          6           0        0.614396    0.588139    0.643660
     36          1           0        1.704261    0.557954    0.690868
     37          1           0        0.221526    0.627310    1.660259
     38          6           0        2.004894    3.574857    0.944981
     39          1           0        1.294877    4.111022    1.573917
     40          1           0        2.888203    4.208490    0.836320
     41          1           0        2.318127    2.674843    1.474238
     42          6           0        1.022841    4.560737   -1.175167
     43          1           0        0.602648    4.371211   -2.164040
     44          1           0        1.899379    5.198786   -1.307591
     45          1           0        0.291528    5.132159   -0.602038
     46          6           0       -1.411850    3.278335    1.600530
     47          1           0       -0.800242    2.722278    2.312718
     48          1           0       -2.404437    3.393914    2.043823
     49          1           0       -0.987595    4.276971    1.494563
     50          6           0       -2.382691    3.390003   -0.742985
     51          1           0       -1.920913    4.349422   -0.981693
     52          1           0       -3.359225    3.600676   -0.300859
     53          1           0       -2.551274    2.846174   -1.671691
     54          6           0        1.431569    3.274564   -0.445677
     55          1           0        2.217882    2.786742   -1.030933
     56          6           0       -1.543622    2.571922    0.246689
     57          1           0       -2.067972    1.623660    0.403543
 ---------------------------------------------------------------------

 SCF Done:  E(RB3LYP) =  -1578.79668367     A.U. after   14 cycles

      1  P    Isotropic =   208.7254   Anisotropy =    82.3849

      2  P    Isotropic =   225.3810   Anisotropy =    86.7360

      3  C    Isotropic =    31.4861   Anisotropy =   202.4925

      4  C    Isotropic =    51.1912   Anisotropy =   183.4747

      5  H    Isotropic =    24.2543   Anisotropy =    10.9122

      6  C    Isotropic =    48.9574   Anisotropy =   185.0989

      7  H    Isotropic =    24.2720   Anisotropy =     5.5003

      8  C    Isotropic =    52.2884   Anisotropy =   181.7555

      9  H    Isotropic =    24.4869   Anisotropy =     4.2629

     10  C    Isotropic =    50.2844   Anisotropy =   181.8025

     11  H    Isotropic =    24.4478   Anisotropy =     5.8698

     12  C    Isotropic =    48.7737   Anisotropy =   156.1557

     13  H    Isotropic =    24.5907   Anisotropy =     8.0002

     14  C    Isotropic =   121.3487   Anisotropy =    22.1954

     15  H    Isotropic =    28.4528   Anisotropy =     5.0235

     16  C    Isotropic =   143.5667   Anisotropy =    32.9283

     17  H    Isotropic =    29.6321   Anisotropy =     8.6053

     18  H    Isotropic =    29.7988   Anisotropy =     8.3065

     19  C    Isotropic =   143.1634   Anisotropy =    26.6479

     20  H    Isotropic =    29.5860   Anisotropy =     9.4152

     21  H    Isotropic =    29.7200   Anisotropy =     6.7454

     22  C    Isotropic =   123.3384   Anisotropy =    23.3956

     23  H    Isotropic =    28.2964   Anisotropy =     7.5341

     24  C    Isotropic =    35.9254   Anisotropy =   197.8916

     25  C    Isotropic =    51.0680   Anisotropy =   184.8478

     26  H    Isotropic =    24.4502   Anisotropy =     9.9387

     27  C    Isotropic =    49.9748   Anisotropy =   183.8473

     28  H    Isotropic =    24.2175   Anisotropy =     5.7735

     29  C    Isotropic =    52.9639   Anisotropy =   181.3247

     30  H    Isotropic =    24.4939   Anisotropy =     4.0224

     31  C    Isotropic =    49.2987   Anisotropy =   184.0095

     32  H    Isotropic =    24.3452   Anisotropy =     4.9337

     33  C    Isotropic =    48.0126   Anisotropy =   162.0119

     34  H    Isotropic =    24.3603   Anisotropy =     8.6765

     35  C    Isotropic =   158.8978   Anisotropy =    24.0199

     36  H    Isotropic =    30.9032   Anisotropy =    11.0435

     37  H    Isotropic =    30.4968   Anisotropy =     4.1203

     38  C    Isotropic =   161.9884   Anisotropy =    27.6889

     39  H    Isotropic =    31.0216   Anisotropy =     5.3727

     40  H    Isotropic =    31.1111   Anisotropy =    10.5382

     41  H    Isotropic =    30.8178   Anisotropy =     5.6664

     42  C    Isotropic =   162.8868   Anisotropy =    28.7577

     43  H    Isotropic =    30.6694   Anisotropy =     7.6495

     44  H    Isotropic =    31.0278   Anisotropy =    10.7708

     45  H    Isotropic =    31.3141   Anisotropy =     6.2732

     46  C    Isotropic =   162.5642   Anisotropy =    23.8382

     47  H    Isotropic =    30.4388   Anisotropy =     4.4446

     48  H    Isotropic =    30.7314   Anisotropy =    10.1549

     49  H    Isotropic =    30.9840   Anisotropy =     6.6161

     50  C    Isotropic =   159.9359   Anisotropy =    34.2162

     51  H    Isotropic =    31.1194   Anisotropy =     7.4127

     52  H    Isotropic =    31.1252   Anisotropy =     9.4333

     53  H    Isotropic =    30.8659   Anisotropy =     7.0741

     54  C    Isotropic =   145.4991   Anisotropy =    18.0879

     55  H    Isotropic =    30.4790   Anisotropy =     6.3364

     56  C    Isotropic =   150.2835   Anisotropy =     9.2719

     57  H    Isotropic =    30.3359   Anisotropy =    11.6728

 The electronic state is 1-A.
 Alpha  occ. eigenvalues --  -77.04038 -77.02763 -10.18871 -10.18550 -10.18369
 Alpha  occ. eigenvalues --  -10.18365 -10.17798 -10.17703 -10.17694 -10.17639
 Alpha  occ. eigenvalues --  -10.17607 -10.17581 -10.17506 -10.17499 -10.17493
 Alpha  occ. eigenvalues --  -10.17490 -10.17477 -10.17432 -10.17377 -10.17237
 Alpha  occ. eigenvalues --  -10.17227 -10.16083 -10.16074 -10.15681 -10.15625
 Alpha  occ. eigenvalues --   -6.52573  -6.51362  -4.68707  -4.68690  -4.68199
 Alpha  occ. eigenvalues --   -4.67531  -4.67459  -4.66976  -0.86615  -0.86135
 Alpha  occ. eigenvalues --   -0.82710  -0.79925  -0.77940  -0.77829  -0.75269
 Alpha  occ. eigenvalues --   -0.75013  -0.74727  -0.73114  -0.69820  -0.68749
 Alpha  occ. eigenvalues --   -0.68137  -0.66473  -0.61905  -0.61611  -0.60856
 Alpha  occ. eigenvalues --   -0.60032  -0.59484  -0.58268  -0.56692  -0.53927
 Alpha  occ. eigenvalues --   -0.52002  -0.51561  -0.50326  -0.47393  -0.47070
 Alpha  occ. eigenvalues --   -0.46624  -0.45748  -0.45459  -0.45382  -0.44763
 Alpha  occ. eigenvalues --   -0.44284  -0.43459  -0.42743  -0.42624  -0.42299
 Alpha  occ. eigenvalues --   -0.41984  -0.41113  -0.40892  -0.40069  -0.39450
 Alpha  occ. eigenvalues --   -0.39387  -0.38605  -0.37899  -0.37578  -0.37353
 Alpha  occ. eigenvalues --   -0.36895  -0.35865  -0.35360  -0.34899  -0.34665
 Alpha  occ. eigenvalues --   -0.34511  -0.34284  -0.34100  -0.33796  -0.33679
 Alpha  occ. eigenvalues --   -0.33131  -0.32200  -0.29677  -0.28412  -0.26016
 Alpha  occ. eigenvalues --   -0.25747  -0.25381  -0.23842  -0.21982  -0.18018
 Alpha virt. eigenvalues --   -0.02270  -0.01853  -0.01536  -0.01119   0.01438
 Alpha virt. eigenvalues --    0.02204   0.02828   0.03183   0.03780   0.04931
 Alpha virt. eigenvalues --    0.05223   0.05449   0.06295   0.06506   0.07660

 Mulliken charges:
               1
     1  P    0.129382
     2  P    0.129833
     3  C    0.239081
     4  C   -0.217134
     5  H    0.096309
     6  C   -0.105713
     7  H    0.105980
     8  C   -0.117474
     9  H    0.106509
    10  C   -0.106451
    11  H    0.105085
    12  C   -0.221385
    13  H    0.113126
    14  C   -0.140147
    15  H    0.066554
    16  C   -0.162914
    17  H    0.104231
    18  H    0.092159
    19  C   -0.158370
    20  H    0.097604
    21  H    0.082971
    22  C   -0.081801
    23  H    0.077283
    24  C    0.155682
    25  C   -0.231504
    26  H    0.103196
    27  C   -0.090304
    28  H    0.107216
    29  C   -0.117982
    30  H    0.107706
    31  C   -0.110117
    32  H    0.107697
    33  C   -0.192241
    34  H    0.105487
    35  C   -0.391724
    36  H    0.151738
    37  H    0.106070
    38  C   -0.335530
    39  H    0.104714
    40  H    0.099575
    41  H    0.112456
    42  C   -0.365876
    43  H    0.127064
    44  H    0.112077
    45  H    0.101841
    46  C   -0.353949
    47  H    0.113361
    48  H    0.105715
    49  H    0.102725
    50  C   -0.339980
    51  H    0.106246
    52  H    0.102131
    53  H    0.125925
    54  C   -0.059994
    55  H    0.082104
    56  C   -0.056397
    57  H    0.070151
 Sum of Mulliken charges =  -0.00000

 Dipole moment (field-independent basis, Debye):
    X=              0.4809    Y=             -0.2417    Z=              1.6971  Tot=              1.7804
 Quadrupole moment (field-independent basis, Debye-Ang):
   XX=           -162.5773   YY=           -168.0212   ZZ=           -167.9317
   XY=              0.7212   XZ=             -0.7805   YZ=              4.1500

 Summary of Natural Population Analysis:

                                       Natural Population
                Natural  -----------------------------------------------
    Atom  No    Charge         Core      Valence    Rydberg      Total
 -----------------------------------------------------------------------
      P    1    0.78994      9.99863     4.18017    0.03127    14.21006
      P    2    0.78502      9.99859     4.18278    0.03361    14.21498
      C    3   -0.01821      1.99905     3.99596    0.02319     6.01821
      C    4   -0.20389      1.99906     4.18656    0.01826     6.20389
      H    5    0.20275      0.00000     0.79508    0.00217     0.79725
      C    6   -0.19393      1.99920     4.17609    0.01865     6.19393
      H    7    0.20708      0.00000     0.79166    0.00125     0.79292
      C    8   -0.21490      1.99919     4.19652    0.01919     6.21490
      H    9    0.20746      0.00000     0.79133    0.00121     0.79254
      C   10   -0.19897      1.99919     4.18113    0.01865     6.19897
      H   11    0.20684      0.00000     0.79190    0.00126     0.79316
      C   12   -0.21167      1.99908     4.19359    0.01899     6.21167
      H   13    0.20013      0.00000     0.79808    0.00179     0.79987
      C   14   -0.47824      1.99931     4.45340    0.02553     6.47824
      H   15    0.20739      0.00000     0.78906    0.00355     0.79261
      C   16   -0.38364      1.99939     4.36884    0.01541     6.38364
      H   17    0.21283      0.00000     0.78552    0.00165     0.78717
      H   18    0.19506      0.00000     0.80334    0.00160     0.80494
      C   19   -0.38239      1.99939     4.36785    0.01515     6.38239
      H   20    0.20803      0.00000     0.79002    0.00195     0.79197
      H   21    0.18903      0.00000     0.80932    0.00165     0.81097
      C   22   -0.47521      1.99931     4.45125    0.02465     6.47521
      H   23    0.21865      0.00000     0.77887    0.00248     0.78135
      C   24   -0.02210      1.99906     3.99839    0.02465     6.02210
      C   25   -0.22028      1.99907     4.20294    0.01827     6.22028
      H   26    0.20348      0.00000     0.79467    0.00185     0.79652
      C   27   -0.19808      1.99919     4.18016    0.01873     6.19808
      H   28    0.20712      0.00000     0.79160    0.00128     0.79288
      C   29   -0.21705      1.99918     4.19864    0.01923     6.21705
      H   30    0.20807      0.00000     0.79075    0.00118     0.79193
      C   31   -0.19628      1.99919     4.17798    0.01911     6.19628
      H   32    0.20850      0.00000     0.79027    0.00122     0.79150
      C   33   -0.20329      1.99910     4.18554    0.01864     6.20329
      H   34    0.20765      0.00000     0.79100    0.00135     0.79235
      C   35   -1.03508      1.99947     5.00473    0.03089     7.03508
      H   36    0.25746      0.00000     0.73992    0.00262     0.74254
      H   37    0.22764      0.00000     0.76939    0.00297     0.77236
      C   38   -0.59714      1.99943     4.58592    0.01180     6.59714
      H   39    0.19740      0.00000     0.80106    0.00155     0.80260
      H   40    0.19626      0.00000     0.80176    0.00198     0.80374
      H   41    0.20150      0.00000     0.79726    0.00124     0.79850
      C   42   -0.59467      1.99942     4.58358    0.01167     6.59467
      H   43    0.21299      0.00000     0.78546    0.00155     0.78701
      H   44    0.20312      0.00000     0.79519    0.00168     0.79688
      H   45    0.19413      0.00000     0.80402    0.00184     0.80587
      C   46   -0.59780      1.99943     4.58687    0.01150     6.59780
      H   47    0.19942      0.00000     0.79898    0.00160     0.80058
      H   48    0.19694      0.00000     0.80108    0.00198     0.80306
      H   49    0.19618      0.00000     0.80210    0.00172     0.80382
      C   50   -0.59199      1.99942     4.58088    0.01169     6.59199
      H   51    0.19685      0.00000     0.80174    0.00141     0.80315
      H   52    0.19968      0.00000     0.79869    0.00163     0.80032
      H   53    0.21720      0.00000     0.78142    0.00138     0.78280
      C   54   -0.47824      1.99943     4.45443    0.02437     6.47824
      H   55    0.21565      0.00000     0.78275    0.00160     0.78435
      C   56   -0.48252      1.99943     4.45952    0.02357     6.48252
      H   57    0.21813      0.00000     0.77945    0.00242     0.78187
 =======================================================================
   * Total *    0.00000     65.98024   133.45646    0.56330   200.00000

 Normal termination of Gaussian 16 at Thu Jan 23 23:11:46 2025.
