 Gaussian 16, Revision B.01,
 Gaussian 16:  ES64L-G16RevB.01 20-Dec-2017

 --------------------------------------------
 # nmr=giao b3lyp/def2TZVP pop=nbo scfcyc=200
 --------------------------------------------

 -------------
 MB-5 SPE NoRh
 -------------
 Symbolic Z-matrix:
 Charge =  0 Multiplicity = 1

                         Standard orientation:
 ---------------------------------------------------------------------
 Center     Atomic      Atomic             Coordinates (Angstroms)
 Number     Number       Type             X           Y           Z
 ---------------------------------------------------------------------
      1         15           0       -1.396814   -0.102770   -0.469409
      2         15           0        1.389680   -0.211780   -0.515968
      3          6           0        0.005218   -0.446891    0.721468
      4          1           0       -0.034917   -1.491144    1.035490
      5          1           0        0.047401    0.180243    1.612822
      6          6           0       -2.064174    1.575154   -0.014671
      7          1           0       -1.246747    2.279238   -0.185222
      8          1           0       -2.823195    1.815156   -0.763551
      9          6           0       -2.630942    1.724020    1.398712
     10          1           0       -2.952355    2.754075    1.560652
     11          1           0       -1.890202    1.491692    2.165506
     12          1           0       -3.497177    1.083603    1.562744
     13          6           0       -2.738879   -1.315902   -0.030621
     14          1           0       -2.330849   -2.305563   -0.250031
     15          1           0       -2.890845   -1.265761    1.050602
     16          6           0       -4.059484   -1.101102   -0.772637
     17          1           0       -4.773043   -1.876924   -0.491317
     18          1           0       -3.933748   -1.149941   -1.855675
     19          1           0       -4.513594   -0.139880   -0.530295
     20          6           0        2.643971   -1.546796   -0.191794
     21          1           0        2.133225   -2.487357   -0.415395
     22          1           0        3.421587   -1.435694   -0.951577
     23          6           0        3.253827   -1.576017    1.211243
     24          1           0        3.927357   -2.429685    1.303774
     25          1           0        2.490869   -1.676499    1.985565
     26          1           0        3.835565   -0.678623    1.423627
     27          6           0        2.200018    1.384246   -0.004819
     28          1           0        1.424703    2.151042   -0.059007
     29          1           0        2.481853    1.289883    1.046722
     30          6           0        3.404345    1.787500   -0.858217
     31          1           0        3.816685    2.730255   -0.497396
     32          1           0        3.127492    1.928876   -1.903934
     33          1           0        4.203551    1.046002   -0.815437
 ---------------------------------------------------------------------

 SCF Done:  E(RB3LYP) =  -1039.09667256     A.U. after   12 cycles

      1  P    Isotropic =   255.0924   Anisotropy =   109.0189

      2  P    Isotropic =   252.2929   Anisotropy =   116.8101

      3  C    Isotropic =   164.1411   Anisotropy =    30.7248

      4  H    Isotropic =    31.2845   Anisotropy =     6.3458

      5  H    Isotropic =    30.3625   Anisotropy =     4.3553

      6  C    Isotropic =   161.9993   Anisotropy =    21.3253

      7  H    Isotropic =    30.4931   Anisotropy =     7.4407

      8  H    Isotropic =    30.3068   Anisotropy =     7.9666

      9  C    Isotropic =   177.2772   Anisotropy =    13.1390

     10  H    Isotropic =    30.8483   Anisotropy =    11.6905

     11  H    Isotropic =    31.0921   Anisotropy =     6.8094

     12  H    Isotropic =    30.9731   Anisotropy =     7.7591

     13  C    Isotropic =   161.5913   Anisotropy =    32.7654

     14  H    Isotropic =    30.7102   Anisotropy =     7.2105

     15  H    Isotropic =    29.8873   Anisotropy =     5.1718

     16  C    Isotropic =   173.7671   Anisotropy =    20.3803

     17  H    Isotropic =    30.7561   Anisotropy =    11.4034

     18  H    Isotropic =    30.9791   Anisotropy =     8.9833

     19  H    Isotropic =    31.3389   Anisotropy =     7.6220

     20  C    Isotropic =   158.2679   Anisotropy =    24.4037

     21  H    Isotropic =    30.3417   Anisotropy =     7.0932

     22  H    Isotropic =    30.3918   Anisotropy =     7.5919

     23  C    Isotropic =   175.9599   Anisotropy =    14.6239

     24  H    Isotropic =    30.8260   Anisotropy =    11.7919

     25  H    Isotropic =    31.1718   Anisotropy =     6.6320

     26  H    Isotropic =    30.8505   Anisotropy =     7.1138

     27  C    Isotropic =   162.7498   Anisotropy =    34.8485

     28  H    Isotropic =    30.7896   Anisotropy =     7.9423

     29  H    Isotropic =    29.9017   Anisotropy =     4.9333

     30  C    Isotropic =   172.8933   Anisotropy =    21.7809

     31  H    Isotropic =    30.7352   Anisotropy =    11.1928

     32  H    Isotropic =    30.9345   Anisotropy =     9.0582

     33  H    Isotropic =    31.2578   Anisotropy =     8.1863

 The electronic state is 1-A.
 Alpha  occ. eigenvalues --  -77.03056 -77.03054 -10.17503 -10.17190 -10.17075
 Alpha  occ. eigenvalues --  -10.16945 -10.16819 -10.16448 -10.16413 -10.16405
 Alpha  occ. eigenvalues --  -10.16276  -6.51650  -6.51648  -4.67817  -4.67813
 Alpha  occ. eigenvalues --   -4.67754  -4.67754  -4.67262  -4.67258  -0.78806
 Alpha  occ. eigenvalues --   -0.77719  -0.75351  -0.75291  -0.72107  -0.64875
 Alpha  occ. eigenvalues --   -0.63111  -0.62263  -0.61910  -0.52279  -0.51781
 Alpha  occ. eigenvalues --   -0.46414  -0.46152  -0.45365  -0.44419  -0.43124
 Alpha  occ. eigenvalues --   -0.42299  -0.41840  -0.41593  -0.40214  -0.38569
 Alpha  occ. eigenvalues --   -0.38316  -0.37803  -0.37321  -0.36496  -0.35997
 Alpha  occ. eigenvalues --   -0.35661  -0.35282  -0.34527  -0.30792  -0.30452
 Alpha  occ. eigenvalues --   -0.29500  -0.21705  -0.17762
 Alpha virt. eigenvalues --    0.01849   0.02110   0.02927   0.03450   0.05071
 Alpha virt. eigenvalues --    0.05851   0.06423   0.07025   0.07445   0.08020
 Alpha virt. eigenvalues --    0.08993   0.09178   0.09818   0.10113   0.10405

 Mulliken charges:
               1
     1  P    0.176730
     2  P    0.180004
     3  C   -0.370077
     4  H    0.121238
     5  H    0.111743
     6  C   -0.277909
     7  H    0.111441
     8  H    0.118572
     9  C   -0.330595
    10  H    0.108788
    11  H    0.103341
    12  H    0.110792
    13  C   -0.248252
    14  H    0.104372
    15  H    0.100297
    16  C   -0.344934
    17  H    0.113709
    18  H    0.115377
    19  H    0.108910
    20  C   -0.277604
    21  H    0.110539
    22  H    0.116152
    23  C   -0.330552
    24  H    0.107812
    25  H    0.106766
    26  H    0.110102
    27  C   -0.262795
    28  H    0.106065
    29  H    0.101680
    30  C   -0.338722
    31  H    0.111914
    32  H    0.115780
    33  H    0.109318
 Sum of Mulliken charges =  -0.00000

 Dipole moment (field-independent basis, Debye):
    X=              0.0354    Y=              0.1007    Z=              2.0215  Tot=              2.0243
 Quadrupole moment (field-independent basis, Debye-Ang):
   XX=            -84.5307   YY=            -84.7963   ZZ=            -94.0462
   XY=             -0.0658   XZ=             -0.1935   YZ=             -0.5537

 Summary of Natural Population Analysis:

                                       Natural Population
                Natural  -----------------------------------------------
    Atom  No    Charge         Core      Valence    Rydberg      Total
 -----------------------------------------------------------------------
      P    1    0.78590      9.99876     4.17668    0.03865    14.21410
      P    2    0.78665      9.99875     4.17625    0.03835    14.21335
      C    3   -1.02372      1.99947     4.99203    0.03223     7.02372
      H    4    0.24439      0.00000     0.75385    0.00176     0.75561
      H    5    0.23089      0.00000     0.76612    0.00298     0.76911
      C    6   -0.68797      1.99944     4.66672    0.02181     6.68797
      H    7    0.21781      0.00000     0.78059    0.00160     0.78219
      H    8    0.22261      0.00000     0.77613    0.00126     0.77739
      C    9   -0.60005      1.99947     4.59190    0.00867     6.60005
      H   10    0.20162      0.00000     0.79656    0.00182     0.79838
      H   11    0.19561      0.00000     0.80255    0.00185     0.80439
      H   12    0.19804      0.00000     0.80035    0.00161     0.80196
      C   13   -0.68584      1.99945     4.66536    0.02103     6.68584
      H   14    0.21699      0.00000     0.78170    0.00131     0.78301
      H   15    0.19614      0.00000     0.80071    0.00315     0.80386
      C   16   -0.59450      1.99946     4.58609    0.00895     6.59450
      H   17    0.20575      0.00000     0.79279    0.00146     0.79425
      H   18    0.20571      0.00000     0.79217    0.00212     0.79429
      H   19    0.19648      0.00000     0.80190    0.00162     0.80352
      C   20   -0.68812      1.99945     4.66726    0.02141     6.68812
      H   21    0.21826      0.00000     0.78049    0.00125     0.78174
      H   22    0.22110      0.00000     0.77760    0.00130     0.77890
      C   23   -0.60027      1.99947     4.59231    0.00849     6.60027
      H   24    0.20062      0.00000     0.79750    0.00188     0.79938
      H   25    0.19685      0.00000     0.80156    0.00159     0.80315
      H   26    0.19687      0.00000     0.80157    0.00156     0.80313
      C   27   -0.68464      1.99945     4.66345    0.02174     6.68464
      H   28    0.21557      0.00000     0.78273    0.00170     0.78443
      H   29    0.19607      0.00000     0.80036    0.00357     0.80393
      C   30   -0.59380      1.99946     4.58537    0.00897     6.59380
      H   31    0.20496      0.00000     0.79358    0.00147     0.79504
      H   32    0.20692      0.00000     0.79104    0.00204     0.79308
      H   33    0.19709      0.00000     0.80129    0.00162     0.80291
 =======================================================================
   * Total *    0.00000     37.99264    67.73656    0.27080   106.00000

 Normal termination of Gaussian 16 at Thu Jan 23 19:21:01 2025.
