 Gaussian 16, Revision B.01,
 Gaussian 16:  ES64L-G16RevB.01 20-Dec-2017

 --------------------------------------------
 # nmr=giao b3lyp/def2TZVP pop=nbo scfcyc=200
 --------------------------------------------

 -----------------
 Ligand 7 SPE NoRh
 -----------------
 Symbolic Z-matrix:
 Charge =  0 Multiplicity = 1

                         Standard orientation:
 ---------------------------------------------------------------------
 Center     Atomic      Atomic             Coordinates (Angstroms)
 Number     Number       Type             X           Y           Z
 ---------------------------------------------------------------------
      1         15           0       -1.187453    0.864282   -0.696224
      2         15           0        1.154112   -0.695377   -0.722685
      3          6           0       -2.933716    0.324168   -0.209817
      4          6           0       -3.066652   -1.201717   -0.424616
      5          1           0       -2.831906   -1.456900   -1.462176
      6          1           0       -2.352555   -1.738337    0.208077
      7          6           0        0.009324    0.100337    0.530067
      8          1           0        0.503996    0.861969    1.132030
      9          1           0       -0.446285   -0.621892    1.205891
     10          6           0       -5.501299   -0.935858   -0.985283
     11          1           0       -6.518411   -1.272070   -0.762256
     12          1           0       -5.310590   -1.181464   -2.034242
     13          6           0       -3.960668    1.049104   -1.113141
     14          1           0       -3.756012    0.842829   -2.167058
     15          1           0       -3.892460    2.132408   -0.975734
     16          6           0       -4.495331   -1.662132   -0.075970
     17          1           0       -4.565596   -2.741278   -0.235183
     18          6           0       -5.388336    0.581594   -0.762871
     19          1           0       -6.095460    1.105088   -1.412301
     20          6           0       -4.680151    0.185839    1.612752
     21          1           0       -4.881861    0.427544    2.659528
     22          6           0        0.944704   -2.511466   -0.432957
     23          1           0       -0.098447   -2.770700   -0.604342
     24          1           0        1.223463   -2.791421    0.582952
     25          1           0        1.553575   -3.074287   -1.139274
     26          6           0       -5.689111    0.913895    0.707546
     27          1           0       -6.707183    0.608154    0.960232
     28          1           0       -5.633835    1.994757    0.871894
     29          6           0       -4.793099   -1.331931    1.396331
     30          1           0       -5.797101   -1.674401    1.662054
     31          1           0       -4.094952   -1.861797    2.052455
     32          6           0       -3.250472    0.654085    1.267523
     33          1           0       -3.171156    1.730183    1.446579
     34          1           0       -2.535338    0.162705    1.934659
     35          6           0        2.930899   -0.281572   -0.224472
     36          6           0        3.911515   -1.064776   -1.130666
     37          6           0        3.212865   -0.649960    1.250390
     38          6           0        3.169850    1.235081   -0.419001
     39          1           0        3.766935   -2.141961   -1.007193
     40          1           0        3.727714   -0.832798   -2.184405
     41          6           0        5.365027   -0.701234   -0.766502
     42          1           0        3.057379   -1.719395    1.416361
     43          1           0        2.529931   -0.117211    1.918244
     44          6           0        4.669368   -0.288200    1.610446
     45          6           0        4.625370    1.589637   -0.055319
     46          1           0        2.488785    1.812731    0.214178
     47          1           0        2.961039    1.518165   -1.454945
     48          6           0        5.630982   -1.073316    0.702195
     49          1           0        6.039032   -1.263905   -1.417896
     50          6           0        5.584972    0.806729   -0.967454
     51          1           0        4.846185   -0.555764    2.655305
     52          6           0        4.889324    1.221495    1.414594
     53          1           0        4.770903    2.662943   -0.200030
     54          1           0        6.666384   -0.841984    0.965250
     55          1           0        5.499462   -2.149814    0.850708
     56          1           0        6.620270    1.068662   -0.733818
     57          1           0        5.419146    1.078405   -2.014124
     58          1           0        5.912717    1.489233    1.689624
     59          1           0        4.225330    1.789797    2.073271
     60          6           0       -1.091495    2.680461   -0.347768
     61          1           0       -1.743716    3.227623   -1.027122
     62          1           0       -1.374234    2.907058    0.680383
     63          1           0       -0.068254    3.011980   -0.519988
 ---------------------------------------------------------------------

 SCF Done:  E(RB3LYP) =  -1582.43256070     A.U. after   20 cycles

      1  P    Isotropic =   242.9727   Anisotropy =    93.6552

      2  P    Isotropic =   243.2805   Anisotropy =    92.6633

      3  C    Isotropic =   143.3382   Anisotropy =    18.9847

      4  C    Isotropic =   138.7796   Anisotropy =    10.4735

      5  H    Isotropic =    30.1643   Anisotropy =     5.8282

      6  H    Isotropic =    30.3818   Anisotropy =     8.1076

      7  C    Isotropic =   167.2546   Anisotropy =    19.4838

      8  H    Isotropic =    31.0582   Anisotropy =     7.0404

      9  H    Isotropic =    30.9670   Anisotropy =     6.7548

     10  C    Isotropic =   141.9490   Anisotropy =     5.6499

     11  H    Isotropic =    30.1336   Anisotropy =     9.3694

     12  H    Isotropic =    30.1134   Anisotropy =     8.5498

     13  C    Isotropic =   140.9794   Anisotropy =     8.7245

     14  H    Isotropic =    30.2706   Anisotropy =     6.2027

     15  H    Isotropic =    30.4479   Anisotropy =     5.9818

     16  C    Isotropic =   148.5403   Anisotropy =     8.9166

     17  H    Isotropic =    30.0209   Anisotropy =     9.8609

     18  C    Isotropic =   148.2306   Anisotropy =     9.2792

     19  H    Isotropic =    30.0462   Anisotropy =    10.6790

     20  C    Isotropic =   148.3155   Anisotropy =     8.1178

     21  H    Isotropic =    30.0869   Anisotropy =    10.0856

     22  C    Isotropic =   178.7241   Anisotropy =    17.2562

     23  H    Isotropic =    30.9071   Anisotropy =     9.3118

     24  H    Isotropic =    30.8561   Anisotropy =     7.3398

     25  H    Isotropic =    31.2935   Anisotropy =    10.0455

     26  C    Isotropic =   141.8347   Anisotropy =     6.6252

     27  H    Isotropic =    30.1867   Anisotropy =     9.3201

     28  H    Isotropic =    30.2599   Anisotropy =     8.5428

     29  C    Isotropic =   141.7230   Anisotropy =     7.1031

     30  H    Isotropic =    30.1282   Anisotropy =     9.1691

     31  H    Isotropic =    30.2062   Anisotropy =     7.6390

     32  C    Isotropic =   141.5309   Anisotropy =    10.2164

     33  H    Isotropic =    30.0114   Anisotropy =     5.4377

     34  H    Isotropic =    30.2498   Anisotropy =     6.1143

     35  C    Isotropic =   142.9651   Anisotropy =    19.6073

     36  C    Isotropic =   141.1277   Anisotropy =     8.5430

     37  C    Isotropic =   141.5020   Anisotropy =    10.3717

     38  C    Isotropic =   138.5698   Anisotropy =    11.8565

     39  H    Isotropic =    30.4713   Anisotropy =     5.9206

     40  H    Isotropic =    30.2627   Anisotropy =     6.1876

     41  C    Isotropic =   148.5871   Anisotropy =     9.2157

     42  H    Isotropic =    30.0266   Anisotropy =     5.4127

     43  H    Isotropic =    30.2798   Anisotropy =     6.2214

     44  C    Isotropic =   148.5658   Anisotropy =     8.3928

     45  C    Isotropic =   148.6116   Anisotropy =     8.9616

     46  H    Isotropic =    30.3689   Anisotropy =     7.4483

     47  H    Isotropic =    30.1682   Anisotropy =     5.8689

     48  C    Isotropic =   141.8010   Anisotropy =     6.5929

     49  H    Isotropic =    30.0581   Anisotropy =    10.6398

     50  C    Isotropic =   142.2013   Anisotropy =     5.6477

     51  H    Isotropic =    30.0978   Anisotropy =    10.0404

     52  C    Isotropic =   141.8564   Anisotropy =     7.0439

     53  H    Isotropic =    30.0348   Anisotropy =     9.9592

     54  H    Isotropic =    30.1842   Anisotropy =     9.2970

     55  H    Isotropic =    30.2670   Anisotropy =     8.4824

     56  H    Isotropic =    30.1637   Anisotropy =     9.3721

     57  H    Isotropic =    30.1350   Anisotropy =     8.5781

     58  H    Isotropic =    30.1494   Anisotropy =     9.1701

     59  H    Isotropic =    30.2315   Anisotropy =     7.6909

     60  C    Isotropic =   177.8473   Anisotropy =    18.8369

     61  H    Isotropic =    31.2845   Anisotropy =    10.0704

     62  H    Isotropic =    30.7713   Anisotropy =     7.4366

     63  H    Isotropic =    30.9617   Anisotropy =     8.7487

 The electronic state is 1-A.
 Alpha  occ. eigenvalues --  -77.02962 -77.02913 -10.17822 -10.17746 -10.17238
 Alpha  occ. eigenvalues --  -10.16899 -10.16858 -10.16850 -10.16819 -10.16733
 Alpha  occ. eigenvalues --  -10.16694 -10.16353 -10.16305 -10.16269 -10.16254
 Alpha  occ. eigenvalues --  -10.16250 -10.16243 -10.16156 -10.16100 -10.16010
 Alpha  occ. eigenvalues --  -10.15972 -10.15962 -10.15948 -10.15929 -10.15920
 Alpha  occ. eigenvalues --   -6.51549  -6.51502  -4.67715  -4.67667  -4.67650
 Alpha  occ. eigenvalues --   -4.67604  -4.67163  -4.67117  -0.87033  -0.86984
 Alpha  occ. eigenvalues --   -0.78096  -0.77315  -0.76882  -0.76837  -0.76785
 Alpha  occ. eigenvalues --   -0.76756  -0.73710  -0.71371  -0.68659  -0.66759
 Alpha  occ. eigenvalues --   -0.66757  -0.66719  -0.66627  -0.59586  -0.58797
 Alpha  occ. eigenvalues --   -0.58359  -0.58337  -0.58285  -0.58137  -0.53439
 Alpha  occ. eigenvalues --   -0.52789  -0.51138  -0.50941  -0.45695  -0.45346
 Alpha  occ. eigenvalues --   -0.45342  -0.45271  -0.45268  -0.45205  -0.44583
 Alpha  occ. eigenvalues --   -0.44387  -0.43082  -0.42183  -0.41831  -0.41795
 Alpha  occ. eigenvalues --   -0.41437  -0.40878  -0.40848  -0.40488  -0.40455
 Alpha  occ. eigenvalues --   -0.40373  -0.39757  -0.39213  -0.39136  -0.39086
 Alpha  occ. eigenvalues --   -0.38569  -0.38098  -0.35526  -0.34989  -0.33457
 Alpha  occ. eigenvalues --   -0.33198  -0.33155  -0.33101  -0.32928  -0.32856
 Alpha  occ. eigenvalues --   -0.32803  -0.32728  -0.32703  -0.32593  -0.30619
 Alpha  occ. eigenvalues --   -0.28434  -0.28395  -0.28336  -0.28246  -0.27287
 Alpha  occ. eigenvalues --   -0.26806  -0.21325  -0.17533
 Alpha virt. eigenvalues --    0.01385   0.01763   0.02146   0.03925   0.04044
 Alpha virt. eigenvalues --    0.04987   0.05522   0.05814   0.05879   0.06252
 Alpha virt. eigenvalues --    0.06703   0.07162   0.07238   0.07423   0.07832

 Mulliken charges:
               1
     1  P    0.140327
     2  P    0.137707
     3  C    0.279390
     4  C   -0.363867
     5  H    0.105650
     6  H    0.082633
     7  C   -0.383936
     8  H    0.117313
     9  H    0.114542
    10  C   -0.254631
    11  H    0.083026
    12  H    0.083809
    13  C   -0.341332
    14  H    0.098973
    15  H    0.093904
    16  C    0.120888
    17  H    0.054107
    18  C    0.099080
    19  H    0.054377
    20  C    0.112305
    21  H    0.050761
    22  C   -0.464018
    23  H    0.140940
    24  H    0.111963
    25  H    0.130265
    26  C   -0.251610
    27  H    0.083387
    28  H    0.079431
    29  C   -0.253119
    30  H    0.083306
    31  H    0.077814
    32  C   -0.340896
    33  H    0.092007
    34  H    0.088335
    35  C    0.271998
    36  C   -0.344157
    37  C   -0.339431
    38  C   -0.350502
    39  H    0.094616
    40  H    0.098774
    41  C    0.102547
    42  H    0.091486
    43  H    0.088840
    44  C    0.113255
    45  C    0.117366
    46  H    0.082584
    47  H    0.103695
    48  C   -0.252866
    49  H    0.054110
    50  C   -0.254941
    51  H    0.050507
    52  C   -0.253058
    53  H    0.053929
    54  H    0.083137
    55  H    0.079402
    56  H    0.083142
    57  H    0.083615
    58  H    0.083282
    59  H    0.077634
    60  C   -0.460564
    61  H    0.130065
    62  H    0.112448
    63  H    0.136257
 Sum of Mulliken charges =  -0.00000

 Dipole moment (field-independent basis, Debye):
    X=             -0.0443    Y=             -0.0579    Z=              1.8536  Tot=              1.8550
 Quadrupole moment (field-independent basis, Debye-Ang):
   XX=           -166.7621   YY=           -170.1387   ZZ=           -178.1015
   XY=             -0.2717   XZ=              0.0043   YZ=              0.3599

 Summary of Natural Population Analysis:

                                       Natural Population
                Natural  -----------------------------------------------
    Atom  No    Charge         Core      Valence    Rydberg      Total
 -----------------------------------------------------------------------
      P    1    0.82154      9.99849     4.14368    0.03629    14.17846
      P    2    0.82220      9.99849     4.14297    0.03633    14.17780
      C    3   -0.26862      1.99940     4.23884    0.03038     6.26862
      C    4   -0.40711      1.99930     4.39212    0.01569     6.40711
      H    5    0.20820      0.00000     0.78948    0.00232     0.79180
      H    6    0.19277      0.00000     0.80466    0.00256     0.80723
      C    7   -1.03212      1.99946     5.00097    0.03169     7.03212
      H    8    0.24048      0.00000     0.75700    0.00252     0.75952
      H    9    0.23779      0.00000     0.75949    0.00272     0.76221
      C   10   -0.38852      1.99936     4.37493    0.01423     6.38852
      H   11    0.19799      0.00000     0.80026    0.00175     0.80201
      H   12    0.19983      0.00000     0.79865    0.00152     0.80017
      C   13   -0.40580      1.99929     4.39048    0.01602     6.40580
      H   14    0.20673      0.00000     0.79082    0.00245     0.79327
      H   15    0.19659      0.00000     0.80116    0.00225     0.80341
      C   16   -0.20469      1.99939     4.18886    0.01644     6.20469
      H   17    0.20031      0.00000     0.79811    0.00159     0.79969
      C   18   -0.20595      1.99939     4.18949    0.01706     6.20595
      H   19    0.20458      0.00000     0.79358    0.00184     0.79542
      C   20   -0.20632      1.99939     4.19041    0.01651     6.20632
      H   21    0.19797      0.00000     0.80036    0.00167     0.80203
      C   22   -0.92113      1.99944     4.90269    0.01899     6.92113
      H   23    0.22996      0.00000     0.76896    0.00108     0.77004
      H   24    0.20320      0.00000     0.79361    0.00319     0.79680
      H   25    0.22864      0.00000     0.77032    0.00104     0.77136
      C   26   -0.38868      1.99936     4.37511    0.01421     6.38868
      H   27    0.19822      0.00000     0.80003    0.00175     0.80178
      H   28    0.19744      0.00000     0.80102    0.00154     0.80256
      C   29   -0.38825      1.99936     4.37494    0.01394     6.38825
      H   30    0.19858      0.00000     0.79967    0.00175     0.80142
      H   31    0.19667      0.00000     0.80177    0.00156     0.80333
      C   32   -0.40602      1.99930     4.39122    0.01550     6.40602
      H   33    0.19448      0.00000     0.80263    0.00289     0.80552
      H   34    0.19457      0.00000     0.80281    0.00262     0.80543
      C   35   -0.26941      1.99940     4.23956    0.03045     6.26941
      C   36   -0.40579      1.99929     4.39046    0.01603     6.40579
      C   37   -0.40612      1.99930     4.39131    0.01552     6.40612
      C   38   -0.40642      1.99930     4.39098    0.01614     6.40642
      H   39    0.19664      0.00000     0.80111    0.00226     0.80336
      H   40    0.20646      0.00000     0.79109    0.00245     0.79354
      C   41   -0.20598      1.99939     4.18937    0.01721     6.20598
      H   42    0.19401      0.00000     0.80307    0.00292     0.80599
      H   43    0.19481      0.00000     0.80263    0.00256     0.80519
      C   44   -0.20632      1.99939     4.19026    0.01667     6.20632
      C   45   -0.20693      1.99939     4.19026    0.01727     6.20693
      H   46    0.19199      0.00000     0.80533    0.00268     0.80801
      H   47    0.20813      0.00000     0.78953    0.00234     0.79187
      C   48   -0.38862      1.99936     4.37503    0.01423     6.38862
      H   49    0.20446      0.00000     0.79371    0.00183     0.79554
      C   50   -0.38898      1.99936     4.37503    0.01459     6.38898
      H   51    0.19781      0.00000     0.80053    0.00166     0.80219
      C   52   -0.38856      1.99936     4.37494    0.01426     6.38856
      H   53    0.20425      0.00000     0.79393    0.00182     0.79575
      H   54    0.19811      0.00000     0.80013    0.00175     0.80189
      H   55    0.19737      0.00000     0.80108    0.00155     0.80263
      H   56    0.19797      0.00000     0.80027    0.00176     0.80203
      H   57    0.19978      0.00000     0.79870    0.00152     0.80022
      H   58    0.19838      0.00000     0.79986    0.00176     0.80162
      H   59    0.19661      0.00000     0.80182    0.00157     0.80339
      C   60   -0.92045      1.99945     4.90216    0.01885     6.92045
      H   61    0.22837      0.00000     0.77058    0.00105     0.77163
      H   62    0.20334      0.00000     0.79353    0.00313     0.79666
      H   63    0.22956      0.00000     0.76941    0.00103     0.77044
 =======================================================================
   * Total *    0.00000     65.98245   139.45679    0.56077   206.00000

 Normal termination of Gaussian 16 at Wed Nov  6 22:22:37 2024.
