 Gaussian 16, Revision B.01,
 Gaussian 16:  ES64L-G16RevB.01 20-Dec-2017

 --------------------------------------------
 # nmr=giao b3lyp/def2TZVP pop=nbo scfcyc=200
 --------------------------------------------

 --------------
 MB-65 SPE NoRh
 --------------
 Symbolic Z-matrix:
 Charge =  0 Multiplicity = 1

                         Standard orientation:
 ---------------------------------------------------------------------
 Center     Atomic      Atomic             Coordinates (Angstroms)
 Number     Number       Type             X           Y           Z
 ---------------------------------------------------------------------
      1         15           0        1.227774   -0.307803   -0.370043
      2          8           0        1.633902    1.260881   -0.143594
      3          8           0        2.466919   -1.178393    0.271679
      4          6           0       -0.099149   -0.732454    0.864207
      5          1           0        0.029940   -1.775751    1.160328
      6          1           0       -0.188467   -0.093602    1.742708
      7          6           0        2.104792    1.824922    1.086697
      8          1           0        2.248301    1.074192    1.864973
      9          1           0        1.393640    2.580787    1.418877
     10          6           0        3.446781    2.500860    0.832576
     11          6           0        3.723398   -1.410122   -0.370389
     12          1           0        4.516342   -1.019103    0.264624
     13          1           0        3.790096   -0.937684   -1.351633
     14          6           0        3.924909   -2.911596   -0.535720
     15          9           0        3.891707    3.045058    1.975367
     16          9           0        4.368323    1.603335    0.409634
     17          9           0        3.360328    3.459624   -0.094288
     18          9           0        3.893157   -3.553860    0.635703
     19          9           0        5.110058   -3.137917   -1.121072
     20          9           0        2.961663   -3.448287   -1.322572
     21         15           0       -1.446825   -0.566537   -0.398426
     22          8           0       -2.547148   -1.762839   -0.217413
     23          8           0       -2.167749    0.780019    0.226632
     24          6           0       -3.334951   -1.988266    0.958862
     25          1           0       -3.137188   -1.257153    1.742867
     26          1           0       -3.131511   -2.994388    1.324811
     27          6           0       -4.810982   -1.897250    0.587513
     28          6           0       -3.054010    1.639834   -0.492306
     29          1           0       -3.892626    1.874014    0.160392
     30          1           0       -3.433284    1.187222   -1.408398
     31          6           0       -2.340926    2.939369   -0.849621
     32          9           0       -5.558778   -2.119415    1.676548
     33          9           0       -5.114345   -0.666269    0.112517
     34          9           0       -5.145892   -2.787836   -0.353644
     35          9           0       -1.851800    3.555286    0.235882
     36          9           0       -3.202595    3.765757   -1.460778
     37          9           0       -1.306941    2.716463   -1.691283
 ---------------------------------------------------------------------

 SCF Done:  E(RB3LYP) =  -2531.62795554     A.U. after   13 cycles

      1  P    Isotropic =    72.5874   Anisotropy =   260.4728

      2  O    Isotropic =   239.9297   Anisotropy =    85.2000

      3  O    Isotropic =   224.7117   Anisotropy =   130.2503

      4  C    Isotropic =   137.2519   Anisotropy =    27.1130

      5  H    Isotropic =    30.1317   Anisotropy =     4.5840

      6  H    Isotropic =    29.4034   Anisotropy =     2.4820

      7  C    Isotropic =   116.9872   Anisotropy =    49.3176

      8  H    Isotropic =    27.7755   Anisotropy =     4.7024

      9  H    Isotropic =    27.9690   Anisotropy =     4.8356

     10  C    Isotropic =    45.7231   Anisotropy =     8.5669

     11  C    Isotropic =   111.1031   Anisotropy =    55.5210

     12  H    Isotropic =    27.7251   Anisotropy =     4.8592

     13  H    Isotropic =    27.8158   Anisotropy =     4.5616

     14  C    Isotropic =    46.1512   Anisotropy =     7.8045

     15  F    Isotropic =   255.5897   Anisotropy =   127.5266

     16  F    Isotropic =   255.0963   Anisotropy =   139.7373

     17  F    Isotropic =   255.7704   Anisotropy =   127.7057

     18  F    Isotropic =   258.5143   Anisotropy =   125.6047

     19  F    Isotropic =   257.4651   Anisotropy =   126.2655

     20  F    Isotropic =   254.0889   Anisotropy =   146.3500

     21  P    Isotropic =    70.9683   Anisotropy =   258.1007

     22  O    Isotropic =   234.0754   Anisotropy =    97.7786

     23  O    Isotropic =   227.6887   Anisotropy =   106.8502

     24  C    Isotropic =   116.5636   Anisotropy =    50.4577

     25  H    Isotropic =    27.7550   Anisotropy =     5.0393

     26  H    Isotropic =    27.9784   Anisotropy =     6.0718

     27  C    Isotropic =    45.8711   Anisotropy =     9.2041

     28  C    Isotropic =   110.6546   Anisotropy =    55.3423

     29  H    Isotropic =    27.7813   Anisotropy =     5.4088

     30  H    Isotropic =    27.7895   Anisotropy =     4.2411

     31  C    Isotropic =    46.0431   Anisotropy =     7.3835

     32  F    Isotropic =   256.7964   Anisotropy =   124.7340

     33  F    Isotropic =   255.7098   Anisotropy =   138.7656

     34  F    Isotropic =   255.4370   Anisotropy =   130.5897

     35  F    Isotropic =   259.4872   Anisotropy =   128.2888

     36  F    Isotropic =   257.0932   Anisotropy =   126.3062

     37  F    Isotropic =   253.3570   Anisotropy =   140.7501

 The electronic state is 1-A.
 Alpha  occ. eigenvalues --  -77.13685 -77.13621 -24.73851 -24.73539 -24.73383
 Alpha  occ. eigenvalues --  -24.73293 -24.73183 -24.73157 -24.73078 -24.72992
 Alpha  occ. eigenvalues --  -24.72992 -24.72793 -24.72302 -24.72122 -19.18016
 Alpha  occ. eigenvalues --  -19.17813 -19.17770 -19.17228 -10.44367 -10.44131
 Alpha  occ. eigenvalues --  -10.43686 -10.43493 -10.27658 -10.27433 -10.27364
 Alpha  occ. eigenvalues --  -10.27100 -10.20445  -6.61329  -6.61236  -4.77650
 Alpha  occ. eigenvalues --   -4.77553  -4.77459  -4.77371  -4.76876  -4.76784
 Alpha  occ. eigenvalues --   -1.33678  -1.33423  -1.32990  -1.32835  -1.25239
 Alpha  occ. eigenvalues --   -1.24945  -1.24705  -1.24656  -1.24515  -1.24493
 Alpha  occ. eigenvalues --   -1.23843  -1.23638  -1.08589  -1.08286  -1.05596
 Alpha  occ. eigenvalues --   -1.05291  -0.81771  -0.80674  -0.79577  -0.79345
 Alpha  occ. eigenvalues --   -0.76200  -0.70318  -0.69733  -0.69120  -0.68728
 Alpha  occ. eigenvalues --   -0.63851  -0.62784  -0.62038  -0.61925  -0.61800
 Alpha  occ. eigenvalues --   -0.61692  -0.61182  -0.61040  -0.60780  -0.60371
 Alpha  occ. eigenvalues --   -0.59111  -0.58559  -0.57022  -0.56753  -0.54359
 Alpha  occ. eigenvalues --   -0.53995  -0.52281  -0.51403  -0.50390  -0.50152
 Alpha  occ. eigenvalues --   -0.49586  -0.49347  -0.49125  -0.48874  -0.48732
 Alpha  occ. eigenvalues --   -0.48555  -0.48402  -0.48311  -0.48038  -0.46425
 Alpha  occ. eigenvalues --   -0.45792  -0.45526  -0.45515  -0.45056  -0.44969
 Alpha  occ. eigenvalues --   -0.44800  -0.44668  -0.44221  -0.43743  -0.43632
 Alpha  occ. eigenvalues --   -0.43462  -0.43386  -0.42931  -0.42837  -0.42746
 Alpha  occ. eigenvalues --   -0.42550  -0.40812  -0.39476  -0.39158  -0.38073
 Alpha  occ. eigenvalues --   -0.37621  -0.35299  -0.33887  -0.33565  -0.33496
 Alpha  occ. eigenvalues --   -0.27143  -0.23577
 Alpha virt. eigenvalues --   -0.03681  -0.00816   0.00925   0.01748   0.03113
 Alpha virt. eigenvalues --    0.03733   0.04263   0.04761   0.05429   0.05865
 Alpha virt. eigenvalues --    0.06809   0.06927   0.07228   0.07586   0.09188

 Mulliken charges:
               1
     1  P    0.429743
     2  O   -0.337584
     3  O   -0.365185
     4  C   -0.331383
     5  H    0.142078
     6  H    0.130119
     7  C   -0.103002
     8  H    0.128943
     9  H    0.140475
    10  C    0.502709
    11  C   -0.074980
    12  H    0.133852
    13  H    0.121216
    14  C    0.508783
    15  F   -0.173051
    16  F   -0.187154
    17  F   -0.162210
    18  F   -0.170764
    19  F   -0.173741
    20  F   -0.182033
    21  P    0.420544
    22  O   -0.339784
    23  O   -0.373575
    24  C   -0.088700
    25  H    0.124428
    26  H    0.133643
    27  C    0.500225
    28  C   -0.081408
    29  H    0.131542
    30  H    0.127486
    31  C    0.521639
    32  F   -0.171389
    33  F   -0.186750
    34  F   -0.164528
    35  F   -0.180373
    36  F   -0.173290
    37  F   -0.176542
 Sum of Mulliken charges =  -0.00000

 Dipole moment (field-independent basis, Debye):
    X=             -1.0025    Y=             -0.2258    Z=              3.7623  Tot=              3.9001
 Quadrupole moment (field-independent basis, Debye-Ang):
   XX=           -171.2178   YY=           -177.1473   ZZ=           -162.6938
   XY=             -0.1943   XZ=             -2.3317   YZ=             -1.9591

 Summary of Natural Population Analysis:

                                       Natural Population
                Natural  -----------------------------------------------
    Atom  No    Charge         Core      Valence    Rydberg      Total
 -----------------------------------------------------------------------
      P    1    1.35087      9.99863     3.55784    0.09265    13.64913
      O    2   -0.76059      1.99981     6.74666    0.01411     8.76059
      O    3   -0.78439      1.99980     6.77100    0.01359     8.78439
      C    4   -1.14406      1.99948     5.11206    0.03252     7.14406
      H    5    0.27068      0.00000     0.72798    0.00134     0.72932
      H    6    0.25659      0.00000     0.74113    0.00229     0.74341
      C    7   -0.16048      1.99913     4.13410    0.02725     6.16048
      H    8    0.19911      0.00000     0.79903    0.00186     0.80089
      H    9    0.20874      0.00000     0.78962    0.00164     0.79126
      C   10    0.93674      1.99934     3.01317    0.05075     5.06326
      C   11   -0.14104      1.99912     4.11444    0.02748     6.14104
      H   12    0.20883      0.00000     0.78968    0.00149     0.79117
      H   13    0.20339      0.00000     0.79444    0.00217     0.79661
      C   14    0.93369      1.99934     3.01609    0.05089     5.06631
      F   15   -0.31320      1.99992     7.30435    0.00894     9.31320
      F   16   -0.32711      1.99992     7.31797    0.00922     9.32711
      F   17   -0.30321      1.99991     7.29431    0.00899     9.30321
      F   18   -0.30924      1.99991     7.30040    0.00892     9.30924
      F   19   -0.31285      1.99991     7.30398    0.00895     9.31285
      F   20   -0.31920      1.99992     7.31048    0.00880     9.31920
      P   21    1.34631      9.99859     3.56410    0.09100    13.65369
      O   22   -0.76043      1.99981     6.74669    0.01393     8.76043
      O   23   -0.78379      1.99980     6.76966    0.01432     8.78379
      C   24   -0.15942      1.99913     4.13347    0.02682     6.15942
      H   25    0.20022      0.00000     0.79795    0.00183     0.79978
      H   26    0.20531      0.00000     0.79319    0.00150     0.79469
      C   27    0.93594      1.99934     3.01397    0.05075     5.06406
      C   28   -0.14048      1.99912     4.11310    0.02825     6.14048
      H   29    0.20952      0.00000     0.78901    0.00147     0.79048
      H   30    0.20566      0.00000     0.79235    0.00199     0.79434
      C   31    0.93169      1.99934     3.01812    0.05086     5.06831
      F   32   -0.31200      1.99991     7.30310    0.00899     9.31200
      F   33   -0.32640      1.99992     7.31722    0.00925     9.32640
      F   34   -0.30501      1.99991     7.29615    0.00894     9.30501
      F   35   -0.31379      1.99991     7.30496    0.00891     9.31379
      F   36   -0.31230      1.99991     7.30343    0.00895     9.31230
      F   37   -0.31432      1.99992     7.30536    0.00903     9.31432
 =======================================================================
   * Total *    0.00000     69.98878   163.30056    0.71065   234.00000

 1\1\GINC-G4NODEC8\SP\RB3LYP\def2TZVP\C9H10F12O4P2\ROOT\23-Jan-2025\0\\
 # nmr=giao b3lyp/def2TZVP pop=nbo scfcyc=200\\MB-65 SPE NoRh\\0,1\P,0,
 1.283,-0.314,-0.595\O,0,1.697,-1.767,0.033\O,0,2.535,0.114,-1.572\C,0,
 -0.016,-0.609,-1.895\H,0,0.118,0.131,-2.687\H,0,-0.084,-1.612,-2.316\C
 ,0,2.197,-2.881,-0.717\H,0,2.357,-2.641,-1.769\H,0,1.495,-3.709,-0.622
 \C,0,3.534,-3.309,-0.124\C,0,3.776,0.662,-1.12\H,0,4.584,0.009,-1.445\
 H,0,3.821,0.768,-0.035\C,0,3.971,2.034,-1.754\F,0,4.006,-4.361,-0.81\F
 ,0,4.444,-2.31,-0.211\F,0,3.428,-3.649,1.164\F,0,3.965,1.975,-3.089\F,

 Normal termination of Gaussian 16 at Thu Jan 23 23:23:42 2025.
