 Gaussian 16, Revision B.01,
 Gaussian 16:  ES64L-G16RevB.01 20-Dec-2017

 --------------------------------------------
 # nmr=giao b3lyp/def2TZVP pop=nbo scfcyc=200
 --------------------------------------------

 --------------
 MB-69 SPE NoRh
 --------------
 Symbolic Z-matrix:
 Charge =  0 Multiplicity = 1

                         Standard orientation:
 ---------------------------------------------------------------------
 Center     Atomic      Atomic             Coordinates (Angstroms)
 Number     Number       Type             X           Y           Z
 ---------------------------------------------------------------------
      1         15           0        1.697383   -0.364442   -0.638213
      2          6           0        3.112287   -1.484106   -0.261388
      3          6           0        2.883444   -2.855202   -0.098194
      4          6           0        3.945197   -3.723615    0.119920
      5          6           0        5.248740   -3.237916    0.159191
      6          6           0        5.485506   -1.880264   -0.021708
      7          6           0        4.425132   -1.004380   -0.233243
      8          1           0        4.625076    0.050648   -0.364347
      9          1           0        6.497668   -1.496094    0.004522
     10          1           0        6.075937   -3.915659    0.327892
     11          1           0        3.754737   -4.781250    0.255948
     12          1           0        1.877737   -3.256549   -0.143511
     13          6           0        2.259746    1.328479   -0.189039
     14          6           0        2.267547    2.333299   -1.158844
     15          6           0        2.680530    3.621984   -0.831735
     16          6           0        3.084403    3.914580    0.465420
     17          6           0        3.076755    2.917676    1.439732
     18          6           0        2.667375    1.630808    1.116187
     19          1           0        2.677288    0.861442    1.879670
     20          1           0        3.393264    3.143432    2.450044
     21          1           0        3.406604    4.916528    0.719925
     22          1           0        2.685559    4.394147   -1.590428
     23          1           0        1.943171    2.107574   -2.167392
     24          6           0        0.308594   -0.762436    0.550361
     25         15           0       -1.092057   -0.412335   -0.649110
     26          1           0        0.331509   -1.828239    0.776958
     27          1           0        0.306749   -0.204435    1.487069
     28          6           0       -2.409737   -1.720521   -0.332088
     29          6           0       -2.704546   -2.057335    1.141593
     30          6           0       -3.713364   -1.439839   -1.101743
     31          1           0       -1.943357   -2.604268   -0.783908
     32          6           0       -3.665425   -3.252875    1.236638
     33          1           0       -3.156073   -1.196324    1.639070
     34          1           0       -1.782229   -2.285697    1.681557
     35          6           0       -4.676934   -2.630972   -0.998371
     36          1           0       -4.199838   -0.552770   -0.684595
     37          1           0       -3.507833   -1.218753   -2.152479
     38          6           0       -4.961259   -3.002652    0.459202
     39          1           0       -3.884994   -3.458872    2.286861
     40          1           0       -3.169771   -4.147543    0.841851
     41          1           0       -5.607418   -2.393345   -1.519938
     42          1           0       -4.241145   -3.493084   -1.516683
     43          1           0       -5.602775   -3.885578    0.503519
     44          1           0       -5.519844   -2.190175    0.938163
     45          6           0       -1.650985    1.324473   -0.185355
     46          6           0       -2.442430    2.027376   -1.303596
     47          6           0       -2.369248    1.456149    1.168217
     48          1           0       -0.686468    1.840507   -0.103562
     49          6           0       -2.702813    3.498451   -0.948110
     50          1           0       -3.399118    1.520066   -1.460011
     51          1           0       -1.891061    1.966538   -2.244679
     52          6           0       -2.613188    2.932587    1.514168
     53          1           0       -3.333224    0.942519    1.122797
     54          1           0       -1.793931    0.978997    1.965511
     55          6           0       -3.396232    3.646376    0.408252
     56          1           0       -3.303293    3.961478   -1.735491
     57          1           0       -1.747310    4.034784   -0.928973
     58          1           0       -3.147727    2.999805    2.464999
     59          1           0       -1.649879    3.433201    1.662817
     60          1           0       -3.517253    4.703595    0.654565
     61          1           0       -4.405204    3.224297    0.349315
 ---------------------------------------------------------------------

 SCF Done:  E(RB3LYP) =  -1656.24618738     A.U. after   14 cycles

      1  P    Isotropic =   240.6744   Anisotropy =   103.3892

      2  C    Isotropic =    28.4409   Anisotropy =   200.7512

      3  C    Isotropic =    50.7925   Anisotropy =   181.8032

      4  C    Isotropic =    50.4651   Anisotropy =   181.7221

      5  C    Isotropic =    53.9228   Anisotropy =   178.2629

      6  C    Isotropic =    49.8581   Anisotropy =   182.9197

      7  C    Isotropic =    51.0528   Anisotropy =   181.6113

      8  H    Isotropic =    25.1861   Anisotropy =    13.4616

      9  H    Isotropic =    24.6316   Anisotropy =     6.4442

     10  H    Isotropic =    24.6699   Anisotropy =     4.1121

     11  H    Isotropic =    24.3738   Anisotropy =     6.1167

     12  H    Isotropic =    24.2655   Anisotropy =    10.9891

     13  C    Isotropic =    34.5018   Anisotropy =   208.8582

     14  C    Isotropic =    39.1022   Anisotropy =   183.4464

     15  C    Isotropic =    50.1842   Anisotropy =   184.3566

     16  C    Isotropic =    48.2676   Anisotropy =   190.1942

     17  C    Isotropic =    48.3757   Anisotropy =   186.7296

     18  C    Isotropic =    39.5071   Anisotropy =   189.1145

     19  H    Isotropic =    23.9145   Anisotropy =    10.2190

     20  H    Isotropic =    24.1859   Anisotropy =     5.5830

     21  H    Isotropic =    24.1913   Anisotropy =     3.9687

     22  H    Isotropic =    24.2003   Anisotropy =     4.9801

     23  H    Isotropic =    23.6886   Anisotropy =     7.5759

     24  C    Isotropic =   155.4786   Anisotropy =    23.1823

     25  P    Isotropic =   222.4656   Anisotropy =    97.9967

     26  H    Isotropic =    30.2294   Anisotropy =     6.8672

     27  H    Isotropic =    29.5219   Anisotropy =     3.2671

     28  C    Isotropic =   135.5181   Anisotropy =    24.1833

     29  C    Isotropic =   148.3430   Anisotropy =    14.0936

     30  C    Isotropic =   149.7876   Anisotropy =     9.3886

     31  H    Isotropic =    29.9929   Anisotropy =     3.9979

     32  C    Isotropic =   150.6590   Anisotropy =     8.2799

     33  H    Isotropic =    30.4244   Anisotropy =     6.9314

     34  H    Isotropic =    29.9158   Anisotropy =     6.7939

     35  C    Isotropic =   150.4682   Anisotropy =     7.5242

     36  H    Isotropic =    30.7129   Anisotropy =     7.4886

     37  H    Isotropic =    29.8799   Anisotropy =     5.7298

     38  C    Isotropic =   152.2592   Anisotropy =     3.2097

     39  H    Isotropic =    30.1357   Anisotropy =     9.4903

     40  H    Isotropic =    30.7230   Anisotropy =     8.1949

     41  H    Isotropic =    30.0690   Anisotropy =     9.7402

     42  H    Isotropic =    30.6110   Anisotropy =     8.3863

     43  H    Isotropic =    30.2004   Anisotropy =    10.5857

     44  H    Isotropic =    30.6502   Anisotropy =     7.6350

     45  C    Isotropic =   137.6800   Anisotropy =    21.9596

     46  C    Isotropic =   146.4575   Anisotropy =    17.1152

     47  C    Isotropic =   147.9245   Anisotropy =    11.3732

     48  H    Isotropic =    31.2845   Anisotropy =    11.3124

     49  C    Isotropic =   150.7541   Anisotropy =     7.0091

     50  H    Isotropic =    30.6667   Anisotropy =     6.5484

     51  H    Isotropic =    29.9467   Anisotropy =     5.3072

     52  C    Isotropic =   150.7302   Anisotropy =     8.2984

     53  H    Isotropic =    30.6055   Anisotropy =     8.0373

     54  H    Isotropic =    30.1494   Anisotropy =     4.1745

     55  C    Isotropic =   152.8960   Anisotropy =     3.0135

     56  H    Isotropic =    30.2742   Anisotropy =     9.9618

     57  H    Isotropic =    30.9977   Anisotropy =     7.3681

     58  H    Isotropic =    30.3614   Anisotropy =     9.4870

     59  H    Isotropic =    31.3367   Anisotropy =     6.8298

     60  H    Isotropic =    30.4636   Anisotropy =    10.4345

     61  H    Isotropic =    30.8548   Anisotropy =     8.5965

 The electronic state is 1-A.
 Alpha  occ. eigenvalues --  -77.04546 -77.03094 -10.18608 -10.18505 -10.18399
 Alpha  occ. eigenvalues --  -10.18381 -10.18266 -10.18254 -10.18092 -10.18006
 Alpha  occ. eigenvalues --  -10.17462 -10.17461 -10.17364 -10.17361 -10.17250
 Alpha  occ. eigenvalues --  -10.17125 -10.17033 -10.16730 -10.16461 -10.16415
 Alpha  occ. eigenvalues --  -10.16413 -10.16331 -10.16302 -10.16278 -10.16184
 Alpha  occ. eigenvalues --  -10.16164 -10.16151  -6.53106  -6.51682  -4.69254
 Alpha  occ. eigenvalues --   -4.69231  -4.68738  -4.67856  -4.67776  -4.67300
 Alpha  occ. eigenvalues --   -0.86595  -0.85481  -0.83511  -0.82883  -0.77456
 Alpha  occ. eigenvalues --   -0.75684  -0.75624  -0.74748  -0.74440  -0.74314
 Alpha  occ. eigenvalues --   -0.74033  -0.73676  -0.71856  -0.63657  -0.62112
 Alpha  occ. eigenvalues --   -0.61374  -0.61138  -0.60613  -0.60483  -0.60360
 Alpha  occ. eigenvalues --   -0.60017  -0.56310  -0.55726  -0.55164  -0.52804
 Alpha  occ. eigenvalues --   -0.52297  -0.50314  -0.48025  -0.46767  -0.46174
 Alpha  occ. eigenvalues --   -0.46044  -0.45254  -0.44955  -0.44580  -0.44338
 Alpha  occ. eigenvalues --   -0.44207  -0.43915  -0.43349  -0.43009  -0.42784
 Alpha  occ. eigenvalues --   -0.42234  -0.41990  -0.40381  -0.40032  -0.38537
 Alpha  occ. eigenvalues --   -0.38137  -0.37915  -0.37835  -0.37448  -0.37254
 Alpha  occ. eigenvalues --   -0.36587  -0.35977  -0.35484  -0.35262  -0.35006
 Alpha  occ. eigenvalues --   -0.34675  -0.34052  -0.33888  -0.32991  -0.32436
 Alpha  occ. eigenvalues --   -0.32301  -0.31476  -0.30787  -0.30237  -0.29628
 Alpha  occ. eigenvalues --   -0.27734  -0.27174  -0.26660  -0.25979  -0.25545
 Alpha  occ. eigenvalues --   -0.21577  -0.17976
 Alpha virt. eigenvalues --   -0.03649  -0.02414  -0.01664  -0.01126   0.01939
 Alpha virt. eigenvalues --    0.02386   0.03100   0.03697   0.04270   0.04698
 Alpha virt. eigenvalues --    0.05165   0.05489   0.06049   0.06389   0.06523

 Mulliken charges:
               1
     1  P    0.175534
     2  C    0.080402
     3  C   -0.207981
     4  C   -0.115377
     5  C   -0.111640
     6  C   -0.122371
     7  C   -0.168701
     8  H    0.136793
     9  H    0.105314
    10  H    0.105436
    11  H    0.104378
    12  H    0.104370
    13  C   -0.010028
    14  C   -0.132827
    15  C   -0.110741
    16  C   -0.092887
    17  C   -0.105482
    18  C   -0.179921
    19  H    0.125485
    20  H    0.110436
    21  H    0.113277
    22  H    0.112185
    23  H    0.118602
    24  C   -0.375656
    25  P    0.145143
    26  H    0.123983
    27  H    0.120502
    28  C   -0.081444
    29  C   -0.198155
    30  C   -0.219353
    31  H    0.067140
    32  C   -0.158571
    33  H    0.091173
    34  H    0.091630
    35  C   -0.158895
    36  H    0.079631
    37  H    0.107377
    38  C   -0.156552
    39  H    0.090164
    40  H    0.078359
    41  H    0.091776
    42  H    0.082814
    43  H    0.092286
    44  H    0.074908
    45  C   -0.091924
    46  C   -0.197473
    47  C   -0.216905
    48  H    0.087344
    49  C   -0.167635
    50  H    0.089074
    51  H    0.099817
    52  C   -0.161387
    53  H    0.074866
    54  H    0.100493
    55  C   -0.154412
    56  H    0.090998
    57  H    0.084617
    58  H    0.087676
    59  H    0.086822
    60  H    0.091221
    61  H    0.074296
 Sum of Mulliken charges =  -0.00000

 Dipole moment (field-independent basis, Debye):
    X=             -0.6577    Y=              0.9544    Z=              1.9928  Tot=              2.3053
 Quadrupole moment (field-independent basis, Debye-Ang):
   XX=           -176.1725   YY=           -170.0251   ZZ=           -185.2543
   XY=              4.8562   XZ=              3.3985   YZ=             -2.3677

 Summary of Natural Population Analysis:

                                       Natural Population
                Natural  -----------------------------------------------
    Atom  No    Charge         Core      Valence    Rydberg      Total
 -----------------------------------------------------------------------
      P    1    0.83596      9.99815     4.13195    0.03394    14.16404
      C    2   -0.31494      1.99899     4.28598    0.02997     6.31494
      C    3   -0.21385      1.99908     4.19474    0.02003     6.21385
      C    4   -0.19642      1.99918     4.17819    0.01904     6.19642
      C    5   -0.21898      1.99919     4.20001    0.01978     6.21898
      C    6   -0.19513      1.99919     4.17696    0.01898     6.19513
      C    7   -0.21347      1.99908     4.19427    0.02012     6.21347
      H    8    0.21274      0.00000     0.78542    0.00185     0.78726
      H    9    0.20655      0.00000     0.79212    0.00133     0.79345
      H   10    0.20685      0.00000     0.79195    0.00121     0.79315
      H   11    0.20663      0.00000     0.79204    0.00132     0.79337
      H   12    0.19898      0.00000     0.79877    0.00225     0.80102
      C   13   -0.33727      1.99901     4.30445    0.03380     6.33727
      C   14   -0.19082      1.99910     4.17077    0.02095     6.19082
      C   15   -0.20776      1.99918     4.18892    0.01965     6.20776
      C   16   -0.19641      1.99919     4.17811    0.01911     6.19641
      C   17   -0.20623      1.99919     4.18786    0.01918     6.20623
      C   18   -0.19489      1.99908     4.17546    0.02035     6.19489
      H   19    0.21002      0.00000     0.78748    0.00251     0.78998
      H   20    0.20897      0.00000     0.78965    0.00138     0.79103
      H   21    0.20932      0.00000     0.78951    0.00117     0.79068
      H   22    0.21064      0.00000     0.78808    0.00127     0.78936
      H   23    0.22106      0.00000     0.77729    0.00164     0.77894
      C   24   -1.00663      1.99945     4.97454    0.03264     7.00663
      P   25    0.80370      9.99854     4.16406    0.03371    14.19630
      H   26    0.24566      0.00000     0.75253    0.00181     0.75434
      H   27    0.23378      0.00000     0.76353    0.00270     0.76622
      C   28   -0.47987      1.99937     4.45605    0.02445     6.47987
      C   29   -0.39327      1.99938     4.37983    0.01406     6.39327
      C   30   -0.39260      1.99938     4.37816    0.01506     6.39260
      H   31    0.20752      0.00000     0.79012    0.00237     0.79248
      C   32   -0.38339      1.99943     4.37042    0.01355     6.38339
      H   33    0.19072      0.00000     0.80713    0.00215     0.80928
      H   34    0.19607      0.00000     0.80192    0.00201     0.80393
      C   35   -0.38085      1.99943     4.36785    0.01358     6.38085
      H   36    0.18570      0.00000     0.81200    0.00230     0.81430
      H   37    0.21231      0.00000     0.78564    0.00205     0.78769
      C   38   -0.38637      1.99943     4.37355    0.01340     6.38637
      H   39    0.20019      0.00000     0.79837    0.00144     0.79981
      H   40    0.18585      0.00000     0.81230    0.00184     0.81415
      H   41    0.20170      0.00000     0.79692    0.00137     0.79830
      H   42    0.18832      0.00000     0.80987    0.00181     0.81168
      H   43    0.20173      0.00000     0.79694    0.00134     0.79827
      H   44    0.18645      0.00000     0.81171    0.00183     0.81355
      C   45   -0.48725      1.99937     4.46177    0.02611     6.48725
      C   46   -0.39110      1.99938     4.37646    0.01526     6.39110
      C   47   -0.39283      1.99938     4.37902    0.01443     6.39283
      H   48    0.21812      0.00000     0.77905    0.00283     0.78188
      C   49   -0.38271      1.99943     4.36962    0.01366     6.38271
      H   50    0.18745      0.00000     0.81029    0.00227     0.81255
      H   51    0.21281      0.00000     0.78523    0.00196     0.78719
      C   52   -0.38426      1.99943     4.37130    0.01353     6.38426
      H   53    0.18483      0.00000     0.81276    0.00242     0.81517
      H   54    0.19771      0.00000     0.80004    0.00226     0.80229
      C   55   -0.38611      1.99942     4.37338    0.01330     6.38611
      H   56    0.20138      0.00000     0.79726    0.00136     0.79862
      H   57    0.18877      0.00000     0.80943    0.00180     0.81123
      H   58    0.19887      0.00000     0.79966    0.00147     0.80113
      H   59    0.18880      0.00000     0.80939    0.00181     0.81120
      H   60    0.20123      0.00000     0.79743    0.00134     0.79877
      H   61    0.18604      0.00000     0.81211    0.00185     0.81396
 =======================================================================
   * Total *   -0.00000     69.97843   143.40762    0.61395   214.00000

 Normal termination of Gaussian 16 at Thu Jan 23 23:59:05 2025.
