 Gaussian 16, Revision B.01,
 Gaussian 16:  ES64L-G16RevB.01 20-Dec-2017

 --------------------------------------------
 # nmr=giao b3lyp/def2TZVP pop=nbo scfcyc=200
 --------------------------------------------

 --------------
 MB-60 SPE NoRh
 --------------
 Symbolic Z-matrix:
 Charge =  0 Multiplicity = 1

                         Standard orientation:
 ---------------------------------------------------------------------
 Center     Atomic      Atomic             Coordinates (Angstroms)
 Number     Number       Type             X           Y           Z
 ---------------------------------------------------------------------
      1         15           0       -2.448541   -0.219095   -0.550426
      2         15           0        0.418866   -0.154439   -0.558340
      3          6           0       -1.009909   -0.183547    0.661344
      4          1           0       -1.009034    0.697452    1.299393
      5          1           0       -1.012033   -1.056702    1.305686
      6          6           0       -3.397445    1.427819   -0.234162
      7          6           0       -2.388047    2.566894   -0.462624
      8          1           0       -2.917382    3.519992   -0.384427
      9          1           0       -1.936548    2.517310   -1.454531
     10          1           0       -1.587116    2.583142    0.275189
     11          6           0       -4.537893    1.597834   -1.251503
     12          1           0       -5.304903    0.831835   -1.169043
     13          1           0       -4.170521    1.610273   -2.277454
     14          1           0       -5.020680    2.561748   -1.073055
     15          6           0       -3.962179    1.527964    1.190685
     16          1           0       -4.317356    2.548366    1.356386
     17          1           0       -3.215905    1.318213    1.958849
     18          1           0       -4.810979    0.863596    1.344585
     19          6           0       -3.459775   -1.781025   -0.035213
     20          6           0       -4.817520   -1.804434   -0.757347
     21          1           0       -4.729484   -1.630010   -1.830844
     22          1           0       -5.513585   -1.074849   -0.347440
     23          1           0       -5.270753   -2.790926   -0.624052
     24          6           0       -3.695935   -1.886164    1.480667
     25          1           0       -4.218522   -2.824748    1.684955
     26          1           0       -4.314127   -1.080720    1.870622
     27          1           0       -2.768802   -1.911631    2.054012
     28          6           0       -2.633691   -3.000054   -0.487016
     29          1           0       -1.658108   -3.048658   -0.001940
     30          1           0       -2.469707   -3.008737   -1.563772
     31          1           0       -3.174321   -3.911672   -0.217949
     32          6           0        1.227041    1.490569   -0.282478
     33          6           0        1.873534    1.871182    0.917711
     34          6           0        2.407564    3.161249    0.976757
     35          1           0        2.906459    3.484485    1.879073
     36          6           0        2.320286    4.049922   -0.089319
     37          1           0        2.750554    5.038933    0.001249
     38          6           0        1.682326    3.667896   -1.260470
     39          1           0        1.602878    4.351856   -2.095738
     40          6           0        1.141087    2.392032   -1.347736
     41          1           0        0.634122    2.086638   -2.254355
     42          6           0        2.470706    1.549131    3.419677
     43          1           0        3.480411    1.956126    3.359503
     44          1           0        2.477487    0.786545    4.199744
     45          1           0        1.801282    2.349048    3.744282
     46          6           0        1.623688   -1.496073   -0.097710
     47          6           0        2.911682   -1.557483   -0.681790
     48          6           0        3.735860   -2.631041   -0.334370
     49          1           0        4.724825   -2.695590   -0.764367
     50          6           0        3.326765   -3.624697    0.545859
     51          1           0        3.995865   -4.440538    0.788422
     52          6           0        2.059722   -3.563978    1.106840
     53          1           0        1.721346   -4.329744    1.793607
     54          6           0        1.221872   -2.506233    0.780611
     55          1           0        0.243051   -2.484030    1.237699
     56          6           0        4.579250   -0.888516   -2.548949
     57          1           0        5.499036   -1.093039   -1.997821
     58          1           0        4.797269   -0.073325   -3.240337
     59          1           0        4.335382   -1.773700   -3.140244
     60          6           0        2.019461    0.926969    2.098297
     61          1           0        2.723339    0.136251    1.823455
     62          1           0        1.069416    0.413619    2.265116
     63          6           0        3.428751   -0.486248   -1.624552
     64          1           0        3.736915    0.381518   -1.032473
     65          1           0        2.602160   -0.125113   -2.239738
 ---------------------------------------------------------------------

 SCF Done:  E(RB3LYP) =  -1658.64877789     A.U. after   14 cycles

      1  P    Isotropic =   190.2091   Anisotropy =    95.0604

      2  P    Isotropic =   246.7490   Anisotropy =    94.0714

      3  C    Isotropic =   161.7378   Anisotropy =    19.2995

      4  H    Isotropic =    30.3444   Anisotropy =     4.5802

      5  H    Isotropic =    29.4853   Anisotropy =     6.0643

      6  C    Isotropic =   142.0967   Anisotropy =    16.9015

      7  C    Isotropic =   150.0164   Anisotropy =    43.6974

      8  H    Isotropic =    31.6742   Anisotropy =     7.7994

      9  H    Isotropic =    30.9385   Anisotropy =     8.6281

     10  H    Isotropic =    31.8493   Anisotropy =    10.5469

     11  C    Isotropic =   153.1060   Anisotropy =    44.0074

     12  H    Isotropic =    30.5368   Anisotropy =     7.6558

     13  H    Isotropic =    30.7004   Anisotropy =     8.0456

     14  H    Isotropic =    31.2682   Anisotropy =     9.6945

     15  C    Isotropic =   154.8728   Anisotropy =    34.5837

     16  H    Isotropic =    31.2689   Anisotropy =     9.6170

     17  H    Isotropic =    30.8002   Anisotropy =     4.5738

     18  H    Isotropic =    30.6361   Anisotropy =     7.3976

     19  C    Isotropic =   140.4025   Anisotropy =    19.4065

     20  C    Isotropic =   152.9725   Anisotropy =    38.2084

     21  H    Isotropic =    30.5608   Anisotropy =     7.7322

     22  H    Isotropic =    30.7294   Anisotropy =     7.4052

     23  H    Isotropic =    31.0628   Anisotropy =     9.6260

     24  C    Isotropic =   155.2276   Anisotropy =    38.1468

     25  H    Isotropic =    31.0082   Anisotropy =     9.7793

     26  H    Isotropic =    30.3949   Anisotropy =     6.4083

     27  H    Isotropic =    30.3930   Anisotropy =     5.1822

     28  C    Isotropic =   150.5558   Anisotropy =    45.7910

     29  H    Isotropic =    30.6316   Anisotropy =     9.0967

     30  H    Isotropic =    30.6548   Anisotropy =     7.1002

     31  H    Isotropic =    31.3340   Anisotropy =     9.1050

     32  C    Isotropic =    36.8905   Anisotropy =   187.9161

     33  C    Isotropic =    24.8596   Anisotropy =   201.7905

     34  C    Isotropic =    52.7494   Anisotropy =   181.6284

     35  H    Isotropic =    24.5248   Anisotropy =     9.9054

     36  C    Isotropic =    48.3915   Anisotropy =   186.2557

     37  H    Isotropic =    24.3090   Anisotropy =     4.3580

     38  C    Isotropic =    53.5128   Anisotropy =   178.4239

     39  H    Isotropic =    24.4493   Anisotropy =     5.0554

     40  C    Isotropic =    38.6254   Anisotropy =   176.4560

     41  H    Isotropic =    23.5943   Anisotropy =     8.1805

     42  C    Isotropic =   170.7207   Anisotropy =    16.8890

     43  H    Isotropic =    30.7199   Anisotropy =     9.8248

     44  H    Isotropic =    30.8853   Anisotropy =     9.3978

     45  H    Isotropic =    30.9725   Anisotropy =     8.8966

     46  C    Isotropic =    36.2094   Anisotropy =   186.8915

     47  C    Isotropic =    31.7906   Anisotropy =   197.3369

     48  C    Isotropic =    52.1103   Anisotropy =   182.4036

     49  H    Isotropic =    24.4691   Anisotropy =     9.7991

     50  C    Isotropic =    52.9162   Anisotropy =   178.3879

     51  H    Isotropic =    24.5150   Anisotropy =     4.3453

     52  C    Isotropic =    53.2727   Anisotropy =   177.7235

     53  H    Isotropic =    24.4552   Anisotropy =     6.3839

     54  C    Isotropic =    51.6493   Anisotropy =   178.7422

     55  H    Isotropic =    24.0255   Anisotropy =    11.0118

     56  C    Isotropic =   170.4392   Anisotropy =    19.2585

     57  H    Isotropic =    30.5773   Anisotropy =     9.5213

     58  H    Isotropic =    30.9285   Anisotropy =     9.5890

     59  H    Isotropic =    31.0440   Anisotropy =     9.2596

     60  C    Isotropic =   151.8225   Anisotropy =     9.0871

     61  H    Isotropic =    30.0503   Anisotropy =    12.1060

     62  H    Isotropic =    29.2701   Anisotropy =    11.4797

     63  C    Isotropic =   152.7258   Anisotropy =    10.8255

     64  H    Isotropic =    30.6979   Anisotropy =    11.2637

     65  H    Isotropic =    29.4550   Anisotropy =    10.6099

 The electronic state is 1-A.
 Alpha  occ. eigenvalues --  -77.04674 -77.03491 -10.19111 -10.19024 -10.18897
 Alpha  occ. eigenvalues --  -10.18283 -10.18203 -10.18121 -10.18056 -10.17776
 Alpha  occ. eigenvalues --  -10.17644 -10.17384 -10.17380 -10.17263 -10.17235
 Alpha  occ. eigenvalues --  -10.16982 -10.16888 -10.16832 -10.16761 -10.16416
 Alpha  occ. eigenvalues --  -10.16216 -10.16058 -10.16004 -10.15965 -10.15925
 Alpha  occ. eigenvalues --  -10.15910 -10.15879  -6.53188  -6.52014  -4.69344
 Alpha  occ. eigenvalues --   -4.69304  -4.68831  -4.68184  -4.68102  -4.67641
 Alpha  occ. eigenvalues --   -0.86370  -0.85707  -0.81962  -0.80440  -0.79138
 Alpha  occ. eigenvalues --   -0.78601  -0.76550  -0.74457  -0.72877  -0.72377
 Alpha  occ. eigenvalues --   -0.72175  -0.69261  -0.68959  -0.68469  -0.68397
 Alpha  occ. eigenvalues --   -0.64349  -0.63732  -0.63102  -0.60194  -0.59785
 Alpha  occ. eigenvalues --   -0.58028  -0.57499  -0.54927  -0.54851  -0.51255
 Alpha  occ. eigenvalues --   -0.50873  -0.49268  -0.47144  -0.46656  -0.46393
 Alpha  occ. eigenvalues --   -0.45688  -0.45177  -0.44812  -0.44693  -0.44301
 Alpha  occ. eigenvalues --   -0.44226  -0.43879  -0.43451  -0.43340  -0.43031
 Alpha  occ. eigenvalues --   -0.42859  -0.41771  -0.40247  -0.39736  -0.39022
 Alpha  occ. eigenvalues --   -0.38998  -0.38476  -0.38399  -0.38055  -0.37955
 Alpha  occ. eigenvalues --   -0.37541  -0.37466  -0.37359  -0.36432  -0.36204
 Alpha  occ. eigenvalues --   -0.36131  -0.35187  -0.34774  -0.34585  -0.34188
 Alpha  occ. eigenvalues --   -0.33995  -0.33713  -0.33544  -0.33306  -0.33014
 Alpha  occ. eigenvalues --   -0.31710  -0.30171  -0.28357  -0.26614  -0.25644
 Alpha  occ. eigenvalues --   -0.25021  -0.24674  -0.21463  -0.18449
 Alpha virt. eigenvalues --   -0.03063  -0.01996  -0.01079  -0.01009   0.01774
 Alpha virt. eigenvalues --    0.02522   0.03340   0.03830   0.04298   0.04811
 Alpha virt. eigenvalues --    0.05139   0.05508   0.06138   0.06289   0.07345

 Mulliken charges:
               1
     1  P    0.116695
     2  P    0.122473
     3  C   -0.398776
     4  H    0.123006
     5  H    0.114048
     6  C    0.094061
     7  C   -0.377709
     8  H    0.108460
     9  H    0.117116
    10  H    0.124319
    11  C   -0.357227
    12  H    0.112823
    13  H    0.118561
    14  H    0.104317
    15  C   -0.362570
    16  H    0.102568
    17  H    0.115401
    18  H    0.103587
    19  C    0.073974
    20  C   -0.384632
    21  H    0.128776
    22  H    0.106148
    23  H    0.108691
    24  C   -0.345760
    25  H    0.099651
    26  H    0.111483
    27  H    0.106110
    28  C   -0.345964
    29  H    0.101754
    30  H    0.125520
    31  H    0.103170
    32  C   -0.044295
    33  C    0.048955
    34  C   -0.219362
    35  H    0.112169
    36  C   -0.095711
    37  H    0.107481
    38  C   -0.130958
    39  H    0.106828
    40  C   -0.092701
    41  H    0.116830
    42  C   -0.357629
    43  H    0.111560
    44  H    0.118919
    45  H    0.115657
    46  C   -0.007600
    47  C    0.073369
    48  C   -0.219270
    49  H    0.105630
    50  C   -0.098504
    51  H    0.102272
    52  C   -0.189111
    53  H    0.100540
    54  C   -0.077651
    55  H    0.085698
    56  C   -0.350511
    57  H    0.105533
    58  H    0.116239
    59  H    0.119115
    60  C   -0.135689
    61  H    0.125800
    62  H    0.099638
    63  C   -0.143302
    64  H    0.111175
    65  H    0.108811
 Sum of Mulliken charges =  -0.00000

 Dipole moment (field-independent basis, Debye):
    X=             -0.0993    Y=              0.8340    Z=              1.7290  Tot=              1.9222
 Quadrupole moment (field-independent basis, Debye-Ang):
   XX=           -178.0831   YY=           -179.2956   ZZ=           -185.5311
   XY=              2.1106   XZ=             -1.3344   YZ=             -3.9399

 Summary of Natural Population Analysis:

                                       Natural Population
                Natural  -----------------------------------------------
    Atom  No    Charge         Core      Valence    Rydberg      Total
 -----------------------------------------------------------------------
      P    1    0.78716      9.99843     4.18464    0.02978    14.21284
      P    2    0.82483      9.99811     4.14508    0.03199    14.17517
      C    3   -1.02631      1.99944     4.99541    0.03147     7.02631
      H    4    0.24221      0.00000     0.75507    0.00272     0.75779
      H    5    0.23783      0.00000     0.75959    0.00259     0.76217
      C    6   -0.27154      1.99945     4.24753    0.02456     6.27154
      C    7   -0.60360      1.99937     4.59093    0.01330     6.60360
      H    8    0.20382      0.00000     0.79407    0.00211     0.79618
      H    9    0.21430      0.00000     0.78422    0.00148     0.78570
      H   10    0.20501      0.00000     0.79361    0.00138     0.79499
      C   11   -0.60037      1.99937     4.58876    0.01224     6.60037
      H   12    0.20427      0.00000     0.79442    0.00132     0.79573
      H   13    0.21195      0.00000     0.78659    0.00146     0.78805
      H   14    0.19972      0.00000     0.79824    0.00204     0.80028
      C   15   -0.60256      1.99937     4.59101    0.01218     6.60256
      H   16    0.19675      0.00000     0.80093    0.00232     0.80325
      H   17    0.20040      0.00000     0.79821    0.00139     0.79960
      H   18    0.19889      0.00000     0.79962    0.00150     0.80111
      C   19   -0.26925      1.99946     4.24512    0.02467     6.26925
      C   20   -0.60105      1.99937     4.58967    0.01201     6.60105
      H   21    0.21257      0.00000     0.78589    0.00154     0.78743
      H   22    0.19927      0.00000     0.79926    0.00148     0.80073
      H   23    0.20215      0.00000     0.79576    0.00209     0.79785
      C   24   -0.60230      1.99936     4.59072    0.01222     6.60230
      H   25    0.19674      0.00000     0.80096    0.00230     0.80326
      H   26    0.20430      0.00000     0.79431    0.00139     0.79570
      H   27    0.19544      0.00000     0.80314    0.00142     0.80456
      C   28   -0.60225      1.99937     4.59054    0.01233     6.60225
      H   29    0.20170      0.00000     0.79688    0.00141     0.79830
      H   30    0.21687      0.00000     0.78183    0.00131     0.78313
      H   31    0.20091      0.00000     0.79702    0.00207     0.79909
      C   32   -0.32022      1.99892     4.28934    0.03196     6.32022
      C   33   -0.00360      1.99900     3.98310    0.02149     6.00360
      C   34   -0.21757      1.99910     4.19948    0.01900     6.21757
      H   35    0.20722      0.00000     0.79116    0.00162     0.79278
      C   36   -0.18922      1.99919     4.17082    0.01921     6.18922
      H   37    0.20721      0.00000     0.79157    0.00121     0.79279
      C   38   -0.21831      1.99916     4.19969    0.01945     6.21831
      H   39    0.20953      0.00000     0.78924    0.00123     0.79047
      C   40   -0.18892      1.99910     4.16935    0.02048     6.18892
      H   41    0.21843      0.00000     0.77999    0.00158     0.78157
      C   42   -0.58985      1.99947     4.58266    0.00772     6.58985
      H   43    0.19756      0.00000     0.80092    0.00152     0.80244
      H   44    0.20913      0.00000     0.78969    0.00118     0.79087
      H   45    0.19885      0.00000     0.79961    0.00155     0.80115
      C   46   -0.30539      1.99890     4.27667    0.02982     6.30539
      C   47   -0.01433      1.99902     3.99430    0.02102     6.01433
      C   48   -0.20514      1.99910     4.18750    0.01854     6.20514
      H   49    0.20658      0.00000     0.79186    0.00157     0.79342
      C   50   -0.20835      1.99918     4.18937    0.01979     6.20835
      H   51    0.20618      0.00000     0.79260    0.00122     0.79382
      C   52   -0.20756      1.99916     4.18939    0.01901     6.20756
      H   53    0.20616      0.00000     0.79256    0.00128     0.79384
      C   54   -0.21370      1.99908     4.19543    0.01919     6.21370
      H   55    0.19205      0.00000     0.80520    0.00275     0.80795
      C   56   -0.58707      1.99947     4.57996    0.00764     6.58707
      H   57    0.19447      0.00000     0.80403    0.00149     0.80553
      H   58    0.20791      0.00000     0.79089    0.00120     0.79209
      H   59    0.20211      0.00000     0.79640    0.00149     0.79789
      C   60   -0.41465      1.99936     4.40169    0.01360     6.41465
      H   61    0.22160      0.00000     0.77602    0.00237     0.77840
      H   62    0.20738      0.00000     0.79006    0.00256     0.79262
      C   63   -0.41377      1.99937     4.40102    0.01338     6.41377
      H   64    0.21323      0.00000     0.78446    0.00231     0.78677
      H   65    0.21419      0.00000     0.78359    0.00222     0.78581
 =======================================================================
   * Total *   -0.00000     69.97765   147.43864    0.58371   218.00000

 Normal termination of Gaussian 16 at Thu Jan 23 23:23:51 2025.
