 Gaussian 16, Revision B.01,
 Gaussian 16:  ES64L-G16RevB.01 20-Dec-2017

 --------------------------------------------
 # nmr=giao b3lyp/def2TZVP pop=nbo scfcyc=200
 --------------------------------------------

 --------------
 MB-63 SPE NoRh
 --------------
 Symbolic Z-matrix:
 Charge =  0 Multiplicity = 1

                         Standard orientation:
 ---------------------------------------------------------------------
 Center     Atomic      Atomic             Coordinates (Angstroms)
 Number     Number       Type             X           Y           Z
 ---------------------------------------------------------------------
      1         15           0       -2.594251   -0.723895   -0.392558
      2         15           0        0.188666   -0.217207   -0.698194
      3          6           0       -1.046788   -0.566195    0.669937
      4          1           0       -1.086598    0.188682    1.453592
      5          1           0       -0.811784   -1.523762    1.131450
      6          6           0       -3.419874   -2.359108    0.217442
      7          6           0       -4.815239   -2.514072   -0.409690
      8          1           0       -4.807590   -2.382606   -1.493353
      9          1           0       -5.537351   -1.816979    0.014335
     10          1           0       -5.185292   -3.522391   -0.206719
     11          6           0       -2.523876   -3.512561   -0.270021
     12          1           0       -1.545726   -3.503103    0.213789
     13          1           0       -2.370280   -3.492990   -1.348222
     14          1           0       -2.998068   -4.462093   -0.009221
     15          6           0       -3.530515   -2.451456    1.748196
     16          1           0       -2.568022   -2.330007    2.245785
     17          1           0       -3.902368   -3.445211    2.010003
     18          1           0       -4.223296   -1.726210    2.167526
     19          6           0       -3.660363    0.830602   -0.002827
     20          6           0       -4.839492    0.916121   -0.987115
     21          1           0       -4.496522    1.000130   -2.017450
     22          1           0       -5.415758    1.818226   -0.764405
     23          1           0       -5.520984    0.071011   -0.917251
     24          6           0       -2.764111    2.059095   -0.237785
     25          1           0       -1.951975    2.135137    0.484783
     26          1           0       -3.375920    2.959461   -0.134656
     27          1           0       -2.332823    2.063645   -1.239495
     28          6           0       -4.185815    0.861185    1.439327
     29          1           0       -3.398129    0.704690    2.178532
     30          1           0       -4.970075    0.126935    1.609240
     31          1           0       -4.619610    1.845953    1.633524
     32          6           0        1.675909   -1.250353   -0.376359
     33          6           0        2.955095   -0.706746   -0.265249
     34          1           0        3.100841    0.362857   -0.326574
     35          6           0        4.071070   -1.516787   -0.067920
     36          1           0        5.045081   -1.057648    0.016304
     37          6           0        3.919506   -2.901948    0.017753
     38          6           0        2.638220   -3.461253   -0.109455
     39          1           0        2.536296   -4.536433   -0.053380
     40          6           0        1.543060   -2.647495   -0.313560
     41          1           0        0.570127   -3.108689   -0.435739
     42          6           0        0.731125    1.517504   -0.470890
     43          6           0        0.724988    2.414993   -1.547119
     44          1           0        0.383462    2.086606   -2.520299
     45          6           0        1.133823    3.725265   -1.384309
     46          1           0        1.128972    4.420373   -2.213716
     47          6           0        1.558373    4.181824   -0.130507
     48          6           0        1.565989    3.297911    0.955647
     49          1           0        1.887836    3.623139    1.934973
     50          6           0        1.155306    1.983091    0.775959
     51          1           0        1.180931    1.316310    1.629821
     52          6           0        6.260917   -3.290589    0.346404
     53          1           0        6.881605   -4.170325    0.493336
     54          1           0        6.582120   -2.766081   -0.556982
     55          1           0        6.354227   -2.630124    1.211958
     56          6           0        2.382322    6.019595    1.171631
     57          1           0        3.276252    5.501375    1.529936
     58          1           0        2.625254    7.057962    0.965951
     59          1           0        1.596606    5.972574    1.929795
     60          8           0        1.933911    5.475577   -0.070923
     61          8           0        4.925408   -3.780034    0.211818
 ---------------------------------------------------------------------

 SCF Done:  E(RB3LYP) =  -1730.48281208     A.U. after   14 cycles

      1  P    Isotropic =   185.6852   Anisotropy =   105.1459

      2  P    Isotropic =   247.2503   Anisotropy =   106.6151

      3  C    Isotropic =   154.5252   Anisotropy =    32.4608

      4  H    Isotropic =    29.7031   Anisotropy =     3.9666

      5  H    Isotropic =    30.2774   Anisotropy =     5.3928

      6  C    Isotropic =   138.4462   Anisotropy =    21.6006

      7  C    Isotropic =   153.2268   Anisotropy =    37.9729

      8  H    Isotropic =    30.5014   Anisotropy =     7.4598

      9  H    Isotropic =    30.7299   Anisotropy =     7.1513

     10  H    Isotropic =    31.1139   Anisotropy =     9.4698

     11  C    Isotropic =   150.1412   Anisotropy =    46.6170

     12  H    Isotropic =    30.3471   Anisotropy =     8.3638

     13  H    Isotropic =    30.3183   Anisotropy =     7.2320

     14  H    Isotropic =    31.1923   Anisotropy =     9.0562

     15  C    Isotropic =   155.3622   Anisotropy =    38.2406

     16  H    Isotropic =    30.6321   Anisotropy =     4.7516

     17  H    Isotropic =    31.0979   Anisotropy =     9.7037

     18  H    Isotropic =    30.4548   Anisotropy =     6.5155

     19  C    Isotropic =   142.5656   Anisotropy =    16.3669

     20  C    Isotropic =   152.4943   Anisotropy =    44.7511

     21  H    Isotropic =    30.7612   Anisotropy =     7.7915

     22  H    Isotropic =    31.3459   Anisotropy =     9.4767

     23  H    Isotropic =    30.5710   Anisotropy =     7.6684

     24  C    Isotropic =   150.0035   Anisotropy =    43.4943

     25  H    Isotropic =    31.9282   Anisotropy =    11.6967

     26  H    Isotropic =    31.7736   Anisotropy =     7.2843

     27  H    Isotropic =    31.2335   Anisotropy =     9.0055

     28  C    Isotropic =   154.3826   Anisotropy =    34.3035

     29  H    Isotropic =    30.8059   Anisotropy =     4.8063

     30  H    Isotropic =    30.6779   Anisotropy =     7.2774

     31  H    Isotropic =    31.2919   Anisotropy =     9.4171

     32  C    Isotropic =    38.5498   Anisotropy =   184.6256

     33  C    Isotropic =    48.3067   Anisotropy =   179.0055

     34  H    Isotropic =    25.2480   Anisotropy =    13.9757

     35  C    Isotropic =    72.1979   Anisotropy =   153.0675

     36  H    Isotropic =    25.3969   Anisotropy =     9.1548

     37  C    Isotropic =    16.9582   Anisotropy =   140.8312

     38  C    Isotropic =    60.9476   Anisotropy =   146.0108

     39  H    Isotropic =    24.7940   Anisotropy =     7.3465

     40  C    Isotropic =    47.1451   Anisotropy =   178.5591

     41  H    Isotropic =    24.1357   Anisotropy =     9.7121

     42  C    Isotropic =    47.0424   Anisotropy =   191.3771

     43  C    Isotropic =    37.8469   Anisotropy =   180.7040

     44  H    Isotropic =    23.9872   Anisotropy =     7.7160

     45  C    Isotropic =    61.4914   Anisotropy =   145.9964

     46  H    Isotropic =    24.7380   Anisotropy =     5.8169

     47  C    Isotropic =    14.0807   Anisotropy =   146.9284

     48  C    Isotropic =    69.7460   Anisotropy =   157.8077

     49  H    Isotropic =    24.8989   Anisotropy =     8.2353

     50  C    Isotropic =    37.8045   Anisotropy =   187.4519

     51  H    Isotropic =    23.9585   Anisotropy =    10.6762

     52  C    Isotropic =   126.7777   Anisotropy =    76.1494

     53  H    Isotropic =    27.9941   Anisotropy =     8.5602

     54  H    Isotropic =    28.3386   Anisotropy =     7.9038

     55  H    Isotropic =    28.3565   Anisotropy =     7.8150

     56  C    Isotropic =   126.4736   Anisotropy =    76.0487

     57  H    Isotropic =    28.1714   Anisotropy =     8.0248

     58  H    Isotropic =    27.8711   Anisotropy =     8.4937

     59  H    Isotropic =    28.1961   Anisotropy =     7.5649

     60  O    Isotropic =   219.4895   Anisotropy =    86.3438

     61  O    Isotropic =   224.8137   Anisotropy =    77.9255

 The electronic state is 1-A.
 Alpha  occ. eigenvalues --  -77.03769 -77.03016 -19.16700 -19.15773 -10.24241
 Alpha  occ. eigenvalues --  -10.23469 -10.23059 -10.22763 -10.18711 -10.18636
 Alpha  occ. eigenvalues --  -10.18194 -10.17974 -10.17835 -10.17444 -10.17374
 Alpha  occ. eigenvalues --  -10.17315 -10.17293 -10.17071 -10.17017 -10.16881
 Alpha  occ. eigenvalues --  -10.16687 -10.15928 -10.15888 -10.15719 -10.15545
 Alpha  occ. eigenvalues --  -10.15524 -10.15497  -6.52326  -6.51541  -4.68478
 Alpha  occ. eigenvalues --   -4.68449  -4.67960  -4.67709  -4.67630  -4.67166
 Alpha  occ. eigenvalues --   -1.07857  -1.06933  -0.86011  -0.85043  -0.81618
 Alpha  occ. eigenvalues --   -0.80105  -0.77345  -0.75903  -0.75381  -0.74766
 Alpha  occ. eigenvalues --   -0.72927  -0.70370  -0.69630  -0.68929  -0.68688
 Alpha  occ. eigenvalues --   -0.68103  -0.68045  -0.62117  -0.61596  -0.61072
 Alpha  occ. eigenvalues --   -0.59499  -0.58995  -0.55462  -0.54578  -0.54155
 Alpha  occ. eigenvalues --   -0.53284  -0.50598  -0.49240  -0.48508  -0.48170
 Alpha  occ. eigenvalues --   -0.47386  -0.47344  -0.46366  -0.45312  -0.45168
 Alpha  occ. eigenvalues --   -0.44670  -0.44297  -0.43926  -0.43712  -0.43167
 Alpha  occ. eigenvalues --   -0.42694  -0.42450  -0.42390  -0.41963  -0.41383
 Alpha  occ. eigenvalues --   -0.40502  -0.39744  -0.39177  -0.38733  -0.38368
 Alpha  occ. eigenvalues --   -0.38027  -0.37776  -0.37096  -0.37074  -0.36710
 Alpha  occ. eigenvalues --   -0.36116  -0.35613  -0.34579  -0.33799  -0.33579
 Alpha  occ. eigenvalues --   -0.33373  -0.33217  -0.33076  -0.32875  -0.32522
 Alpha  occ. eigenvalues --   -0.32287  -0.29669  -0.27988  -0.26450  -0.25539
 Alpha  occ. eigenvalues --   -0.24102  -0.23014  -0.20519  -0.17672
 Alpha virt. eigenvalues --   -0.02665  -0.01476  -0.00883  -0.00381   0.02434
 Alpha virt. eigenvalues --    0.02836   0.03373   0.04062   0.04303   0.05016
 Alpha virt. eigenvalues --    0.05280   0.05975   0.06128   0.06972   0.07274

 Mulliken charges:
               1
     1  P    0.117005
     2  P    0.152905
     3  C   -0.401065
     4  H    0.115461
     5  H    0.136077
     6  C    0.075859
     7  C   -0.386786
     8  H    0.127826
     9  H    0.106748
    10  H    0.106860
    11  C   -0.362699
    12  H    0.089571
    13  H    0.128690
    14  H    0.108288
    15  C   -0.337994
    16  H    0.107082
    17  H    0.097787
    18  H    0.110792
    19  C    0.096929
    20  C   -0.357611
    21  H    0.118624
    22  H    0.102341
    23  H    0.112946
    24  C   -0.386438
    25  H    0.126658
    26  H    0.107351
    27  H    0.123229
    28  C   -0.365760
    29  H    0.115647
    30  H    0.103560
    31  H    0.101017
    32  C    0.017991
    33  C   -0.162259
    34  H    0.143687
    35  C   -0.265214
    36  H    0.106248
    37  C    0.328005
    38  C   -0.207058
    39  H    0.100076
    40  C   -0.177247
    41  H    0.146676
    42  C    0.021828
    43  C   -0.118723
    44  H    0.112494
    45  C   -0.182212
    46  H    0.105989
    47  C    0.326624
    48  C   -0.213341
    49  H    0.111775
    50  C   -0.238200
    51  H    0.123963
    52  C   -0.189625
    53  H    0.134518
    54  H    0.120337
    55  H    0.118118
    56  C   -0.192306
    57  H    0.121098
    58  H    0.137330
    59  H    0.121559
    60  O   -0.268719
    61  O   -0.274311
 Sum of Mulliken charges =  -0.00000

 Dipole moment (field-independent basis, Debye):
    X=              1.8220    Y=              2.0544    Z=              3.1617  Tot=              4.1876
 Quadrupole moment (field-independent basis, Debye-Ang):
   XX=           -161.8152   YY=           -170.5679   ZZ=           -183.8721
   XY=              5.1581   XZ=              3.9497   YZ=              5.3950

 Summary of Natural Population Analysis:

                                       Natural Population
                Natural  -----------------------------------------------
    Atom  No    Charge         Core      Valence    Rydberg      Total
 -----------------------------------------------------------------------
      P    1    0.78499      9.99845     4.18638    0.03018    14.21501
      P    2    0.83559      9.99814     4.13235    0.03392    14.16441
      C    3   -1.02254      1.99944     4.99008    0.03303     7.02254
      H    4    0.23561      0.00000     0.76164    0.00274     0.76439
      H    5    0.24606      0.00000     0.75175    0.00219     0.75394
      C    6   -0.27044      1.99946     4.24620    0.02478     6.27044
      C    7   -0.60189      1.99937     4.59045    0.01207     6.60189
      H    8    0.21252      0.00000     0.78591    0.00156     0.78748
      H    9    0.19953      0.00000     0.79898    0.00149     0.80047
      H   10    0.20112      0.00000     0.79675    0.00213     0.79888
      C   11   -0.60179      1.99937     4.59022    0.01219     6.60179
      H   12    0.19576      0.00000     0.80277    0.00147     0.80424
      H   13    0.21658      0.00000     0.78200    0.00142     0.78342
      H   14    0.20194      0.00000     0.79592    0.00214     0.79806
      C   15   -0.60400      1.99937     4.59240    0.01224     6.60400
      H   16    0.19912      0.00000     0.79934    0.00155     0.80088
      H   17    0.19465      0.00000     0.80300    0.00234     0.80535
      H   18    0.20411      0.00000     0.79452    0.00136     0.79589
      C   19   -0.27493      1.99945     4.25064    0.02484     6.27493
      C   20   -0.60023      1.99937     4.58850    0.01237     6.60023
      H   21    0.21242      0.00000     0.78612    0.00146     0.78758
      H   22    0.19878      0.00000     0.79920    0.00202     0.80122
      H   23    0.20396      0.00000     0.79472    0.00132     0.79604
      C   24   -0.60426      1.99937     4.59129    0.01360     6.60426
      H   25    0.20592      0.00000     0.79243    0.00165     0.79408
      H   26    0.20266      0.00000     0.79522    0.00211     0.79734
      H   27    0.21564      0.00000     0.78294    0.00142     0.78436
      C   28   -0.60233      1.99937     4.59069    0.01227     6.60233
      H   29    0.20064      0.00000     0.79770    0.00166     0.79936
      H   30    0.19852      0.00000     0.79997    0.00152     0.80148
      H   31    0.19580      0.00000     0.80183    0.00237     0.80420
      C   32   -0.35078      1.99898     4.32226    0.02955     6.35078
      C   33   -0.18735      1.99910     4.16804    0.02020     6.18735
      H   34    0.21384      0.00000     0.78422    0.00194     0.78616
      C   35   -0.29561      1.99905     4.27784    0.01872     6.29561
      H   36    0.20994      0.00000     0.78833    0.00172     0.79006
      C   37    0.27961      1.99878     3.69726    0.02435     5.72039
      C   38   -0.23921      1.99908     4.22113    0.01900     6.23921
      H   39    0.21760      0.00000     0.78092    0.00148     0.78240
      C   40   -0.18998      1.99909     4.17123    0.01965     6.18998
      H   41    0.20391      0.00000     0.79373    0.00236     0.79609
      C   42   -0.37075      1.99901     4.33914    0.03260     6.37075
      C   43   -0.16772      1.99911     4.14811    0.02050     6.16772
      H   44    0.21978      0.00000     0.77863    0.00159     0.78022
      C   45   -0.24970      1.99908     4.23129    0.01933     6.24970
      H   46    0.22052      0.00000     0.77805    0.00143     0.77948
      C   47    0.29533      1.99878     3.68257    0.02332     5.70467
      C   48   -0.30273      1.99905     4.28504    0.01864     6.30273
      H   49    0.21193      0.00000     0.78623    0.00183     0.78807
      C   50   -0.17577      1.99910     4.15648    0.02019     6.17577
      H   51    0.20777      0.00000     0.78974    0.00250     0.79223
      C   52   -0.24955      1.99927     4.23770    0.01258     6.24955
      H   53    0.19320      0.00000     0.80553    0.00126     0.80680
      H   54    0.17153      0.00000     0.82597    0.00250     0.82847
      H   55    0.17039      0.00000     0.82712    0.00248     0.82961
      C   56   -0.25031      1.99927     4.23849    0.01255     6.25031
      H   57    0.17205      0.00000     0.82557    0.00238     0.82795
      H   58    0.19529      0.00000     0.80346    0.00125     0.80471
      H   59    0.17235      0.00000     0.82526    0.00239     0.82765
      O   60   -0.45094      1.99973     6.42716    0.02404     8.45094
      O   61   -0.45418      1.99974     6.43047    0.02397     8.45418
 =======================================================================
   * Total *   -0.00000     69.97737   147.39893    0.62371   218.00000

 Normal termination of Gaussian 16 at Thu Jan 23 23:22:56 2025.
