 Gaussian 16, Revision B.01,
 Gaussian 16:  ES64L-G16RevB.01 20-Dec-2017

 --------------------------------------------
 # nmr=giao b3lyp/def2TZVP pop=nbo scfcyc=200
 --------------------------------------------

 --------------
 MB-72 SPE NoRh
 --------------
 Symbolic Z-matrix:
 Charge =  0 Multiplicity = 1

                         Standard orientation:
 ---------------------------------------------------------------------
 Center     Atomic      Atomic             Coordinates (Angstroms)
 Number     Number       Type             X           Y           Z
 ---------------------------------------------------------------------
      1         15           0       -1.305464    0.028732   -0.468096
      2         15           0        1.524151    0.060362   -0.545488
      3          6           0        0.143703    0.205474    0.718765
      4          1           0        0.157311    1.183236    1.197364
      5          1           0        0.167453   -0.554498    1.500137
      6          6           0       -2.559597    1.343141    0.034321
      7          1           0       -2.752701    1.158981    1.096489
      8          6           0       -1.989380    2.765480   -0.109426
      9          1           0       -1.082010    2.878245    0.486629
     10          1           0       -1.701085    2.939635   -1.151982
     11          6           0       -3.009773    3.828508    0.322234
     12          1           0       -2.581634    4.822449    0.170625
     13          1           0       -3.197890    3.731866    1.397396
     14          6           0       -4.329685    3.691874   -0.438345
     15          1           0       -5.052029    4.427691   -0.077456
     16          1           0       -4.164218    3.914497   -1.499618
     17          6           0       -4.899852    2.279310   -0.297503
     18          1           0       -5.813064    2.174210   -0.887145
     19          1           0       -5.183140    2.104204    0.746071
     20          6           0       -3.889564    1.208134   -0.731281
     21          1           0       -3.706461    1.304731   -1.807370
     22          1           0       -4.323619    0.219502   -0.577060
     23          6           0       -2.024498   -1.650163    0.007657
     24          1           0       -1.118481   -2.256067    0.115243
     25          6           0       -2.867929   -2.318879   -1.092739
     26          1           0       -3.764422   -1.727997   -1.297508
     27          1           0       -2.295008   -2.359470   -2.021346
     28          6           0       -3.285339   -3.737497   -0.676388
     29          1           0       -3.920124   -4.172265   -1.452788
     30          1           0       -2.393216   -4.370657   -0.615311
     31          6           0       -4.008965   -3.748475    0.672920
     32          1           0       -4.964529   -3.220329    0.578209
     33          1           0       -4.250492   -4.774526    0.961330
     34          6           0       -3.165701   -3.079859    1.761277
     35          1           0       -2.265554   -3.677673    1.945538
     36          1           0       -3.715486   -3.048068    2.705417
     37          6           0       -2.755988   -1.654545    1.362502
     38          1           0       -3.654258   -1.034549    1.299709
     39          1           0       -2.127122   -1.218269    2.143872
     40          6           0        2.656371    1.543147   -0.299261
     41          1           0        3.455854    1.372348   -1.029429
     42          6           0        3.289501    1.626461    1.100916
     43          1           0        3.822460    0.705778    1.346254
     44          1           0        2.499798    1.741868    1.852088
     45          6           0        4.258014    2.815197    1.203753
     46          1           0        4.653585    2.872205    2.220145
     47          1           0        5.116424    2.634595    0.546936
     48          6           0        3.589745    4.136461    0.814201
     49          1           0        4.318742    4.948792    0.843567
     50          1           0        2.818102    4.385146    1.552891
     51          6           0        2.950713    4.046239   -0.574209
     52          1           0        3.735305    3.925443   -1.329834
     53          1           0        2.428911    4.976330   -0.814547
     54          6           0        1.970420    2.869389   -0.668925
     55          1           0        1.136422    3.053321    0.015350
     56          1           0        1.541972    2.806811   -1.672274
     57          6           0        2.564723   -1.422936   -0.029018
     58          1           0        2.806873   -1.248772    1.025073
     59          6           0        1.783088   -2.744218   -0.126452
     60          1           0        1.441507   -2.889378   -1.157646
     61          1           0        0.888941   -2.703832    0.498548
     62          6           0        2.640082   -3.942692    0.304322
     63          1           0        2.865600   -3.858449    1.372926
     64          1           0        2.063832   -4.863168    0.182208
     65          6           0        3.948664   -4.020631   -0.485988
     66          1           0        4.558072   -4.851828   -0.123429
     67          1           0        3.727195   -4.232919   -1.537891
     68          6           0        4.729263   -2.709023   -0.384639
     69          1           0        5.634593   -2.754025   -0.993311
     70          1           0        5.057936   -2.559395    0.650351
     71          6           0        3.882213   -1.505306   -0.823069
     72          1           0        3.661608   -1.598648   -1.891915
     73          1           0        4.466385   -0.591061   -0.702508
 ---------------------------------------------------------------------

 SCF Done:  E(RB3LYP) =  -1663.49948034     A.U. after   15 cycles

      1  P    Isotropic =   224.9712   Anisotropy =   122.4815

      2  P    Isotropic =   230.9434   Anisotropy =    94.5689

      3  C    Isotropic =   169.6228   Anisotropy =    22.0597

      4  H    Isotropic =    30.7059   Anisotropy =     5.8260

      5  H    Isotropic =    31.0574   Anisotropy =     4.4527

      6  C    Isotropic =   142.5256   Anisotropy =    22.4236

      7  H    Isotropic =    29.9971   Anisotropy =     4.6420

      8  C    Isotropic =   149.2722   Anisotropy =     7.5263

      9  H    Isotropic =    30.2593   Anisotropy =    10.1808

     10  H    Isotropic =    30.7199   Anisotropy =     5.5728

     11  C    Isotropic =   151.6152   Anisotropy =     7.6386

     12  H    Isotropic =    30.1140   Anisotropy =     9.1613

     13  H    Isotropic =    30.5992   Anisotropy =     7.2661

     14  C    Isotropic =   152.9661   Anisotropy =     3.5010

     15  H    Isotropic =    30.2433   Anisotropy =    10.7046

     16  H    Isotropic =    30.6209   Anisotropy =     8.2860

     17  C    Isotropic =   152.1735   Anisotropy =     6.7808

     18  H    Isotropic =    30.2267   Anisotropy =     9.9828

     19  H    Isotropic =    30.6373   Anisotropy =     7.4572

     20  C    Isotropic =   149.7796   Anisotropy =    12.1204

     21  H    Isotropic =    30.8711   Anisotropy =     4.8547

     22  H    Isotropic =    30.4058   Anisotropy =     9.2256

     23  C    Isotropic =   142.9712   Anisotropy =    18.7865

     24  H    Isotropic =    30.4159   Anisotropy =     9.9035

     25  C    Isotropic =   146.5581   Anisotropy =    17.9839

     26  H    Isotropic =    30.6811   Anisotropy =     6.0987

     27  H    Isotropic =    29.9869   Anisotropy =     6.0400

     28  C    Isotropic =   150.5203   Anisotropy =     7.0330

     29  H    Isotropic =    30.1581   Anisotropy =    10.1343

     30  H    Isotropic =    30.6533   Anisotropy =     7.3880

     31  C    Isotropic =   152.7018   Anisotropy =     2.9193

     32  H    Isotropic =    30.7301   Anisotropy =     8.3821

     33  H    Isotropic =    30.2508   Anisotropy =    10.6108

     34  C    Isotropic =   150.3531   Anisotropy =     8.0492

     35  H    Isotropic =    30.6979   Anisotropy =     7.0604

     36  H    Isotropic =    30.1012   Anisotropy =     9.7066

     37  C    Isotropic =   152.2931   Anisotropy =     8.1407

     38  H    Isotropic =    30.6263   Anisotropy =     6.7587

     39  H    Isotropic =    30.0962   Anisotropy =     5.0179

     40  C    Isotropic =   140.2256   Anisotropy =    26.8000

     41  H    Isotropic =    30.4924   Anisotropy =     4.8608

     42  C    Isotropic =   152.4386   Anisotropy =    10.4007

     43  H    Isotropic =    30.1072   Anisotropy =     7.5505

     44  H    Isotropic =    30.8391   Anisotropy =     4.3398

     45  C    Isotropic =   151.5321   Anisotropy =     7.8486

     46  H    Isotropic =    30.2169   Anisotropy =     9.7698

     47  H    Isotropic =    30.7678   Anisotropy =     8.1830

     48  C    Isotropic =   152.3607   Anisotropy =     3.5047

     49  H    Isotropic =    30.2422   Anisotropy =    10.7166

     50  H    Isotropic =    30.6868   Anisotropy =     7.4095

     51  C    Isotropic =   151.2514   Anisotropy =     6.9632

     52  H    Isotropic =    30.6251   Anisotropy =     8.4138

     53  H    Isotropic =    30.1181   Anisotropy =     9.3743

     54  C    Isotropic =   148.7157   Anisotropy =     8.1660

     55  H    Isotropic =    30.7183   Anisotropy =     9.5746

     56  H    Isotropic =    30.0070   Anisotropy =     6.3164

     57  C    Isotropic =   143.6147   Anisotropy =    19.9817

     58  H    Isotropic =    30.1017   Anisotropy =     4.1371

     59  C    Isotropic =   149.2416   Anisotropy =     8.3140

     60  H    Isotropic =    30.6627   Anisotropy =     5.6481

     61  H    Isotropic =    30.2634   Anisotropy =    10.9709

     62  C    Isotropic =   151.7157   Anisotropy =     7.7571

     63  H    Isotropic =    30.6026   Anisotropy =     7.2324

     64  H    Isotropic =    30.0862   Anisotropy =     8.9811

     65  C    Isotropic =   152.9205   Anisotropy =     3.6548

     66  H    Isotropic =    30.2226   Anisotropy =    10.6879

     67  H    Isotropic =    30.6282   Anisotropy =     8.3014

     68  C    Isotropic =   151.5896   Anisotropy =     7.1427

     69  H    Isotropic =    30.1791   Anisotropy =    10.1695

     70  H    Isotropic =    30.6268   Anisotropy =     7.6726

     71  C    Isotropic =   151.7889   Anisotropy =    11.2126

     72  H    Isotropic =    30.9322   Anisotropy =     5.6226

     73  H    Isotropic =    30.4991   Anisotropy =     7.8067

 The electronic state is 1-A.
 Alpha  occ. eigenvalues --  -77.02737 -77.02736 -10.17211 -10.17158 -10.17134
 Alpha  occ. eigenvalues --  -10.17120 -10.16850 -10.16575 -10.16522 -10.16441
 Alpha  occ. eigenvalues --  -10.16408 -10.16400 -10.16377 -10.16352 -10.16333
 Alpha  occ. eigenvalues --  -10.16302 -10.16264 -10.16234 -10.16229 -10.16223
 Alpha  occ. eigenvalues --  -10.16213 -10.16210 -10.16182 -10.16162 -10.16160
 Alpha  occ. eigenvalues --  -10.16141 -10.16101  -6.51324  -6.51301  -4.67492
 Alpha  occ. eigenvalues --   -4.67465  -4.67415  -4.67394  -4.66949  -4.66929
 Alpha  occ. eigenvalues --   -0.83483  -0.83283  -0.82853  -0.82720  -0.76445
 Alpha  occ. eigenvalues --   -0.75243  -0.74261  -0.74171  -0.74071  -0.74035
 Alpha  occ. eigenvalues --   -0.73547  -0.73449  -0.71071  -0.63205  -0.61738
 Alpha  occ. eigenvalues --   -0.61054  -0.60995  -0.60866  -0.60726  -0.60121
 Alpha  occ. eigenvalues --   -0.60024  -0.55815  -0.55727  -0.55290  -0.55213
 Alpha  occ. eigenvalues --   -0.52673  -0.52064  -0.48064  -0.47631  -0.47293
 Alpha  occ. eigenvalues --   -0.46577  -0.44503  -0.44285  -0.44219  -0.44099
 Alpha  occ. eigenvalues --   -0.44023  -0.43993  -0.43792  -0.43664  -0.43419
 Alpha  occ. eigenvalues --   -0.43083  -0.42603  -0.41863  -0.41121  -0.39062
 Alpha  occ. eigenvalues --   -0.38168  -0.38062  -0.38013  -0.37943  -0.37861
 Alpha  occ. eigenvalues --   -0.37728  -0.37397  -0.37274  -0.35844  -0.35382
 Alpha  occ. eigenvalues --   -0.35073  -0.34855  -0.34617  -0.34538  -0.34440
 Alpha  occ. eigenvalues --   -0.34344  -0.34186  -0.34000  -0.33161  -0.32214
 Alpha  occ. eigenvalues --   -0.32097  -0.31756  -0.31723  -0.30933  -0.30364
 Alpha  occ. eigenvalues --   -0.30308  -0.30242  -0.30081  -0.28105  -0.27455
 Alpha  occ. eigenvalues --   -0.27357  -0.21170  -0.17497
 Alpha virt. eigenvalues --    0.01522   0.01826   0.02579   0.02962   0.03178
 Alpha virt. eigenvalues --    0.03998   0.04408   0.05041   0.05315   0.05529
 Alpha virt. eigenvalues --    0.05907   0.06159   0.06593   0.06730   0.06902

 Mulliken charges:
               1
     1  P    0.156202
     2  P    0.153288
     3  C   -0.386082
     4  H    0.112690
     5  H    0.114684
     6  C   -0.071266
     7  H    0.068632
     8  C   -0.206309
     9  H    0.075073
    10  H    0.094409
    11  C   -0.152857
    12  H    0.091317
    13  H    0.076069
    14  C   -0.154326
    15  H    0.090302
    16  H    0.078122
    17  C   -0.156523
    18  H    0.091678
    19  H    0.077263
    20  C   -0.210509
    21  H    0.089759
    22  H    0.089101
    23  C   -0.069417
    24  H    0.040533
    25  C   -0.199396
    26  H    0.086469
    27  H    0.102219
    28  C   -0.166369
    29  H    0.091801
    30  H    0.081472
    31  C   -0.153323
    32  H    0.074965
    33  H    0.091716
    34  C   -0.160444
    35  H    0.080153
    36  H    0.088476
    37  C   -0.222274
    38  H    0.090491
    39  H    0.096124
    40  C   -0.106528
    41  H    0.074184
    42  C   -0.214365
    43  H    0.100987
    44  H    0.083320
    45  C   -0.156143
    46  H    0.089331
    47  H    0.078818
    48  C   -0.160508
    49  H    0.091650
    50  H    0.074210
    51  C   -0.158026
    52  H    0.080976
    53  H    0.091981
    54  C   -0.181876
    55  H    0.062895
    56  H    0.108744
    57  C   -0.071786
    58  H    0.067989
    59  C   -0.225079
    60  H    0.094669
    61  H    0.088309
    62  C   -0.156058
    63  H    0.076741
    64  H    0.092097
    65  C   -0.156403
    66  H    0.090883
    67  H    0.078902
    68  C   -0.155147
    69  H    0.092895
    70  H    0.076522
    71  C   -0.219874
    72  H    0.090741
    73  H    0.101034
 Sum of Mulliken charges =  -0.00000

 Dipole moment (field-independent basis, Debye):
    X=              0.1939    Y=             -0.0441    Z=              1.8713  Tot=              1.8818
 Quadrupole moment (field-independent basis, Debye-Ang):
   XX=           -184.6128   YY=           -186.1241   ZZ=           -193.5942
   XY=             -0.2361   XZ=             -0.3402   YZ=              0.1178

 Summary of Natural Population Analysis:

                                       Natural Population
                Natural  -----------------------------------------------
    Atom  No    Charge         Core      Valence    Rydberg      Total
 -----------------------------------------------------------------------
      P    1    0.80999      9.99855     4.15826    0.03321    14.19001
      P    2    0.80983      9.99856     4.15815    0.03346    14.19017
      C    3   -1.02789      1.99946     4.99756    0.03087     7.02789
      H    4    0.23996      0.00000     0.75758    0.00246     0.76004
      H    5    0.23397      0.00000     0.76342    0.00261     0.76603
      C    6   -0.48599      1.99938     4.46214    0.02447     6.48599
      H    7    0.19231      0.00000     0.80414    0.00355     0.80769
      C    8   -0.38820      1.99938     4.37475    0.01407     6.38820
      H    9    0.19406      0.00000     0.80399    0.00195     0.80594
      H   10    0.19493      0.00000     0.80239    0.00268     0.80507
      C   11   -0.38010      1.99942     4.36721    0.01347     6.38010
      H   12    0.20053      0.00000     0.79807    0.00140     0.79947
      H   13    0.18635      0.00000     0.81178    0.00186     0.81365
      C   14   -0.38571      1.99942     4.37301    0.01327     6.38571
      H   15    0.20061      0.00000     0.79803    0.00136     0.79939
      H   16    0.18849      0.00000     0.80967    0.00184     0.81151
      C   17   -0.38019      1.99942     4.36735    0.01341     6.38019
      H   18    0.20070      0.00000     0.79789    0.00140     0.79930
      H   19    0.18602      0.00000     0.81213    0.00185     0.81398
      C   20   -0.39167      1.99938     4.37798    0.01432     6.39167
      H   21    0.19465      0.00000     0.80277    0.00258     0.80535
      H   22    0.19818      0.00000     0.79982    0.00200     0.80182
      C   23   -0.47882      1.99938     4.45407    0.02538     6.47882
      H   24    0.20895      0.00000     0.78816    0.00289     0.79105
      C   25   -0.39104      1.99937     4.37639    0.01528     6.39104
      H   26    0.18761      0.00000     0.81026    0.00213     0.81239
      H   27    0.21298      0.00000     0.78516    0.00187     0.78702
      C   28   -0.38221      1.99943     4.36920    0.01358     6.38221
      H   29    0.20190      0.00000     0.79675    0.00135     0.79810
      H   30    0.18661      0.00000     0.81159    0.00180     0.81339
      C   31   -0.38657      1.99942     4.37377    0.01337     6.38657
      H   32    0.18675      0.00000     0.81141    0.00184     0.81325
      H   33    0.20119      0.00000     0.79748    0.00134     0.79881
      C   34   -0.38232      1.99943     4.36935    0.01354     6.38232
      H   35    0.18546      0.00000     0.81272    0.00182     0.81454
      H   36    0.19920      0.00000     0.79932    0.00148     0.80080
      C   37   -0.39543      1.99938     4.38155    0.01450     6.39543
      H   38    0.18748      0.00000     0.81016    0.00236     0.81252
      H   39    0.19700      0.00000     0.80076    0.00225     0.80300
      C   40   -0.47739      1.99938     4.45331    0.02470     6.47739
      H   41    0.21124      0.00000     0.78626    0.00250     0.78876
      C   42   -0.39579      1.99938     4.38184    0.01456     6.39579
      H   43    0.19761      0.00000     0.80037    0.00202     0.80239
      H   44    0.18512      0.00000     0.81236    0.00252     0.81488
      C   45   -0.38276      1.99943     4.36980    0.01354     6.38276
      H   46    0.19934      0.00000     0.79918    0.00149     0.80066
      H   47    0.18606      0.00000     0.81211    0.00182     0.81394
      C   48   -0.38594      1.99943     4.37318    0.01334     6.38594
      H   49    0.20145      0.00000     0.79721    0.00133     0.79855
      H   50    0.18593      0.00000     0.81222    0.00185     0.81407
      C   51   -0.38126      1.99942     4.36825    0.01358     6.38126
      H   52    0.18785      0.00000     0.81035    0.00180     0.81215
      H   53    0.20157      0.00000     0.79707    0.00136     0.79843
      C   54   -0.39161      1.99938     4.37719    0.01504     6.39161
      H   55    0.18293      0.00000     0.81467    0.00241     0.81707
      H   56    0.21471      0.00000     0.78349    0.00179     0.78529
      C   57   -0.47995      1.99938     4.45587    0.02470     6.47995
      H   58    0.19114      0.00000     0.80520    0.00366     0.80886
      C   59   -0.39007      1.99938     4.37638    0.01431     6.39007
      H   60    0.19583      0.00000     0.80168    0.00249     0.80417
      H   61    0.19413      0.00000     0.80384    0.00203     0.80587
      C   62   -0.38026      1.99942     4.36739    0.01345     6.38026
      H   63    0.18656      0.00000     0.81159    0.00185     0.81344
      H   64    0.20094      0.00000     0.79766    0.00140     0.79906
      C   65   -0.38595      1.99942     4.37329    0.01323     6.38595
      H   66    0.20095      0.00000     0.79769    0.00136     0.79905
      H   67    0.18872      0.00000     0.80943    0.00184     0.81128
      C   68   -0.37954      1.99942     4.36670    0.01342     6.37954
      H   69    0.20113      0.00000     0.79748    0.00139     0.79887
      H   70    0.18620      0.00000     0.81195    0.00185     0.81380
      C   71   -0.39205      1.99938     4.37829    0.01438     6.39205
      H   72    0.19460      0.00000     0.80285    0.00255     0.80540
      H   73    0.19901      0.00000     0.79918    0.00181     0.80099
 =======================================================================
   * Total *    0.00000     69.98223   155.45151    0.56626   226.00000

 Normal termination of Gaussian 16 at Fri Jan 24 00:07:57 2025.
