 Gaussian 16, Revision B.01,
 Gaussian 16:  ES64L-G16RevB.01 20-Dec-2017

 --------------------------------------------
 # nmr=giao b3lyp/def2TZVP pop=nbo scfcyc=200
 --------------------------------------------

 --------------
 MB-77 SPE NoRh
 --------------
 Symbolic Z-matrix:
 Charge =  0 Multiplicity = 1

                         Standard orientation:
 ---------------------------------------------------------------------
 Center     Atomic      Atomic             Coordinates (Angstroms)
 Number     Number       Type             X           Y           Z
 ---------------------------------------------------------------------
      1         15           0       -1.912573    0.081486   -0.441373
      2         15           0        0.860507   -0.184024   -0.129133
      3          6           0       -0.656598    0.039364    0.954912
      4          1           0       -0.620946    0.989072    1.489183
      5          1           0       -0.832621   -0.757327    1.676703
      6          6           0       -2.922193   -1.440596   -0.233555
      7          6           0       -3.602388   -1.690975    0.965211
      8          1           0       -3.562307   -0.975493    1.777419
      9          6           0       -4.345174   -2.853943    1.116127
     10          1           0       -4.868909   -3.040044    2.045758
     11          6           0       -4.417914   -3.777152    0.075639
     12          1           0       -4.998801   -4.683289    0.196783
     13          6           0       -3.744857   -3.536552   -1.116240
     14          1           0       -3.798983   -4.253514   -1.925359
     15          6           0       -2.997025   -2.372050   -1.270347
     16          1           0       -2.462392   -2.191883   -2.194061
     17          6           0       -3.059746    1.491411   -0.126878
     18          6           0       -2.542334    2.739313    0.238323
     19          1           0       -1.478210    2.872088    0.393504
     20          6           0       -3.387714    3.829583    0.403785
     21          1           0       -2.977263    4.787705    0.699009
     22          6           0       -4.756211    3.691979    0.188672
     23          1           0       -5.413589    4.542471    0.316143
     24          6           0       -5.274324    2.460318   -0.194270
     25          1           0       -6.337135    2.347882   -0.366114
     26          6           0       -4.432044    1.364198   -0.353973
     27          1           0       -4.853542    0.409705   -0.643297
     28          6           0        0.699765   -3.029928    0.009521
     29          1           0        1.213119   -3.953354    0.284194
     30          1           0        0.468562   -3.079583   -1.056133
     31          1           0       -0.245378   -3.006587    0.555277
     32          6           0        1.588369   -1.829940    0.335085
     33          1           0        1.823484   -1.792323    1.402078
     34          1           0        2.540014   -1.903682   -0.193599
     35          7           0        3.259680    1.301918   -0.218764
     36          6           0        4.266758    0.276992   -0.057971
     37          6           0        4.848546   -0.266635   -1.202773
     38          6           0        4.707956   -0.149704    1.196876
     39          6           0        5.846628   -1.230430   -1.097945
     40          1           0        4.514633    0.077994   -2.173585
     41          6           0        5.700010   -1.119802    1.300737
     42          1           0        4.289237    0.277565    2.099241
     43          6           0        6.270823   -1.663521    0.153579
     44          1           0        6.292385   -1.642285   -1.995271
     45          1           0        6.036984   -1.442026    2.278074
     46          1           0        7.046415   -2.415752    0.236135
     47          6           0        3.827418    2.667812   -0.083256
     48          1           0        3.933988    2.938619    0.978456
     49          1           0        4.835906    2.623493   -0.494130
     50          6           0        3.037218    3.741170   -0.821664
     51          1           0        2.987040    3.522892   -1.889598
     52          1           0        2.017518    3.849416   -0.446353
     53          1           0        3.528649    4.707457   -0.695605
     54          6           0        2.045649    1.110320    0.553053
     55          1           0        2.213158    0.872765    1.614930
     56          1           0        1.468515    2.035277    0.523270
 ---------------------------------------------------------------------

 SCF Done:  E(RB3LYP) =  -1669.85467959     A.U. after   20 cycles

      1  P    Isotropic =   235.8034   Anisotropy =   109.6313

      2  P    Isotropic =   235.6838   Anisotropy =   101.5688

      3  C    Isotropic =   154.0868   Anisotropy =    26.9261

      4  H    Isotropic =    30.2224   Anisotropy =     4.7009

      5  H    Isotropic =    30.1017   Anisotropy =     4.8877

      6  C    Isotropic =    35.3761   Anisotropy =   205.5658

      7  C    Isotropic =    39.4568   Anisotropy =   186.4948

      8  H    Isotropic =    24.0112   Anisotropy =    10.9213

      9  C    Isotropic =    48.4807   Anisotropy =   186.3419

     10  H    Isotropic =    24.2366   Anisotropy =     5.8660

     11  C    Isotropic =    48.4264   Anisotropy =   189.5327

     12  H    Isotropic =    24.2681   Anisotropy =     4.1596

     13  C    Isotropic =    50.4789   Anisotropy =   183.2097

     14  H    Isotropic =    24.2797   Anisotropy =     5.3304

     15  C    Isotropic =    38.8571   Anisotropy =   183.5405

     16  H    Isotropic =    23.7773   Anisotropy =     7.9979

     17  C    Isotropic =    28.0573   Anisotropy =   200.7093

     18  C    Isotropic =    51.1424   Anisotropy =   179.7483

     19  H    Isotropic =    24.2287   Anisotropy =     9.9999

     20  C    Isotropic =    50.4163   Anisotropy =   181.8508

     21  H    Isotropic =    24.3349   Anisotropy =     6.3323

     22  C    Isotropic =    53.8978   Anisotropy =   179.1789

     23  H    Isotropic =    24.6476   Anisotropy =     4.2004

     24  C    Isotropic =    49.7962   Anisotropy =   183.0901

     25  H    Isotropic =    24.6116   Anisotropy =     6.1914

     26  C    Isotropic =    50.5248   Anisotropy =   181.2024

     27  H    Isotropic =    25.1139   Anisotropy =    13.0018

     28  C    Isotropic =   171.9924   Anisotropy =    18.7809

     29  H    Isotropic =    31.2774   Anisotropy =    10.1761

     30  H    Isotropic =    31.3979   Anisotropy =     7.4722

     31  H    Isotropic =    32.2036   Anisotropy =    10.6637

     32  C    Isotropic =   157.5114   Anisotropy =    13.4895

     33  H    Isotropic =    31.0514   Anisotropy =     6.0588

     34  H    Isotropic =    31.8589   Anisotropy =    15.3511

     35  N    Isotropic =   179.9310   Anisotropy =    47.4493

     36  C    Isotropic =    18.8298   Anisotropy =   176.0043

     37  C    Isotropic =    47.6691   Anisotropy =   161.0491

     38  C    Isotropic =    53.9831   Anisotropy =   192.5957

     39  C    Isotropic =    48.3789   Anisotropy =   184.7930

     40  H    Isotropic =    24.3769   Anisotropy =     8.1486

     41  C    Isotropic =    49.3372   Anisotropy =   183.8355

     42  H    Isotropic =    24.2389   Anisotropy =    10.0886

     43  C    Isotropic =    52.4367   Anisotropy =   182.0617

     44  H    Isotropic =    24.3415   Anisotropy =     5.1409

     45  H    Isotropic =    24.3804   Anisotropy =     5.5218

     46  H    Isotropic =    24.5217   Anisotropy =     3.8339

     47  C    Isotropic =   120.7553   Anisotropy =    62.7353

     48  H    Isotropic =    29.0109   Anisotropy =     6.6290

     49  H    Isotropic =    29.2122   Anisotropy =     6.7464

     50  C    Isotropic =   167.0351   Anisotropy =    26.6691

     51  H    Isotropic =    30.5173   Anisotropy =     7.7747

     52  H    Isotropic =    30.3466   Anisotropy =     6.0880

     53  H    Isotropic =    30.8956   Anisotropy =    10.8086

     54  C    Isotropic =   130.1247   Anisotropy =    58.2979

     55  H    Isotropic =    28.1240   Anisotropy =     3.8581

     56  H    Isotropic =    28.5077   Anisotropy =     6.5213

 The electronic state is 1-A.
 Alpha  occ. eigenvalues --  -77.04565 -77.03313 -14.31649 -10.20701 -10.19910
 Alpha  occ. eigenvalues --  -10.19754 -10.18432 -10.18339 -10.18231 -10.18220
 Alpha  occ. eigenvalues --  -10.18190 -10.18096 -10.18089 -10.18008 -10.17897
 Alpha  occ. eigenvalues --  -10.17767 -10.17629 -10.17617 -10.17563 -10.17451
 Alpha  occ. eigenvalues --  -10.17308 -10.17272 -10.17182 -10.17096 -10.16501
 Alpha  occ. eigenvalues --  -10.16161 -10.15973  -6.53126  -6.51908  -4.69278
 Alpha  occ. eigenvalues --   -4.69247  -4.68757  -4.68081  -4.67991  -4.67524
 Alpha  occ. eigenvalues --   -0.93233  -0.86461  -0.85544  -0.85200  -0.77816
 Alpha  occ. eigenvalues --   -0.76498  -0.76019  -0.75477  -0.75145  -0.74825
 Alpha  occ. eigenvalues --   -0.74453  -0.74051  -0.72136  -0.68018  -0.63329
 Alpha  occ. eigenvalues --   -0.62298  -0.61785  -0.61254  -0.61064  -0.60523
 Alpha  occ. eigenvalues --   -0.60009  -0.57802  -0.55738  -0.53396  -0.52300
 Alpha  occ. eigenvalues --   -0.51854  -0.50233  -0.48263  -0.47429  -0.46124
 Alpha  occ. eigenvalues --   -0.46083  -0.45862  -0.45450  -0.45175  -0.44954
 Alpha  occ. eigenvalues --   -0.44751  -0.44079  -0.43471  -0.42995  -0.42554
 Alpha  occ. eigenvalues --   -0.42338  -0.41513  -0.40842  -0.40582  -0.39633
 Alpha  occ. eigenvalues --   -0.39335  -0.38227  -0.37425  -0.37290  -0.37108
 Alpha  occ. eigenvalues --   -0.36862  -0.36508  -0.35413  -0.35305  -0.35166
 Alpha  occ. eigenvalues --   -0.35109  -0.34641  -0.34459  -0.32391  -0.31484
 Alpha  occ. eigenvalues --   -0.30862  -0.27185  -0.26518  -0.26077  -0.26034
 Alpha  occ. eigenvalues --   -0.25892  -0.25583  -0.22368  -0.21602  -0.18229
 Alpha virt. eigenvalues --   -0.03580  -0.02260  -0.01767  -0.01695  -0.01575
 Alpha virt. eigenvalues --   -0.01248   0.01357   0.02947   0.03829   0.04272
 Alpha virt. eigenvalues --    0.04619   0.05284   0.05558   0.05682   0.06286

 Mulliken charges:
               1
     1  P    0.185322
     2  P    0.197811
     3  C   -0.397656
     4  H    0.125436
     5  H    0.128873
     6  C    0.006586
     7  C   -0.188944
     8  H    0.125826
     9  C   -0.097860
    10  H    0.109673
    11  C   -0.097484
    12  H    0.112494
    13  C   -0.102697
    14  H    0.111573
    15  C   -0.145954
    16  H    0.117436
    17  C    0.038694
    18  C   -0.174169
    19  H    0.115925
    20  C   -0.131655
    21  H    0.102779
    22  C   -0.103013
    23  H    0.105532
    24  C   -0.129473
    25  H    0.105988
    26  C   -0.155718
    27  H    0.136174
    28  C   -0.343226
    29  H    0.114204
    30  H    0.110411
    31  H    0.120294
    32  C   -0.259260
    33  H    0.088959
    34  H    0.140512
    35  N   -0.119169
    36  C    0.124373
    37  C   -0.212006
    38  C   -0.189171
    39  C   -0.062232
    40  H    0.106866
    41  C   -0.087014
    42  H    0.103356
    43  C   -0.115396
    44  H    0.108375
    45  H    0.107415
    46  H    0.108074
    47  C   -0.096382
    48  H    0.072081
    49  H    0.110772
    50  C   -0.307633
    51  H    0.111054
    52  H    0.097570
    53  H    0.105478
    54  C   -0.233106
    55  H    0.084974
    56  H    0.108321
 Sum of Mulliken charges =  -0.00000

 Dipole moment (field-independent basis, Debye):
    X=              0.3969    Y=             -0.7419    Z=              2.2570  Tot=              2.4088
 Quadrupole moment (field-independent basis, Debye-Ang):
   XX=           -167.2010   YY=           -166.4261   ZZ=           -177.0136
   XY=              3.6764   XZ=             -1.2336   YZ=              3.5325

 Summary of Natural Population Analysis:

                                       Natural Population
                Natural  -----------------------------------------------
    Atom  No    Charge         Core      Valence    Rydberg      Total
 -----------------------------------------------------------------------
      P    1    0.83299      9.99817     4.13475    0.03409    14.16701
      P    2    0.78510      9.99871     4.17913    0.03707    14.21490
      C    3   -1.01199      1.99946     4.98005    0.03249     7.01199
      H    4    0.24444      0.00000     0.75343    0.00214     0.75556
      H    5    0.24276      0.00000     0.75486    0.00238     0.75724
      C    6   -0.33687      1.99901     4.30428    0.03358     6.33687
      C    7   -0.19476      1.99908     4.17548    0.02020     6.19476
      H    8    0.21014      0.00000     0.78750    0.00237     0.78986
      C    9   -0.20707      1.99919     4.18870    0.01919     6.20707
      H   10    0.20860      0.00000     0.79002    0.00139     0.79140
      C   11   -0.19607      1.99919     4.17783    0.01905     6.19607
      H   12    0.20904      0.00000     0.78980    0.00117     0.79096
      C   13   -0.20687      1.99918     4.18818    0.01951     6.20687
      H   14    0.21042      0.00000     0.78831    0.00127     0.78958
      C   15   -0.18799      1.99910     4.16782    0.02107     6.18799
      H   16    0.22004      0.00000     0.77832    0.00163     0.77996
      C   17   -0.31416      1.99899     4.28511    0.03006     6.31416
      C   18   -0.21578      1.99908     4.19642    0.02028     6.21578
      H   19    0.19637      0.00000     0.80045    0.00319     0.80363
      C   20   -0.19647      1.99919     4.17822    0.01907     6.19647
      H   21    0.20650      0.00000     0.79217    0.00133     0.79350
      C   22   -0.21896      1.99919     4.19999    0.01978     6.21896
      H   23    0.20695      0.00000     0.79183    0.00121     0.79305
      C   24   -0.19468      1.99919     4.17651    0.01899     6.19468
      H   25    0.20693      0.00000     0.79175    0.00133     0.79307
      C   26   -0.21311      1.99908     4.19380    0.02024     6.21311
      H   27    0.21347      0.00000     0.78470    0.00183     0.78653
      C   28   -0.59271      1.99946     4.58422    0.00902     6.59271
      H   29    0.20573      0.00000     0.79273    0.00154     0.79427
      H   30    0.20517      0.00000     0.79289    0.00194     0.79483
      H   31    0.19887      0.00000     0.79924    0.00188     0.80113
      C   32   -0.68588      1.99945     4.66634    0.02009     6.68588
      H   33    0.19614      0.00000     0.80091    0.00295     0.80386
      H   34    0.23106      0.00000     0.76732    0.00162     0.76894
      N   35   -0.45855      1.99945     5.42263    0.03646     7.45855
      C   36    0.14537      1.99890     3.83364    0.02209     5.85463
      C   37   -0.21451      1.99904     4.19528    0.02019     6.21451
      C   38   -0.23731      1.99903     4.21940    0.01888     6.23731
      C   39   -0.19886      1.99919     4.18102    0.01865     6.19886
      H   40    0.21871      0.00000     0.77947    0.00181     0.78129
      C   41   -0.19714      1.99920     4.17898    0.01896     6.19714
      H   42    0.20652      0.00000     0.79100    0.00248     0.79348
      C   43   -0.21532      1.99919     4.19684    0.01929     6.21532
      H   44    0.20912      0.00000     0.78966    0.00122     0.79088
      H   45    0.20732      0.00000     0.79140    0.00128     0.79268
      H   46    0.20844      0.00000     0.79040    0.00116     0.79156
      C   47   -0.19331      1.99935     4.18005    0.01391     6.19331
      H   48    0.15704      0.00000     0.83897    0.00399     0.84296
      H   49    0.19786      0.00000     0.80054    0.00161     0.80214
      C   50   -0.59590      1.99946     4.58577    0.01068     6.59590
      H   51    0.20936      0.00000     0.78906    0.00158     0.79064
      H   52    0.19446      0.00000     0.80427    0.00127     0.80554
      H   53    0.20632      0.00000     0.79269    0.00099     0.79368
      C   54   -0.48355      1.99932     4.46119    0.02304     6.48355
      H   55    0.16356      0.00000     0.83139    0.00506     0.83644
      H   56    0.21303      0.00000     0.78505    0.00192     0.78697
 =======================================================================
   * Total *    0.00000     69.97685   139.37172    0.65143   210.00000

 Normal termination of Gaussian 16 at Fri Jan 24 00:23:28 2025.
