 Gaussian 16, Revision B.01,
 Gaussian 16:  ES64L-G16RevB.01 20-Dec-2017

 --------------------------------------------
 # nmr=giao b3lyp/def2TZVP pop=nbo scfcyc=200
 --------------------------------------------

 --------------
 MB-78 SPE NoRh
 --------------
 Symbolic Z-matrix:
 Charge =  0 Multiplicity = 1

                         Standard orientation:
 ---------------------------------------------------------------------
 Center     Atomic      Atomic             Coordinates (Angstroms)
 Number     Number       Type             X           Y           Z
 ---------------------------------------------------------------------
      1         15           0        1.401057    0.373403   -0.711913
      2          6           0        1.779440    2.134889   -0.331992
      3          6           0        1.689792    3.100563   -1.337369
      4          6           0        1.997924    4.430396   -1.066500
      5          6           0        2.390384    4.807600    0.212304
      6          6           0        2.473519    3.853422    1.222917
      7          6           0        2.173422    2.524847    0.953741
      8          1           0        2.241795    1.797725    1.754583
      9          1           0        2.774721    4.144985    2.221616
     10          1           0        2.627696    5.842471    0.424123
     11          1           0        1.927795    5.169952   -1.853474
     12          1           0        1.368607    2.813818   -2.329866
     13          6           0        0.178568   -0.226718    0.567929
     14         15           0       -1.298397   -0.269583   -0.573281
     15          6           0       -2.314195   -1.760134   -0.201914
     16          6           0       -3.679881   -1.748906   -0.506521
     17          6           0       -4.449430   -2.892076   -0.320386
     18          6           0       -3.865827   -4.056482    0.167575
     19          6           0       -2.507399   -4.076754    0.463723
     20          6           0       -1.731974   -2.937427    0.274999
     21          1           0       -0.675193   -2.978779    0.505622
     22          1           0       -2.047548   -4.979976    0.846342
     23          1           0       -4.467226   -4.944170    0.316842
     24          1           0       -5.507325   -2.869129   -0.550945
     25          1           0       -4.152367   -0.845622   -0.872337
     26          6           0       -2.335973    1.168258   -0.084243
     27          6           0       -2.993223    1.185739    1.151081
     28          6           0       -3.739911    2.293596    1.527832
     29          6           0       -3.839102    3.393065    0.676889
     30          6           0       -3.187768    3.381509   -0.551301
     31          6           0       -2.436948    2.273279   -0.932026
     32          1           0       -1.922570    2.267936   -1.883951
     33          1           0       -3.262581    4.234468   -1.213617
     34          1           0       -4.424291    4.254185    0.971401
     35          1           0       -4.247298    2.300811    2.483579
     36          1           0       -2.931571    0.332719    1.816832
     37          1           0        0.501661   -1.231549    0.848093
     38          1           0        0.055022    0.386519    1.458491
     39          7           0        2.846590   -1.897784    0.121184
     40          6           0        2.460517   -4.244160   -0.689744
     41          1           0        1.520361   -4.291140   -0.136818
     42          1           0        2.341747   -4.820002   -1.608757
     43          1           0        3.229052   -4.740245   -0.096355
     44          6           0        3.022067   -0.515237   -0.257610
     45          1           0        3.426609    0.048244    0.583713
     46          1           0        3.704734   -0.360565   -1.105193
     47          6           0        2.827541   -2.805716   -1.032670
     48          1           0        3.790342   -2.789066   -1.569524
     49          1           0        2.079557   -2.411633   -1.726985
     50          6           0        3.703043   -2.310400    1.249088
     51          1           0        3.344066   -3.277910    1.602012
     52          1           0        3.516440   -1.607761    2.064703
     53          6           0        5.207214   -2.387686    0.969579
     54          1           0        5.737062   -2.679794    1.877984
     55          1           0        5.443003   -3.126932    0.201740
     56          1           0        5.610885   -1.425166    0.647485
 ---------------------------------------------------------------------

 SCF Done:  E(RB3LYP) =  -1669.85629692     A.U. after   14 cycles

      1  P    Isotropic =   258.2829   Anisotropy =   112.3328

      2  C    Isotropic =    34.5921   Anisotropy =   209.8072

      3  C    Isotropic =    40.6218   Anisotropy =   179.5268

      4  C    Isotropic =    50.6332   Anisotropy =   183.1428

      5  C    Isotropic =    49.0666   Anisotropy =   188.3813

      6  C    Isotropic =    49.5219   Anisotropy =   184.5308

      7  C    Isotropic =    42.4483   Anisotropy =   187.6398

      8  H    Isotropic =    24.0832   Anisotropy =    10.8251

      9  H    Isotropic =    24.4828   Anisotropy =     5.9957

     10  H    Isotropic =    24.4557   Anisotropy =     4.1039

     11  H    Isotropic =    24.3917   Anisotropy =     5.1851

     12  H    Isotropic =    23.7797   Anisotropy =     8.4114

     13  C    Isotropic =   157.4653   Anisotropy =    12.0263

     14  P    Isotropic =   236.4193   Anisotropy =    99.4227

     15  C    Isotropic =    29.1725   Anisotropy =   198.2344

     16  C    Isotropic =    50.1719   Anisotropy =   182.5696

     17  C    Isotropic =    49.7260   Anisotropy =   183.2532

     18  C    Isotropic =    54.2185   Anisotropy =   177.9671

     19  C    Isotropic =    50.7364   Anisotropy =   181.5439

     20  C    Isotropic =    51.3861   Anisotropy =   181.5501

     21  H    Isotropic =    24.0698   Anisotropy =     9.4775

     22  H    Isotropic =    24.3617   Anisotropy =     6.7668

     23  H    Isotropic =    24.6598   Anisotropy =     4.1855

     24  H    Isotropic =    24.5730   Anisotropy =     5.8285

     25  H    Isotropic =    24.9347   Anisotropy =    12.4237

     26  C    Isotropic =    33.0576   Anisotropy =   208.5380

     27  C    Isotropic =    40.3438   Anisotropy =   186.0778

     28  C    Isotropic =    48.8669   Anisotropy =   185.2555

     29  C    Isotropic =    48.8306   Anisotropy =   188.8719

     30  C    Isotropic =    50.8589   Anisotropy =   183.3813

     31  C    Isotropic =    40.2279   Anisotropy =   183.3020

     32  H    Isotropic =    23.8699   Anisotropy =     8.0398

     33  H    Isotropic =    24.5539   Anisotropy =     5.5466

     34  H    Isotropic =    24.5175   Anisotropy =     4.1105

     35  H    Isotropic =    24.5095   Anisotropy =     5.8114

     36  H    Isotropic =    24.1568   Anisotropy =    10.9333

     37  H    Isotropic =    28.6683   Anisotropy =     9.0126

     38  H    Isotropic =    30.1213   Anisotropy =     5.2815

     39  N    Isotropic =   203.7839   Anisotropy =    60.0435

     40  C    Isotropic =   168.0228   Anisotropy =    22.8204

     41  H    Isotropic =    30.6901   Anisotropy =     8.6289

     42  H    Isotropic =    30.7475   Anisotropy =    10.1796

     43  H    Isotropic =    30.5715   Anisotropy =     7.7264

     44  C    Isotropic =   119.2793   Anisotropy =    57.7147

     45  H    Isotropic =    28.8615   Anisotropy =     7.9136

     46  H    Isotropic =    29.0641   Anisotropy =     4.7263

     47  C    Isotropic =   135.4307   Anisotropy =    48.0093

     48  H    Isotropic =    29.1842   Anisotropy =     6.8100

     49  H    Isotropic =    28.8161   Anisotropy =     4.8703

     50  C    Isotropic =   130.5158   Anisotropy =    54.1423

     51  H    Isotropic =    28.3894   Anisotropy =     6.3222

     52  H    Isotropic =    29.1825   Anisotropy =     6.2437

     53  C    Isotropic =   177.4106   Anisotropy =    12.7561

     54  H    Isotropic =    31.4538   Anisotropy =    11.2713

     55  H    Isotropic =    30.7338   Anisotropy =     7.8293

     56  H    Isotropic =    30.9131   Anisotropy =     6.8123

 The electronic state is 1-A.
 Alpha  occ. eigenvalues --  -77.04262 -77.03708 -14.31181 -10.19739 -10.19427
 Alpha  occ. eigenvalues --  -10.19383 -10.18253 -10.18124 -10.18101 -10.18080
 Alpha  occ. eigenvalues --  -10.17990 -10.17940 -10.17920 -10.17907 -10.17887
 Alpha  occ. eigenvalues --  -10.17816 -10.17749 -10.17679 -10.17647 -10.17467
 Alpha  occ. eigenvalues --  -10.17204 -10.17148 -10.17113 -10.17007 -10.16843
 Alpha  occ. eigenvalues --  -10.16303 -10.16267  -6.52834  -6.52299  -4.68982
 Alpha  occ. eigenvalues --   -4.68959  -4.68469  -4.68458  -4.68405  -4.67919
 Alpha  occ. eigenvalues --   -0.92433  -0.86184  -0.86030  -0.85275  -0.77370
 Alpha  occ. eigenvalues --   -0.76326  -0.76092  -0.75299  -0.75050  -0.74578
 Alpha  occ. eigenvalues --   -0.74519  -0.74160  -0.72048  -0.67318  -0.64209
 Alpha  occ. eigenvalues --   -0.62800  -0.61428  -0.60981  -0.60825  -0.60192
 Alpha  occ. eigenvalues --   -0.59712  -0.57058  -0.55502  -0.54270  -0.51937
 Alpha  occ. eigenvalues --   -0.51100  -0.50027  -0.49030  -0.47929  -0.46045
 Alpha  occ. eigenvalues --   -0.45724  -0.45633  -0.45423  -0.45038  -0.44927
 Alpha  occ. eigenvalues --   -0.44611  -0.43915  -0.43044  -0.42637  -0.42591
 Alpha  occ. eigenvalues --   -0.42029  -0.41875  -0.41152  -0.39972  -0.39512
 Alpha  occ. eigenvalues --   -0.38754  -0.38376  -0.37939  -0.37392  -0.37020
 Alpha  occ. eigenvalues --   -0.36889  -0.36187  -0.35453  -0.35205  -0.34913
 Alpha  occ. eigenvalues --   -0.34736  -0.34423  -0.34360  -0.32492  -0.31966
 Alpha  occ. eigenvalues --   -0.31581  -0.26985  -0.26516  -0.26286  -0.25998
 Alpha  occ. eigenvalues --   -0.25542  -0.25281  -0.22525  -0.21347  -0.18154
 Alpha virt. eigenvalues --   -0.03533  -0.02778  -0.02060  -0.01663  -0.01479
 Alpha virt. eigenvalues --   -0.00828   0.01586   0.02983   0.03774   0.04133
 Alpha virt. eigenvalues --    0.04949   0.05278   0.05843   0.06639   0.06863

 Mulliken charges:
               1
     1  P    0.125688
     2  C    0.094642
     3  C   -0.170183
     4  C   -0.098956
     5  C   -0.098485
     6  C   -0.112830
     7  C   -0.212641
     8  H    0.122940
     9  H    0.106499
    10  H    0.110658
    11  H    0.109162
    12  H    0.114706
    13  C   -0.360437
    14  P    0.166133
    15  C    0.048188
    16  C   -0.169295
    17  C   -0.122259
    18  C   -0.104864
    19  C   -0.132372
    20  C   -0.170230
    21  H    0.114750
    22  H    0.101115
    23  H    0.104284
    24  H    0.105577
    25  H    0.126080
    26  C    0.023914
    27  C   -0.174478
    28  C   -0.106689
    29  C   -0.096317
    30  C   -0.103002
    31  C   -0.144495
    32  H    0.113859
    33  H    0.107698
    34  H    0.110160
    35  H    0.107422
    36  H    0.126384
    37  H    0.144077
    38  H    0.126619
    39  N   -0.176106
    40  C   -0.355824
    41  H    0.109906
    42  H    0.116236
    43  H    0.111633
    44  C   -0.208019
    45  H    0.116722
    46  H    0.096276
    47  C   -0.110765
    48  H    0.082080
    49  H    0.123392
    50  C   -0.151269
    51  H    0.111845
    52  H    0.103713
    53  C   -0.336679
    54  H    0.109705
    55  H    0.111494
    56  H    0.112635
 Sum of Mulliken charges =  -0.00000

 Dipole moment (field-independent basis, Debye):
    X=              1.2656    Y=              0.7774    Z=              2.0225  Tot=              2.5092
 Quadrupole moment (field-independent basis, Debye-Ang):
   XX=           -170.6569   YY=           -162.2812   ZZ=           -177.1406
   XY=             -4.9087   XZ=              1.0249   YZ=             -2.8030

 Summary of Natural Population Analysis:

                                       Natural Population
                Natural  -----------------------------------------------
    Atom  No    Charge         Core      Valence    Rydberg      Total
 -----------------------------------------------------------------------
      P    1    0.76558      9.99850     4.20139    0.03453    14.23442
      C    2   -0.32869      1.99900     4.29774    0.03195     6.32869
      C    3   -0.18715      1.99910     4.16701    0.02104     6.18715
      C    4   -0.20541      1.99918     4.18667    0.01957     6.20541
      C    5   -0.19732      1.99919     4.17897    0.01916     6.19732
      C    6   -0.20430      1.99919     4.18573    0.01939     6.20430
      C    7   -0.19814      1.99908     4.17866    0.02040     6.19814
      H    8    0.20097      0.00000     0.79638    0.00264     0.79903
      H    9    0.20712      0.00000     0.79145    0.00144     0.79288
      H   10    0.20829      0.00000     0.79050    0.00120     0.79171
      H   11    0.20884      0.00000     0.78984    0.00131     0.79116
      H   12    0.21713      0.00000     0.78120    0.00167     0.78287
      C   13   -1.01436      1.99945     4.98144    0.03348     7.01436
      P   14    0.83070      9.99814     4.13686    0.03429    14.16930
      C   15   -0.31523      1.99899     4.28635    0.02989     6.31523
      C   16   -0.21034      1.99908     4.19124    0.02001     6.21034
      C   17   -0.19529      1.99919     4.17722    0.01888     6.19529
      C   18   -0.22089      1.99919     4.20187    0.01983     6.22089
      C   19   -0.19656      1.99918     4.17832    0.01905     6.19656
      C   20   -0.21817      1.99908     4.19901    0.02007     6.21817
      H   21    0.20059      0.00000     0.79644    0.00296     0.79941
      H   22    0.20547      0.00000     0.79319    0.00134     0.79453
      H   23    0.20638      0.00000     0.79242    0.00120     0.79362
      H   24    0.20686      0.00000     0.79182    0.00132     0.79314
      H   25    0.21191      0.00000     0.78626    0.00184     0.78809
      C   26   -0.33155      1.99901     4.29885    0.03369     6.33155
      C   27   -0.19250      1.99908     4.17318    0.02023     6.19250
      C   28   -0.20585      1.99919     4.18758    0.01908     6.20585
      C   29   -0.19693      1.99919     4.17871    0.01902     6.19693
      C   30   -0.20589      1.99918     4.18726    0.01944     6.20589
      C   31   -0.18773      1.99910     4.16796    0.02067     6.18773
      H   32    0.21806      0.00000     0.78029    0.00166     0.78194
      H   33    0.20889      0.00000     0.78984    0.00128     0.79111
      H   34    0.20783      0.00000     0.79100    0.00117     0.79217
      H   35    0.20749      0.00000     0.79112    0.00138     0.79251
      H   36    0.21132      0.00000     0.78627    0.00241     0.78868
      H   37    0.26424      0.00000     0.73330    0.00246     0.73576
      H   38    0.24104      0.00000     0.75666    0.00229     0.75896
      N   39   -0.44843      1.99951     5.41638    0.03255     7.44843
      C   40   -0.59919      1.99945     4.59268    0.00705     6.59919
      H   41    0.20233      0.00000     0.79600    0.00167     0.79767
      H   42    0.21177      0.00000     0.78717    0.00106     0.78823
      H   43    0.19523      0.00000     0.80326    0.00151     0.80477
      C   44   -0.47306      1.99934     4.44990    0.02382     6.47306
      H   45    0.19787      0.00000     0.79862    0.00351     0.80213
      H   46    0.18763      0.00000     0.80862    0.00374     0.81237
      C   47   -0.21090      1.99938     4.19503    0.01649     6.21090
      H   48    0.15521      0.00000     0.84110    0.00369     0.84479
      H   49    0.20458      0.00000     0.79371    0.00171     0.79542
      C   50   -0.20407      1.99937     4.18716    0.01753     6.20407
      H   51    0.19069      0.00000     0.80754    0.00178     0.80931
      H   52    0.18800      0.00000     0.81020    0.00179     0.81200
      C   53   -0.62256      1.99946     4.61239    0.01071     6.62256
      H   54    0.20814      0.00000     0.79083    0.00103     0.79186
      H   55    0.19882      0.00000     0.79990    0.00128     0.80118
      H   56    0.20150      0.00000     0.79724    0.00126     0.79850
 =======================================================================
   * Total *   -0.00000     69.97681   139.36776    0.65543   210.00000

 Normal termination of Gaussian 16 at Fri Jan 24 00:35:50 2025.
