 Gaussian 16, Revision B.01,
 Gaussian 16:  ES64L-G16RevB.01 20-Dec-2017

 --------------------------------------------
 # nmr=giao b3lyp/def2TZVP pop=nbo scfcyc=200
 --------------------------------------------

 --------------
 MB-73 SPE NoRh
 --------------
 Symbolic Z-matrix:
 Charge =  0 Multiplicity = 1

                         Standard orientation:
 ---------------------------------------------------------------------
 Center     Atomic      Atomic             Coordinates (Angstroms)
 Number     Number       Type             X           Y           Z
 ---------------------------------------------------------------------
      1         15           0        1.420479   -0.085175   -0.605655
      2          6           0        2.595209   -1.480190   -0.248329
      3          6           0        2.806226   -3.650711    0.453055
      4          6           0        4.168264   -3.664906    0.172770
      5          6           0        4.748086   -2.515417   -0.349065
      6          6           0        3.949956   -1.397847   -0.568024
      7          1           0        4.373809   -0.483960   -0.962696
      8          1           0        5.805210   -2.484473   -0.580283
      9          1           0        4.754893   -4.554220    0.360304
     10          1           0        2.316300   -4.527334    0.862244
     11          6           0        2.330123    1.456605   -0.192838
     12          6           0        2.274779    2.540562   -1.071773
     13          6           0        2.924915    3.730121   -0.757962
     14          6           0        3.631492    3.844588    0.433691
     15          6           0        3.686781    2.767514    1.317166
     16          6           0        3.038517    1.579111    1.009114
     17          1           0        3.093320    0.748085    1.702350
     18          1           0        4.235393    2.856511    2.246444
     19          1           0        4.139167    4.769445    0.677106
     20          1           0        2.879005    4.566353   -1.444888
     21          1           0        1.718067    2.454076   -1.996144
     22          6           0        0.054233   -0.280732    0.656887
     23         15           0       -1.369060   -0.119463   -0.548170
     24          6           0       -2.550212   -1.483037   -0.174983
     25          6           0       -3.920270   -1.252411   -0.030872
     26          6           0       -4.785620   -2.317821    0.203260
     27          6           0       -4.292908   -3.613761    0.292992
     28          6           0       -2.928693   -3.848953    0.140757
     29          6           0       -2.059264   -2.792013   -0.099425
     30          1           0       -1.001501   -2.991174   -0.224924
     31          1           0       -2.540164   -4.857797    0.206726
     32          1           0       -4.968106   -4.440045    0.477401
     33          1           0       -5.845224   -2.129861    0.318408
     34          1           0       -4.320843   -0.249795   -0.097232
     35          6           0       -2.283802    1.441183   -0.137257
     36          6           0       -2.327201    1.985857    1.144265
     37          6           0       -3.055933    3.153561    1.343496
     38          6           0       -3.715731    3.725744    0.264155
     39          6           0       -3.622936    3.100949   -0.976357
     40          1           0       -4.131084    3.511274   -1.842408
     41          1           0       -4.293385    4.632823    0.375772
     42          1           0       -3.109929    3.603933    2.326475
     43          1           0       -1.820692    1.511938    1.974121
     44          1           0        0.098334   -1.287972    1.070487
     45          1           0        0.081732    0.451217    1.463254
     46          7           0        2.029429   -2.585665    0.244825
     47          7           0       -2.919663    1.986030   -1.181035
 ---------------------------------------------------------------------

 SCF Done:  E(RB3LYP) =  -1681.08252588     A.U. after   15 cycles

      1  P    Isotropic =   227.6436   Anisotropy =   114.8801

      2  C    Isotropic =     3.4239   Anisotropy =   192.5766

      3  C    Isotropic =    28.0313   Anisotropy =   168.7401

      4  C    Isotropic =    59.7270   Anisotropy =   168.2698

      5  C    Isotropic =    43.0039   Anisotropy =   200.0966

      6  C    Isotropic =    55.0102   Anisotropy =   176.9565

      7  H    Isotropic =    24.7902   Anisotropy =    12.5347

      8  H    Isotropic =    24.3294   Anisotropy =     5.8049

      9  H    Isotropic =    24.7638   Anisotropy =     4.4680

     10  H    Isotropic =    22.8752   Anisotropy =     7.1561

     11  C    Isotropic =    34.2782   Anisotropy =   206.0330

     12  C    Isotropic =    39.4506   Anisotropy =   183.9133

     13  C    Isotropic =    50.2068   Anisotropy =   184.1611

     14  C    Isotropic =    48.3091   Anisotropy =   190.3436

     15  C    Isotropic =    48.6026   Anisotropy =   185.6714

     16  C    Isotropic =    41.0461   Anisotropy =   182.1188

     17  H    Isotropic =    24.0869   Anisotropy =    10.8157

     18  H    Isotropic =    24.3481   Anisotropy =     5.8847

     19  H    Isotropic =    24.3466   Anisotropy =     4.2264

     20  H    Isotropic =    24.3920   Anisotropy =     5.3104

     21  H    Isotropic =    23.7536   Anisotropy =     7.9944

     22  C    Isotropic =   150.5731   Anisotropy =    25.2899

     23  P    Isotropic =   235.4104   Anisotropy =   121.1703

     24  C    Isotropic =    28.7886   Anisotropy =   193.7052

     25  C    Isotropic =    51.0636   Anisotropy =   179.7604

     26  C    Isotropic =    50.5205   Anisotropy =   181.3802

     27  C    Isotropic =    53.2413   Anisotropy =   179.2425

     28  C    Isotropic =    50.0632   Anisotropy =   182.6536

     29  C    Isotropic =    48.1639   Anisotropy =   184.6055

     30  H    Isotropic =    23.5286   Anisotropy =    10.2459

     31  H    Isotropic =    24.2561   Anisotropy =     6.1575

     32  H    Isotropic =    24.6331   Anisotropy =     4.3536

     33  H    Isotropic =    24.7126   Anisotropy =     6.4478

     34  H    Isotropic =    25.3821   Anisotropy =    12.8745

     35  C    Isotropic =     8.2716   Anisotropy =   194.1181

     36  C    Isotropic =    50.1971   Anisotropy =   184.1140

     37  C    Isotropic =    42.4617   Anisotropy =   201.9999

     38  C    Isotropic =    57.2039   Anisotropy =   175.1442

     39  C    Isotropic =    26.9200   Anisotropy =   172.2535

     40  H    Isotropic =    22.7694   Anisotropy =     5.5343

     41  H    Isotropic =    24.6928   Anisotropy =     4.4387

     42  H    Isotropic =    24.2736   Anisotropy =     5.9957

     43  H    Isotropic =    24.1479   Anisotropy =    11.2610

     44  H    Isotropic =    28.0020   Anisotropy =     7.3301

     45  H    Isotropic =    29.1139   Anisotropy =     4.8846

     46  N    Isotropic =   -87.9532   Anisotropy =   557.9775

     47  N    Isotropic =  -118.9874   Anisotropy =   592.1611

 The electronic state is 1-A.
 Alpha  occ. eigenvalues --  -77.04963 -77.04458 -14.31730 -14.31700 -10.21720
 Alpha  occ. eigenvalues --  -10.21626 -10.21298 -10.21262 -10.19871 -10.19679
 Alpha  occ. eigenvalues --  -10.18972 -10.18954 -10.18799 -10.18612 -10.18579
 Alpha  occ. eigenvalues --  -10.18510 -10.18471 -10.18454 -10.18347 -10.18310
 Alpha  occ. eigenvalues --  -10.18004 -10.17859 -10.16932 -10.16874 -10.16852
 Alpha  occ. eigenvalues --  -10.16810 -10.16697  -6.53548  -6.53041  -4.69687
 Alpha  occ. eigenvalues --   -4.69674  -4.69205  -4.69187  -4.69142  -4.68668
 Alpha  occ. eigenvalues --   -0.95014  -0.94991  -0.86634  -0.85125  -0.81241
 Alpha  occ. eigenvalues --   -0.81018  -0.78385  -0.77503  -0.75808  -0.75684
 Alpha  occ. eigenvalues --   -0.74908  -0.74175  -0.72500  -0.65408  -0.64157
 Alpha  occ. eigenvalues --   -0.63820  -0.63419  -0.61667  -0.61326  -0.60489
 Alpha  occ. eigenvalues --   -0.59990  -0.56748  -0.55555  -0.52934  -0.52406
 Alpha  occ. eigenvalues --   -0.50868  -0.50160  -0.49198  -0.48990  -0.46682
 Alpha  occ. eigenvalues --   -0.46504  -0.46197  -0.45681  -0.45137  -0.44560
 Alpha  occ. eigenvalues --   -0.43951  -0.43282  -0.42729  -0.42141  -0.41801
 Alpha  occ. eigenvalues --   -0.41596  -0.41004  -0.40922  -0.40146  -0.39412
 Alpha  occ. eigenvalues --   -0.38636  -0.37992  -0.36892  -0.36495  -0.35564
 Alpha  occ. eigenvalues --   -0.34354  -0.33573  -0.33467  -0.32129  -0.29929
 Alpha  occ. eigenvalues --   -0.29806  -0.28328  -0.28079  -0.27347  -0.26677
 Alpha  occ. eigenvalues --   -0.26462  -0.25972  -0.25338  -0.25134  -0.22142
 Alpha  occ. eigenvalues --   -0.18757
 Alpha virt. eigenvalues --   -0.04470  -0.04190  -0.03714  -0.03492  -0.02893
 Alpha virt. eigenvalues --   -0.02101  -0.01147  -0.00727   0.02087   0.04062
 Alpha virt. eigenvalues --    0.04280   0.04902   0.05441   0.05740   0.06579

 Mulliken charges:
               1
     1  P    0.166939
     2  C    0.151095
     3  C   -0.059564
     4  C   -0.104439
     5  C   -0.088747
     6  C   -0.196651
     7  H    0.134203
     8  H    0.121246
     9  H    0.114117
    10  H    0.114539
    11  C    0.025134
    12  C   -0.160844
    13  C   -0.103581
    14  C   -0.098663
    15  C   -0.100933
    16  C   -0.181087
    17  H    0.128134
    18  H    0.110157
    19  H    0.113362
    20  H    0.112885
    21  H    0.127186
    22  C   -0.367260
    23  P    0.221666
    24  C    0.029306
    25  C   -0.140749
    26  C   -0.131694
    27  C   -0.102436
    28  C   -0.130770
    29  C   -0.197783
    30  H    0.153659
    31  H    0.103116
    32  H    0.103816
    33  H    0.103352
    34  H    0.125229
    35  C    0.070442
    36  C   -0.168626
    37  C   -0.082935
    38  C   -0.095485
    39  C   -0.061319
    40  H    0.120773
    41  H    0.114585
    42  H    0.120883
    43  H    0.118493
    44  H    0.161513
    45  H    0.118927
    46  N   -0.284887
    47  N   -0.226305
 Sum of Mulliken charges =  -0.00000

 Dipole moment (field-independent basis, Debye):
    X=              2.1226    Y=              1.9023    Z=              3.3236  Tot=              4.3784
 Quadrupole moment (field-independent basis, Debye-Ang):
   XX=           -151.4115   YY=           -149.4462   ZZ=           -176.0087
   XY=             -9.1986   XZ=             -3.6242   YZ=              0.2036

 Summary of Natural Population Analysis:

                                       Natural Population
                Natural  -----------------------------------------------
    Atom  No    Charge         Core      Valence    Rydberg      Total
 -----------------------------------------------------------------------
      P    1    0.82030      9.99819     4.14846    0.03304    14.17970
      C    2   -0.07111      1.99909     4.03404    0.03798     6.07111
      C    3    0.04350      1.99924     3.93222    0.02505     5.95650
      C    4   -0.26407      1.99915     4.24493    0.01998     6.26407
      C    5   -0.15888      1.99918     4.14052    0.01917     6.15888
      C    6   -0.24895      1.99904     4.23025    0.01967     6.24895
      H    7    0.22029      0.00000     0.77790    0.00181     0.77971
      H    8    0.21183      0.00000     0.78686    0.00131     0.78817
      H    9    0.21420      0.00000     0.78457    0.00122     0.78580
      H   10    0.18898      0.00000     0.80970    0.00132     0.81102
      C   11   -0.33788      1.99900     4.30724    0.03165     6.33788
      C   12   -0.18687      1.99910     4.16721    0.02056     6.18687
      C   13   -0.20541      1.99918     4.18668    0.01955     6.20541
      C   14   -0.19539      1.99919     4.17717    0.01903     6.19539
      C   15   -0.20641      1.99919     4.18797    0.01925     6.20641
      C   16   -0.19364      1.99908     4.17433    0.02022     6.19364
      H   17    0.21019      0.00000     0.78766    0.00215     0.78981
      H   18    0.20847      0.00000     0.79012    0.00141     0.79153
      H   19    0.20918      0.00000     0.78964    0.00119     0.79082
      H   20    0.21101      0.00000     0.78770    0.00129     0.78899
      H   21    0.22205      0.00000     0.77641    0.00154     0.77795
      C   22   -1.00787      1.99944     4.97625    0.03218     7.00787
      P   23    0.83107      9.99820     4.13768    0.03305    14.16893
      C   24   -0.30866      1.99898     4.28035    0.02933     6.30866
      C   25   -0.20884      1.99908     4.18952    0.02024     6.20884
      C   26   -0.19748      1.99919     4.17939    0.01890     6.19748
      C   27   -0.21658      1.99919     4.19776    0.01963     6.21658
      C   28   -0.19693      1.99919     4.17885    0.01890     6.19693
      C   29   -0.21440      1.99908     4.19522    0.02009     6.21440
      H   30    0.21704      0.00000     0.78085    0.00212     0.78296
      H   31    0.20647      0.00000     0.79221    0.00132     0.79353
      H   32    0.20592      0.00000     0.79287    0.00121     0.79408
      H   33    0.20577      0.00000     0.79290    0.00133     0.79423
      H   34    0.21066      0.00000     0.78709    0.00225     0.78934
      C   35   -0.08187      1.99907     4.04385    0.03894     6.08187
      C   36   -0.23771      1.99903     4.21859    0.02009     6.23771
      C   37   -0.16479      1.99918     4.14630    0.01931     6.16479
      C   38   -0.24780      1.99915     4.22918    0.01947     6.24780
      C   39    0.03685      1.99923     3.93915    0.02476     5.96315
      H   40    0.19127      0.00000     0.80740    0.00133     0.80873
      H   41    0.21441      0.00000     0.78437    0.00122     0.78559
      H   42    0.21167      0.00000     0.78702    0.00131     0.78833
      H   43    0.21182      0.00000     0.78570    0.00249     0.78818
      H   44    0.27880      0.00000     0.71897    0.00224     0.72120
      H   45    0.24219      0.00000     0.75576    0.00205     0.75781
      N   46   -0.45682      1.99937     5.42131    0.03614     7.45682
      N   47   -0.41559      1.99942     5.38034    0.03584     7.41559
 =======================================================================
   * Total *    0.00000     69.97542   131.32044    0.70414   202.00000

 Normal termination of Gaussian 16 at Fri Jan 24 00:09:15 2025.
