 Gaussian 16, Revision B.01,
 Gaussian 16:  ES64L-G16RevB.01 20-Dec-2017

 --------------------------------------------
 # nmr=giao b3lyp/def2TZVP pop=nbo scfcyc=200
 --------------------------------------------

 -------------
 MB-7 SPE NoRh
 -------------
 Symbolic Z-matrix:
 Charge =  0 Multiplicity = 1

                         Standard orientation:
 ---------------------------------------------------------------------
 Center     Atomic      Atomic             Coordinates (Angstroms)
 Number     Number       Type             X           Y           Z
 ---------------------------------------------------------------------
      1         15           0       -2.998749   -0.193386   -0.315545
      2         15           0       -0.399722    0.666412   -0.829038
      3          6           0       -3.794005   -1.851093   -0.158064
      4          1           0       -3.216341   -2.587733   -0.716773
      5          1           0       -4.800054   -1.811175   -0.576319
      6          1           0       -3.856483   -2.154191    0.887327
      7          6           0        1.221026   -0.146009   -1.168022
      8          1           0        1.637984    0.371662   -2.039792
      9          1           0        0.969487   -1.151094   -1.521918
     10          6           0       -1.307938   -0.326388    0.474825
     11          1           0       -0.971715   -1.363803    0.448784
     12          1           0       -1.228803    0.037226    1.499972
     13          6           0       -0.032038    2.292421   -0.035059
     14          1           0        0.528404    2.166091    0.890393
     15          1           0       -0.966729    2.811297    0.176696
     16          1           0        0.549392    2.908466   -0.723012
     17          6           0       -3.998834    0.876812    0.809503
     18          1           0       -5.006591    0.984041    0.406656
     19          1           0       -3.551228    1.867480    0.875889
     20          1           0       -4.059862    0.438456    1.807175
     21          6           0        3.811261   -1.618355   -0.579687
     22          1           0        4.182516   -1.335330   -1.568274
     23          1           0        4.679031   -1.751190    0.070286
     24          1           0        3.316414   -2.587583   -0.671562
     25          6           0        1.992184   -0.863712    1.813315
     26          1           0        1.333808   -0.124901    2.275843
     27          1           0        1.449596   -1.809664    1.746994
     28          1           0        2.829178   -1.020236    2.497811
     29          6           0        3.562101    1.343944    0.282558
     30          1           0        3.909228    1.700460   -0.690319
     31          1           0        2.951050    2.130072    0.730407
     32          1           0        4.444671    1.220811    0.915537
     33         14           0        2.652256   -0.305732    0.129338
 ---------------------------------------------------------------------

 SCF Done:  E(RB3LYP) =  -1290.54250157     A.U. after   13 cycles

      1  P    Isotropic =   279.4102   Anisotropy =   145.8801

      2  P    Isotropic =   270.5207   Anisotropy =   109.7643

      3  C    Isotropic =   166.8306   Anisotropy =    25.2620

      4  H    Isotropic =    30.7207   Anisotropy =     7.2439

      5  H    Isotropic =    31.1602   Anisotropy =    10.2560

      6  H    Isotropic =    30.5750   Anisotropy =     8.4521

      7  C    Isotropic =   160.2054   Anisotropy =    26.4008

      8  H    Isotropic =    31.2124   Anisotropy =     6.8124

      9  H    Isotropic =    31.0633   Anisotropy =     4.8962

     10  C    Isotropic =   153.7689   Anisotropy =    24.7429

     11  H    Isotropic =    30.9437   Anisotropy =     5.5110

     12  H    Isotropic =    30.5097   Anisotropy =     3.5501

     13  C    Isotropic =   170.1817   Anisotropy =    16.4005

     14  H    Isotropic =    30.2794   Anisotropy =     6.8345

     15  H    Isotropic =    30.8024   Anisotropy =     8.2000

     16  H    Isotropic =    31.0315   Anisotropy =     8.7786

     17  C    Isotropic =   167.8516   Anisotropy =    23.7688

     18  H    Isotropic =    31.0669   Anisotropy =    10.5173

     19  H    Isotropic =    30.7986   Anisotropy =     6.7746

     20  H    Isotropic =    30.6029   Anisotropy =     8.4042

     21  C    Isotropic =   181.8157   Anisotropy =    12.4232

     22  H    Isotropic =    31.8687   Anisotropy =     8.5126

     23  H    Isotropic =    31.9998   Anisotropy =     9.8035

     24  H    Isotropic =    31.9606   Anisotropy =     8.0995

     25  C    Isotropic =   183.3956   Anisotropy =     3.4512

     26  H    Isotropic =    31.7580   Anisotropy =     7.1184

     27  H    Isotropic =    31.9154   Anisotropy =     7.4573

     28  H    Isotropic =    31.9253   Anisotropy =     9.8671

     29  C    Isotropic =   181.5074   Anisotropy =     9.9967

     30  H    Isotropic =    31.8533   Anisotropy =     8.5308

     31  H    Isotropic =    31.7673   Anisotropy =     7.2385

     32  H    Isotropic =    31.8842   Anisotropy =     9.8784

     33  Si   Isotropic =   312.1050   Anisotropy =    16.3967

 The electronic state is 1-A.
 Alpha  occ. eigenvalues --  -77.03475 -77.03427 -66.09104 -10.17465 -10.16508
 Alpha  occ. eigenvalues --  -10.16479 -10.16291 -10.15326 -10.15018 -10.14866
 Alpha  occ. eigenvalues --  -10.14608  -6.52041  -6.51964  -5.25192  -4.68204
 Alpha  occ. eigenvalues --   -4.68158  -4.68130  -4.68080  -4.67645  -4.67567
 Alpha  occ. eigenvalues --   -3.61006  -3.60968  -3.60958  -0.76718  -0.73835
 Alpha  occ. eigenvalues --   -0.71640  -0.69159  -0.68950  -0.68346  -0.68147
 Alpha  occ. eigenvalues --   -0.67590  -0.52989  -0.52278  -0.46190  -0.44206
 Alpha  occ. eigenvalues --   -0.43628  -0.42870  -0.42456  -0.42213  -0.41619
 Alpha  occ. eigenvalues --   -0.41193  -0.40508  -0.40123  -0.40064  -0.39750
 Alpha  occ. eigenvalues --   -0.39309  -0.38737  -0.38522  -0.37569  -0.33642
 Alpha  occ. eigenvalues --   -0.32929  -0.31400  -0.30737  -0.30408  -0.29654
 Alpha  occ. eigenvalues --   -0.21432  -0.17450
 Alpha virt. eigenvalues --    0.01210   0.01850   0.03227   0.04434   0.04966
 Alpha virt. eigenvalues --    0.05253   0.05932   0.06498   0.06980   0.07067
 Alpha virt. eigenvalues --    0.08137   0.08770   0.09049   0.09133   0.09704

 Mulliken charges:
               1
     1  P    0.191747
     2  P    0.182934
     3  C   -0.410220
     4  H    0.120900
     5  H    0.123201
     6  H    0.105582
     7  C   -0.381596
     8  H    0.118876
     9  H    0.117290
    10  C   -0.364706
    11  H    0.117249
    12  H    0.112578
    13  C   -0.434004
    14  H    0.106392
    15  H    0.129621
    16  H    0.127225
    17  C   -0.417663
    18  H    0.124522
    19  H    0.120504
    20  H    0.107470
    21  C   -0.457063
    22  H    0.116387
    23  H    0.111509
    24  H    0.113252
    25  C   -0.451717
    26  H    0.114808
    27  H    0.113959
    28  H    0.120567
    29  C   -0.456338
    30  H    0.117560
    31  H    0.122153
    32  H    0.115243
    33  Si   0.421775
 Sum of Mulliken charges =  -0.00000

 Dipole moment (field-independent basis, Debye):
    X=              0.8257    Y=             -0.4899    Z=              1.8720  Tot=              2.1038
 Quadrupole moment (field-independent basis, Debye-Ang):
   XX=            -94.0168   YY=            -93.8603   ZZ=           -100.0907
   XY=              1.5157   XZ=             -4.5567   YZ=              1.4413

 Summary of Natural Population Analysis:

                                       Natural Population
                Natural  -----------------------------------------------
    Atom  No    Charge         Core      Valence    Rydberg      Total
 -----------------------------------------------------------------------
      P    1    0.79291      9.99887     4.16621    0.04201    14.20709
      P    2    0.81582      9.99877     4.14224    0.04317    14.18418
      C    3   -0.91653      1.99946     4.89852    0.01854     6.91653
      H    4    0.22496      0.00000     0.77408    0.00095     0.77504
      H    5    0.22820      0.00000     0.77085    0.00095     0.77180
      H    6    0.20314      0.00000     0.79364    0.00321     0.79686
      C    7   -1.17275      1.99937     5.14751    0.02587     7.17275
      H    8    0.24539      0.00000     0.75361    0.00100     0.75461
      H    9    0.24253      0.00000     0.75638    0.00108     0.75747
      C   10   -1.02244      1.99947     4.99087    0.03211     7.02244
      H   11    0.24419      0.00000     0.75420    0.00161     0.75581
      H   12    0.23187      0.00000     0.76521    0.00292     0.76813
      C   13   -0.92235      1.99946     4.90364    0.01926     6.92235
      H   14    0.20157      0.00000     0.79556    0.00287     0.79843
      H   15    0.22626      0.00000     0.77265    0.00109     0.77374
      H   16    0.22964      0.00000     0.76942    0.00095     0.77036
      C   17   -0.91609      1.99946     4.89753    0.01910     6.91609
      H   18    0.22859      0.00000     0.77049    0.00092     0.77141
      H   19    0.22399      0.00000     0.77492    0.00109     0.77601
      H   20    0.20361      0.00000     0.79305    0.00334     0.79639
      C   21   -1.09134      1.99944     5.07306    0.01884     7.09134
      H   22    0.22924      0.00000     0.76998    0.00078     0.77076
      H   23    0.22466      0.00000     0.77447    0.00087     0.77534
      H   24    0.22747      0.00000     0.77173    0.00080     0.77253
      C   25   -1.09506      1.99943     5.07635    0.01927     7.09506
      H   26    0.22787      0.00000     0.77085    0.00128     0.77213
      H   27    0.22840      0.00000     0.77063    0.00097     0.77160
      H   28    0.22844      0.00000     0.77079    0.00077     0.77156
      C   29   -1.09440      1.99943     5.07603    0.01893     7.09440
      H   30    0.22949      0.00000     0.76971    0.00081     0.77051
      H   31    0.22970      0.00000     0.76915    0.00114     0.77030
      H   32    0.22754      0.00000     0.77167    0.00079     0.77246
     Si   33    1.63548      9.99837     2.33998    0.02618    12.36452
 =======================================================================
   * Total *   -0.00000     45.99154    67.69497    0.31349   114.00000

 Normal termination of Gaussian 16 at Thu Jan 23 19:25:15 2025.
