 Gaussian 16, Revision B.01,
 Gaussian 16:  ES64L-G16RevB.01 20-Dec-2017

 --------------------------------------------
 # nmr=giao b3lyp/def2TZVP pop=nbo scfcyc=200
 --------------------------------------------

 --------------
 MB-82 SPE NoRh
 --------------
 Symbolic Z-matrix:
 Charge =  0 Multiplicity = 1

                         Standard orientation:
 ---------------------------------------------------------------------
 Center     Atomic      Atomic             Coordinates (Angstroms)
 Number     Number       Type             X           Y           Z
 ---------------------------------------------------------------------
      1         15           0        1.197776    0.901300   -0.639048
      2         15           0       -1.313528   -0.340287   -0.664600
      3          6           0       -0.173255    0.492978    0.570405
      4          1           0       -0.668938    1.401985    0.909262
      5          1           0        0.125303   -0.081305    1.446925
      6          6           0        1.797221    2.607528   -0.286004
      7          6           0        3.148044    2.927661   -0.455757
      8          1           0        3.866013    2.157353   -0.708467
      9          6           0        3.586001    4.237255   -0.283444
     10          1           0        4.635439    4.470730   -0.410130
     11          6           0        2.682664    5.238331    0.053593
     12          1           0        3.025109    6.255689    0.191998
     13          6           0        1.334595    4.929860    0.211753
     14          1           0        0.625528    5.705782    0.472225
     15          6           0        0.891934    3.623754    0.033809
     16          1           0       -0.164383    3.410695    0.145500
     17          6           0        2.578832   -0.227031   -0.207841
     18          6           0        3.237082   -0.126039    1.025837
     19          1           0        2.967979    0.652620    1.729027
     20          6           0        4.247375   -1.016170    1.354375
     21          1           0        4.745976   -0.921751    2.312092
     22          6           0        4.636950   -2.031623    0.471717
     23          6           0        3.969290   -2.130752   -0.749039
     24          1           0        4.244057   -2.913868   -1.446224
     25          6           0        2.954313   -1.241993   -1.087833
     26          1           0        2.440954   -1.349000   -2.034979
     27          6           0        5.757963   -2.970982    0.827154
     28          1           0        5.726677   -3.246760    1.882279
     29          1           0        6.727317   -2.499089    0.644218
     30          1           0        5.718966   -3.883556    0.232876
     31          6           0       -3.011287    0.214769   -0.229453
     32          6           0       -3.479919    1.425693   -0.746803
     33          1           0       -2.868209    1.991348   -1.440419
     34          6           0       -4.725797    1.917060   -0.376444
     35          1           0       -5.069970    2.859057   -0.787135
     36          6           0       -5.542631    1.214560    0.512636
     37          6           0       -5.063868    0.005822    1.028382
     38          1           0       -5.674576   -0.555343    1.725717
     39          6           0       -3.818492   -0.490347    0.668255
     40          1           0       -3.480560   -1.430048    1.087535
     41          6           0       -1.281556   -2.153606   -0.361402
     42          6           0       -0.374108   -2.764297    0.506016
     43          1           0        0.337003   -2.177549    1.071866
     44          6           0       -0.364946   -4.148785    0.650436
     45          1           0        0.340291   -4.610089    1.330181
     46          6           0       -1.256755   -4.935010   -0.067912
     47          1           0       -1.249552   -6.011233    0.049044
     48          6           0       -2.161298   -4.333707   -0.940374
     49          1           0       -2.860084   -4.940057   -1.503089
     50          6           0       -2.170315   -2.952877   -1.091976
     51          1           0       -2.885945   -2.499059   -1.767144
     52          6           0       -6.908106    1.726699    0.885311
     53          1           0       -6.967779    2.810651    0.786607
     54          1           0       -7.167292    1.460267    1.910184
     55          1           0       -7.672647    1.294852    0.232368
 ---------------------------------------------------------------------

 SCF Done:  E(RB3LYP) =  -1727.66089334     A.U. after   15 cycles

      1  P    Isotropic =   233.3810   Anisotropy =   107.0081

      2  P    Isotropic =   238.7673   Anisotropy =    73.7520

      3  C    Isotropic =   148.3284   Anisotropy =    28.8821

      4  H    Isotropic =    29.9753   Anisotropy =     5.7690

      5  H    Isotropic =    29.1406   Anisotropy =     4.0390

      6  C    Isotropic =    29.5602   Anisotropy =   198.7457

      7  C    Isotropic =    50.3479   Anisotropy =   182.3346

      8  H    Isotropic =    24.8516   Anisotropy =    12.6740

      9  C    Isotropic =    49.7171   Anisotropy =   183.0121

     10  H    Isotropic =    24.5346   Anisotropy =     6.1808

     11  C    Isotropic =    53.8425   Anisotropy =   179.1425

     12  H    Isotropic =    24.6157   Anisotropy =     4.2190

     13  C    Isotropic =    50.3301   Anisotropy =   182.5238

     14  H    Isotropic =    24.3492   Anisotropy =     6.2920

     15  C    Isotropic =    51.1906   Anisotropy =   182.4796

     16  H    Isotropic =    24.1732   Anisotropy =    10.4027

     17  C    Isotropic =    38.1217   Anisotropy =   202.7017

     18  C    Isotropic =    40.1795   Anisotropy =   183.2056

     19  H    Isotropic =    23.9719   Anisotropy =    10.9709

     20  C    Isotropic =    47.9996   Anisotropy =   168.2244

     21  H    Isotropic =    24.3497   Anisotropy =     7.6182

     22  C    Isotropic =    34.8408   Anisotropy =   206.2346

     23  C    Isotropic =    49.5422   Anisotropy =   162.1578

     24  H    Isotropic =    24.5574   Anisotropy =     6.7044

     25  C    Isotropic =    38.8077   Anisotropy =   181.6313

     26  H    Isotropic =    24.0100   Anisotropy =     7.6171

     27  C    Isotropic =   160.2500   Anisotropy =    41.5458

     28  H    Isotropic =    29.4514   Anisotropy =     7.4345

     29  H    Isotropic =    29.2505   Anisotropy =     8.9963

     30  H    Isotropic =    29.6684   Anisotropy =     7.1531

     31  C    Isotropic =    34.5743   Anisotropy =   203.1443

     32  C    Isotropic =    43.4387   Anisotropy =   176.3615

     33  H    Isotropic =    23.7816   Anisotropy =     9.1200

     34  C    Isotropic =    49.0474   Anisotropy =   162.3051

     35  H    Isotropic =    24.3560   Anisotropy =     7.2807

     36  C    Isotropic =    36.6073   Anisotropy =   202.5806

     37  C    Isotropic =    48.6783   Anisotropy =   165.1486

     38  H    Isotropic =    24.6748   Anisotropy =     8.3619

     39  C    Isotropic =    44.4497   Anisotropy =   182.7362

     40  H    Isotropic =    24.6423   Anisotropy =    12.9951

     41  C    Isotropic =    36.5801   Anisotropy =   200.5705

     42  C    Isotropic =    50.1195   Anisotropy =   188.6880

     43  H    Isotropic =    25.1044   Anisotropy =     7.9849

     44  C    Isotropic =    50.3753   Anisotropy =   183.5163

     45  H    Isotropic =    24.7522   Anisotropy =     7.0699

     46  C    Isotropic =    52.5141   Anisotropy =   181.3922

     47  H    Isotropic =    24.5971   Anisotropy =     4.3323

     48  C    Isotropic =    50.0926   Anisotropy =   183.4658

     49  H    Isotropic =    24.4044   Anisotropy =     5.0956

     50  C    Isotropic =    46.2320   Anisotropy =   185.5538

     51  H    Isotropic =    24.3177   Anisotropy =    10.6302

     52  C    Isotropic =   160.4537   Anisotropy =    41.4688

     53  H    Isotropic =    29.6429   Anisotropy =     7.4717

     54  H    Isotropic =    29.6275   Anisotropy =     7.5220

     55  H    Isotropic =    29.2991   Anisotropy =     8.7640

 The electronic state is 1-A.
 Alpha  occ. eigenvalues --  -77.04723 -77.04662 -10.19174 -10.18711 -10.18475
 Alpha  occ. eigenvalues --  -10.18435 -10.18280 -10.18137 -10.18054 -10.18011
 Alpha  occ. eigenvalues --  -10.17890 -10.17777 -10.17689 -10.17664 -10.17644
 Alpha  occ. eigenvalues --  -10.17633 -10.17594 -10.17551 -10.17541 -10.17523
 Alpha  occ. eigenvalues --  -10.17444 -10.17433 -10.17424 -10.17423 -10.17358
 Alpha  occ. eigenvalues --  -10.17286 -10.17264 -10.17132 -10.17111  -6.53284
 Alpha  occ. eigenvalues --   -6.53233  -4.69440  -4.69401  -4.69385  -4.69353
 Alpha  occ. eigenvalues --   -4.68920  -4.68868  -0.86614  -0.86305  -0.85767
 Alpha  occ. eigenvalues --   -0.85588  -0.78834  -0.78193  -0.76018  -0.75361
 Alpha  occ. eigenvalues --   -0.75183  -0.74961  -0.74820  -0.74697  -0.72804
 Alpha  occ. eigenvalues --   -0.69686  -0.68799  -0.62891  -0.61645  -0.61336
 Alpha  occ. eigenvalues --   -0.60949  -0.60698  -0.60396  -0.59150  -0.58901
 Alpha  occ. eigenvalues --   -0.56069  -0.55207  -0.51828  -0.51521  -0.49175
 Alpha  occ. eigenvalues --   -0.48493  -0.47237  -0.46954  -0.45823  -0.45624
 Alpha  occ. eigenvalues --   -0.45489  -0.45264  -0.44984  -0.44756  -0.43864
 Alpha  occ. eigenvalues --   -0.42999  -0.42670  -0.42645  -0.42412  -0.42330
 Alpha  occ. eigenvalues --   -0.42167  -0.41550  -0.39942  -0.39512  -0.39186
 Alpha  occ. eigenvalues --   -0.38886  -0.37847  -0.37335  -0.37280  -0.36529
 Alpha  occ. eigenvalues --   -0.36344  -0.35439  -0.34898  -0.34669  -0.34598
 Alpha  occ. eigenvalues --   -0.34352  -0.32673  -0.32288  -0.31851  -0.27560
 Alpha  occ. eigenvalues --   -0.26921  -0.26386  -0.26077  -0.25816  -0.25709
 Alpha  occ. eigenvalues --   -0.25571  -0.24706  -0.21580  -0.18565
 Alpha virt. eigenvalues --   -0.03373  -0.02769  -0.02561  -0.02213  -0.01981
 Alpha virt. eigenvalues --   -0.01651  -0.01176  -0.00779   0.02524   0.03683
 Alpha virt. eigenvalues --    0.04334   0.04532   0.05031   0.05363   0.05964

 Mulliken charges:
               1
     1  P    0.179006
     2  P    0.154737
     3  C   -0.373968
     4  H    0.137902
     5  H    0.128246
     6  C    0.069325
     7  C   -0.178992
     8  H    0.133147
     9  C   -0.118244
    10  H    0.106321
    11  C   -0.110924
    12  H    0.105684
    13  C   -0.121764
    14  H    0.104664
    15  C   -0.194879
    16  H    0.114448
    17  C   -0.007999
    18  C   -0.182364
    19  H    0.123115
    20  C   -0.162805
    21  H    0.102316
    22  C    0.171036
    23  C   -0.172302
    24  H    0.103395
    25  C   -0.123100
    26  H    0.116718
    27  C   -0.359867
    28  H    0.118484
    29  H    0.124466
    30  H    0.117239
    31  C    0.022704
    32  C   -0.187836
    33  H    0.115247
    34  C   -0.168176
    35  H    0.101833
    36  C    0.170429
    37  C   -0.191334
    38  H    0.099685
    39  C   -0.142709
    40  H    0.134949
    41  C    0.078165
    42  C   -0.157707
    43  H    0.126365
    44  C   -0.134621
    45  H    0.104920
    46  C   -0.110127
    47  H    0.107008
    48  C   -0.100789
    49  H    0.108480
    50  C   -0.190917
    51  H    0.114089
    52  C   -0.359454
    53  H    0.115765
    54  H    0.117423
    55  H    0.123565
 Sum of Mulliken charges =  -0.00000

 Dipole moment (field-independent basis, Debye):
    X=              0.1203    Y=             -0.8293    Z=              2.2468  Tot=              2.3980
 Quadrupole moment (field-independent basis, Debye-Ang):
   XX=           -164.0382   YY=           -172.9107   ZZ=           -190.2350
   XY=             -8.0107   XZ=              1.8112   YZ=              1.2128

 Summary of Natural Population Analysis:

                                       Natural Population
                Natural  -----------------------------------------------
    Atom  No    Charge         Core      Valence    Rydberg      Total
 -----------------------------------------------------------------------
      P    1    0.83162      9.99814     4.13606    0.03418    14.16838
      P    2    0.83445      9.99815     4.13352    0.03388    14.16555
      C    3   -0.99682      1.99944     4.96456    0.03283     6.99682
      H    4    0.25531      0.00000     0.74309    0.00160     0.74469
      H    5    0.24016      0.00000     0.75729    0.00254     0.75984
      C    6   -0.31559      1.99899     4.28681    0.02979     6.31559
      C    7   -0.21183      1.99908     4.19271    0.02004     6.21183
      H    8    0.21339      0.00000     0.78479    0.00181     0.78661
      C    9   -0.19512      1.99919     4.17704    0.01890     6.19512
      H   10    0.20715      0.00000     0.79153    0.00132     0.79285
      C   11   -0.21871      1.99919     4.19980    0.01972     6.21871
      H   12    0.20698      0.00000     0.79182    0.00120     0.79302
      C   13   -0.19539      1.99919     4.17723    0.01897     6.19539
      H   14    0.20701      0.00000     0.79168    0.00131     0.79299
      C   15   -0.21543      1.99908     4.19646    0.01989     6.21543
      H   16    0.19935      0.00000     0.79806    0.00258     0.80065
      C   17   -0.35110      1.99900     4.31951    0.03258     6.35110
      C   18   -0.18548      1.99909     4.16707    0.01932     6.18548
      H   19    0.21104      0.00000     0.78663    0.00233     0.78896
      C   20   -0.20846      1.99908     4.19131    0.01808     6.20846
      H   21    0.20187      0.00000     0.79642    0.00171     0.79813
      C   22   -0.00515      1.99913     3.98713    0.01889     6.00515
      C   23   -0.20711      1.99909     4.18975    0.01827     6.20711
      H   24    0.20643      0.00000     0.79211    0.00146     0.79357
      C   25   -0.17632      1.99910     4.15661    0.02061     6.17632
      H   26    0.22079      0.00000     0.77763    0.00158     0.77921
      C   27   -0.61169      1.99941     4.60045    0.01183     6.61169
      H   28    0.21294      0.00000     0.78594    0.00113     0.78706
      H   29    0.21731      0.00000     0.78142    0.00126     0.78269
      H   30    0.21176      0.00000     0.78714    0.00110     0.78824
      C   31   -0.33777      1.99898     4.30787    0.03092     6.33777
      C   32   -0.19228      1.99910     4.17260    0.02057     6.19228
      H   33    0.21376      0.00000     0.78458    0.00165     0.78624
      C   34   -0.20511      1.99909     4.18759    0.01843     6.20511
      H   35    0.20456      0.00000     0.79392    0.00152     0.79544
      C   36   -0.01280      1.99913     3.99397    0.01970     6.01280
      C   37   -0.20290      1.99909     4.18565    0.01816     6.20290
      H   38    0.20299      0.00000     0.79542    0.00159     0.79701
      C   39   -0.18824      1.99909     4.16902    0.02014     6.18824
      H   40    0.21380      0.00000     0.78398    0.00221     0.78620
      C   41   -0.32552      1.99900     4.29475    0.03177     6.32552
      C   42   -0.21256      1.99908     4.19343    0.02005     6.21256
      H   43    0.20644      0.00000     0.79101    0.00255     0.79356
      C   44   -0.19681      1.99919     4.17878    0.01884     6.19681
      H   45    0.20744      0.00000     0.79127    0.00129     0.79256
      C   46   -0.21356      1.99919     4.19487    0.01950     6.21356
      H   47    0.20742      0.00000     0.79140    0.00118     0.79258
      C   48   -0.19864      1.99919     4.18078    0.01867     6.19864
      H   49    0.20849      0.00000     0.79023    0.00127     0.79151
      C   50   -0.20220      1.99909     4.18317    0.01994     6.20220
      H   51    0.21204      0.00000     0.78604    0.00192     0.78796
      C   52   -0.61079      1.99941     4.59934    0.01204     6.61079
      H   53    0.21072      0.00000     0.78813    0.00115     0.78928
      H   54    0.21196      0.00000     0.78686    0.00118     0.78804
      H   55    0.21615      0.00000     0.78255    0.00130     0.78385
 =======================================================================
   * Total *    0.00000     73.97297   143.34879    0.67824   218.00000

 Normal termination of Gaussian 16 at Fri Jan 24 00:46:35 2025.
