 Gaussian 16, Revision B.01,
 Gaussian 16:  ES64L-G16RevB.01 20-Dec-2017

 --------------------------------------------
 # nmr=giao b3lyp/def2TZVP pop=nbo scfcyc=200
 --------------------------------------------

 --------------
 MB-88 SPE NoRh
 --------------
 Symbolic Z-matrix:
 Charge =  0 Multiplicity = 1

                         Standard orientation:
 ---------------------------------------------------------------------
 Center     Atomic      Atomic             Coordinates (Angstroms)
 Number     Number       Type             X           Y           Z
 ---------------------------------------------------------------------
      1         15           0        1.211011   -0.521618   -0.488722
      2          6           0        2.436266   -1.870672   -0.211786
      3          6           0        2.000821   -3.197387   -0.146710
      4          6           0        2.929526   -4.222480   -0.014538
      5          6           0        4.288875   -3.936237    0.037676
      6          6           0        4.747358   -2.619965   -0.040973
      7          6           0        3.805458   -1.596326   -0.168931
      8          1           0        4.152136   -0.572085   -0.225772
      9          1           0        5.002602   -4.745656    0.137076
     10          1           0        2.591862   -5.249818    0.044073
     11          1           0        0.948103   -3.441118   -0.205552
     12          6           0        2.025918    1.027824    0.066844
     13          6           0        2.224666    2.065244   -0.845497
     14          6           0        2.845673    3.257251   -0.466626
     15          6           0        3.255634    3.390980    0.861461
     16          6           0        3.059150    2.365262    1.781609
     17          6           0        2.447541    1.181411    1.390608
     18          1           0        2.309565    0.385721    2.112986
     19          1           0        3.383664    2.491103    2.806878
     20          1           0        3.733311    4.309104    1.182730
     21          1           0        1.880699    1.946989   -1.866888
     22          6           0       -0.222623   -0.797218    0.689132
     23         15           0       -1.557961   -0.205007   -0.489485
     24          6           0       -3.048581   -1.260300   -0.239551
     25          6           0       -4.321207   -0.699327   -0.139957
     26          6           0       -5.432480   -1.531271   -0.030837
     27          6           0       -5.281486   -2.909952   -0.022734
     28          6           0       -4.014732   -3.494886   -0.130951
     29          6           0       -2.911198   -2.653760   -0.250692
     30          1           0       -1.929758   -3.102008   -0.362027
     31          1           0       -6.156043   -3.544440    0.065707
     32          1           0       -6.420977   -1.096021    0.049639
     33          1           0       -4.453873    0.374353   -0.136616
     34          6           0       -2.015517    1.475373    0.094401
     35          6           0       -2.420808    1.686561    1.414370
     36          6           0       -2.760965    2.967888    1.830410
     37          6           0       -2.700351    4.034137    0.938747
     38          6           0       -2.293581    3.846204   -0.384226
     39          6           0       -1.952679    2.554299   -0.789241
     40          1           0       -1.625224    2.388901   -1.808412
     41          1           0       -2.973000    5.026906    1.276733
     42          1           0       -3.078598    3.136290    2.851708
     43          1           0       -2.485659    0.861886    2.114150
     44          1           0       -0.344670   -1.861499    0.881469
     45          1           0       -0.163484   -0.265888    1.638216
     46          6           0       -3.855003   -4.993279   -0.107862
     47          1           0       -2.847832   -5.294522   -0.394722
     48          1           0       -4.048906   -5.390062    0.892707
     49          1           0       -4.559400   -5.476283   -0.788155
     50          6           0       -2.211656    5.010753   -1.337304
     51          1           0       -3.115161    5.621749   -1.295235
     52          1           0       -1.368901    5.661126   -1.087459
     53          1           0       -2.079079    4.675818   -2.366716
     54          6           0        3.084904    4.361008   -1.464000
     55          1           0        2.909437    5.342061   -1.021749
     56          1           0        4.119292    4.346372   -1.819675
     57          1           0        2.436236    4.260107   -2.335295
     58          6           0        6.219615   -2.308106    0.041419
     59          1           0        6.443367   -1.323930   -0.370065
     60          1           0        6.561438   -2.317577    1.079641
     61          1           0        6.811895   -3.046368   -0.501855
 ---------------------------------------------------------------------

 SCF Done:  E(RB3LYP) =  -1806.32323201     A.U. after   15 cycles

      1  P    Isotropic =   235.7359   Anisotropy =   105.3565

      2  C    Isotropic =    27.6971   Anisotropy =   194.5720

      3  C    Isotropic =    53.6509   Anisotropy =   176.1890

      4  C    Isotropic =    50.6149   Anisotropy =   178.9177

      5  C    Isotropic =    53.0285   Anisotropy =   161.7967

      6  C    Isotropic =    37.2056   Anisotropy =   198.1888

      7  C    Isotropic =    49.9807   Anisotropy =   159.8307

      8  H    Isotropic =    25.4238   Anisotropy =    14.9676

      9  H    Isotropic =    24.7722   Anisotropy =     6.2128

     10  H    Isotropic =    24.3541   Anisotropy =     5.9623

     11  H    Isotropic =    24.1326   Anisotropy =    10.0376

     12  C    Isotropic =    36.2765   Anisotropy =   204.1294

     13  C    Isotropic =    38.9145   Anisotropy =   161.1351

     14  C    Isotropic =    38.1011   Anisotropy =   199.5144

     15  C    Isotropic =    47.8559   Anisotropy =   173.4107

     16  C    Isotropic =    48.7763   Anisotropy =   183.8408

     17  C    Isotropic =    43.1714   Anisotropy =   185.5692

     18  H    Isotropic =    24.3409   Anisotropy =     9.5478

     19  H    Isotropic =    24.5244   Anisotropy =     5.2353

     20  H    Isotropic =    24.5812   Anisotropy =     5.7469

     21  H    Isotropic =    23.9412   Anisotropy =     9.3264

     22  C    Isotropic =   144.3534   Anisotropy =    18.6949

     23  P    Isotropic =   236.3690   Anisotropy =   103.5308

     24  C    Isotropic =    28.0514   Anisotropy =   194.0648

     25  C    Isotropic =    53.6872   Anisotropy =   178.4092

     26  C    Isotropic =    49.9777   Anisotropy =   179.2536

     27  C    Isotropic =    52.5216   Anisotropy =   163.8402

     28  C    Isotropic =    38.0619   Anisotropy =   197.4550

     29  C    Isotropic =    49.5639   Anisotropy =   155.3949

     30  H    Isotropic =    24.1355   Anisotropy =    12.1284

     31  H    Isotropic =    24.7410   Anisotropy =     6.2912

     32  H    Isotropic =    24.7007   Anisotropy =     6.4818

     33  H    Isotropic =    25.4354   Anisotropy =    13.2254

     34  C    Isotropic =    36.4288   Anisotropy =   203.6554

     35  C    Isotropic =    43.0020   Anisotropy =   185.1805

     36  C    Isotropic =    48.9909   Anisotropy =   183.5571

     37  C    Isotropic =    47.7739   Anisotropy =   174.8554

     38  C    Isotropic =    37.9156   Anisotropy =   199.5527

     39  C    Isotropic =    39.1013   Anisotropy =   159.6230

     40  H    Isotropic =    24.0439   Anisotropy =     9.2663

     41  H    Isotropic =    24.5929   Anisotropy =     5.9436

     42  H    Isotropic =    24.5147   Anisotropy =     5.3420

     43  H    Isotropic =    24.3083   Anisotropy =     9.7987

     44  H    Isotropic =    29.3184   Anisotropy =     7.2131

     45  H    Isotropic =    28.8817   Anisotropy =     3.2749

     46  C    Isotropic =   160.1113   Anisotropy =    41.3397

     47  H    Isotropic =    29.7024   Anisotropy =     6.2882

     48  H    Isotropic =    29.2414   Anisotropy =     8.2521

     49  H    Isotropic =    29.3205   Anisotropy =     8.4773

     50  C    Isotropic =   160.5344   Anisotropy =    40.6164

     51  H    Isotropic =    29.4757   Anisotropy =     9.0296

     52  H    Isotropic =    29.4243   Anisotropy =     7.3569

     53  H    Isotropic =    29.7698   Anisotropy =     5.5535

     54  C    Isotropic =   160.4252   Anisotropy =    40.8203

     55  H    Isotropic =    29.5829   Anisotropy =     7.5032

     56  H    Isotropic =    29.2739   Anisotropy =     9.1532

     57  H    Isotropic =    29.6760   Anisotropy =     5.5289

     58  C    Isotropic =   160.6287   Anisotropy =    41.0510

     59  H    Isotropic =    30.1552   Anisotropy =     5.7014

     60  H    Isotropic =    29.5704   Anisotropy =     8.1834

     61  H    Isotropic =    29.6984   Anisotropy =     8.7775

 The electronic state is 1-A.
 Alpha  occ. eigenvalues --  -77.04477 -77.04463 -10.18812 -10.18742 -10.18220
 Alpha  occ. eigenvalues --  -10.18183 -10.18172 -10.18114 -10.18038 -10.17915
 Alpha  occ. eigenvalues --  -10.17903 -10.17827 -10.17767 -10.17765 -10.17726
 Alpha  occ. eigenvalues --  -10.17721 -10.17699 -10.17663 -10.17656 -10.17246
 Alpha  occ. eigenvalues --  -10.17181 -10.17181 -10.17068 -10.17051 -10.17027
 Alpha  occ. eigenvalues --  -10.16768 -10.16700 -10.16683 -10.16618 -10.16597
 Alpha  occ. eigenvalues --  -10.16590  -6.53044  -6.53030  -4.69197  -4.69183
 Alpha  occ. eigenvalues --   -4.69163  -4.69148  -4.68680  -4.68666  -0.86514
 Alpha  occ. eigenvalues --   -0.86415  -0.85645  -0.85608  -0.78634  -0.78079
 Alpha  occ. eigenvalues --   -0.77340  -0.77188  -0.76293  -0.75622  -0.74473
 Alpha  occ. eigenvalues --   -0.74245  -0.72292  -0.69212  -0.69143  -0.68547
 Alpha  occ. eigenvalues --   -0.68487  -0.63824  -0.61968  -0.60529  -0.60241
 Alpha  occ. eigenvalues --   -0.59585  -0.59375  -0.58507  -0.58189  -0.54426
 Alpha  occ. eigenvalues --   -0.53673  -0.51291  -0.50970  -0.50232  -0.49535
 Alpha  occ. eigenvalues --   -0.47152  -0.46992  -0.46464  -0.46435  -0.44853
 Alpha  occ. eigenvalues --   -0.44557  -0.44268  -0.43812  -0.43498  -0.42787
 Alpha  occ. eigenvalues --   -0.42681  -0.42247  -0.42130  -0.41688  -0.41607
 Alpha  occ. eigenvalues --   -0.41467  -0.40980  -0.40930  -0.40271  -0.39253
 Alpha  occ. eigenvalues --   -0.39185  -0.39085  -0.38795  -0.38538  -0.37591
 Alpha  occ. eigenvalues --   -0.36417  -0.36271  -0.35991  -0.35959  -0.34898
 Alpha  occ. eigenvalues --   -0.34825  -0.34790  -0.34263  -0.34156  -0.32216
 Alpha  occ. eigenvalues --   -0.31832  -0.31498  -0.27088  -0.26535  -0.26459
 Alpha  occ. eigenvalues --   -0.25591  -0.25338  -0.24819  -0.24580  -0.24385
 Alpha  occ. eigenvalues --   -0.21566  -0.18414
 Alpha virt. eigenvalues --   -0.03817  -0.02810  -0.02405  -0.01887  -0.01524
 Alpha virt. eigenvalues --   -0.01020  -0.00909  -0.00285   0.02118   0.02757
 Alpha virt. eigenvalues --    0.03771   0.04431   0.05005   0.05097   0.05874

 Mulliken charges:
               1
     1  P    0.164475
     2  C    0.059366
     3  C   -0.189943
     4  C   -0.121347
     5  C   -0.175131
     6  C    0.161005
     7  C   -0.251691
     8  H    0.134171
     9  H    0.097180
    10  H    0.099926
    11  H    0.116537
    12  C    0.059997
    13  C   -0.251548
    14  C    0.195596
    15  C   -0.163197
    16  C   -0.087624
    17  C   -0.205783
    18  H    0.121293
    19  H    0.105534
    20  H    0.103447
    21  H    0.105233
    22  C   -0.375192
    23  P    0.161063
    24  C    0.058663
    25  C   -0.168836
    26  C   -0.115515
    27  C   -0.175167
    28  C    0.165156
    29  C   -0.289510
    30  H    0.133743
    31  H    0.097029
    32  H    0.102229
    33  H    0.135611
    34  C    0.065009
    35  C   -0.214339
    36  C   -0.083045
    37  C   -0.165590
    38  C    0.200600
    39  C   -0.252298
    40  H    0.104438
    41  H    0.103570
    42  H    0.105716
    43  H    0.122556
    44  H    0.130436
    45  H    0.131628
    46  C   -0.374215
    47  H    0.111649
    48  H    0.120285
    49  H    0.119398
    50  C   -0.369643
    51  H    0.118987
    52  H    0.122036
    53  H    0.118228
    54  C   -0.366678
    55  H    0.117312
    56  H    0.123080
    57  H    0.118583
    58  C   -0.367464
    59  H    0.115917
    60  H    0.120321
    61  H    0.116753
 Sum of Mulliken charges =  -0.00000

 Dipole moment (field-independent basis, Debye):
    X=              0.5865    Y=              1.7973    Z=              1.8512  Tot=              2.6460
 Quadrupole moment (field-independent basis, Debye-Ang):
   XX=           -189.5835   YY=           -176.3847   ZZ=           -201.3281
   XY=              2.6208   XZ=             -1.0033   YZ=             -3.6151

 Summary of Natural Population Analysis:

                                       Natural Population
                Natural  -----------------------------------------------
    Atom  No    Charge         Core      Valence    Rydberg      Total
 -----------------------------------------------------------------------
      P    1    0.82716      9.99815     4.14136    0.03333    14.17284
      C    2   -0.30480      1.99899     4.27631    0.02950     6.30480
      C    3   -0.22318      1.99908     4.20457    0.01953     6.22318
      C    4   -0.18798      1.99919     4.16983    0.01895     6.18798
      C    5   -0.21748      1.99909     4.19994    0.01846     6.21748
      C    6   -0.00776      1.99912     3.98904    0.01961     6.00776
      C    7   -0.21528      1.99899     4.19759    0.01870     6.21528
      H    8    0.20857      0.00000     0.78860    0.00283     0.79143
      H    9    0.20236      0.00000     0.79629    0.00135     0.79764
      H   10    0.20599      0.00000     0.79272    0.00129     0.79401
      H   11    0.19782      0.00000     0.80030    0.00189     0.80218
      C   12   -0.32637      1.99901     4.29504    0.03232     6.32637
      C   13   -0.18771      1.99900     4.16829    0.02042     6.18771
      C   14   -0.01946      1.99911     4.00101    0.01934     6.01946
      C   15   -0.19489      1.99909     4.17818    0.01761     6.19489
      C   16   -0.19671      1.99919     4.17852    0.01901     6.19671
      C   17   -0.20103      1.99907     4.18240    0.01955     6.20103
      H   18    0.20876      0.00000     0.78892    0.00232     0.79124
      H   19    0.20755      0.00000     0.79110    0.00135     0.79245
      H   20    0.20377      0.00000     0.79489    0.00134     0.79623
      H   21    0.21247      0.00000     0.78538    0.00215     0.78753
      C   22   -0.98987      1.99944     4.95734    0.03309     6.98987
      P   23    0.82591      9.99815     4.14255    0.03339    14.17409
      C   24   -0.30533      1.99899     4.27727    0.02907     6.30533
      C   25   -0.22211      1.99907     4.20330    0.01973     6.22211
      C   26   -0.18702      1.99919     4.16890    0.01894     6.18702
      C   27   -0.21624      1.99909     4.19878    0.01837     6.21624
      C   28   -0.01023      1.99911     3.99156    0.01956     6.01023
      C   29   -0.21388      1.99899     4.19487    0.02002     6.21388
      H   30    0.19421      0.00000     0.80363    0.00216     0.80579
      H   31    0.20237      0.00000     0.79626    0.00137     0.79763
      H   32    0.20602      0.00000     0.79264    0.00134     0.79398
      H   33    0.21439      0.00000     0.78381    0.00180     0.78561
      C   34   -0.32674      1.99901     4.29535    0.03239     6.32674
      C   35   -0.20189      1.99907     4.18304    0.01977     6.20189
      C   36   -0.19699      1.99919     4.17876    0.01903     6.19699
      C   37   -0.19427      1.99909     4.17763    0.01754     6.19427
      C   38   -0.01894      1.99911     4.00046    0.01937     6.01894
      C   39   -0.18714      1.99900     4.16762    0.02052     6.18714
      H   40    0.21192      0.00000     0.78591    0.00217     0.78808
      H   41    0.20371      0.00000     0.79495    0.00134     0.79629
      H   42    0.20751      0.00000     0.79114    0.00135     0.79249
      H   43    0.20905      0.00000     0.78858    0.00237     0.79095
      H   44    0.24807      0.00000     0.75010    0.00183     0.75193
      H   45    0.24174      0.00000     0.75587    0.00239     0.75826
      C   46   -0.60883      1.99941     4.59748    0.01194     6.60883
      H   47    0.20837      0.00000     0.79060    0.00103     0.79163
      H   48    0.21374      0.00000     0.78499    0.00127     0.78626
      H   49    0.21345      0.00000     0.78535    0.00119     0.78655
      C   50   -0.60938      1.99941     4.59837    0.01159     6.60938
      H   51    0.21333      0.00000     0.78552    0.00115     0.78667
      H   52    0.21476      0.00000     0.78398    0.00126     0.78524
      H   53    0.21143      0.00000     0.78757    0.00100     0.78857
      C   54   -0.60912      1.99941     4.59809    0.01162     6.60912
      H   55    0.21175      0.00000     0.78711    0.00114     0.78825
      H   56    0.21575      0.00000     0.78301    0.00124     0.78425
      H   57    0.21183      0.00000     0.78714    0.00103     0.78817
      C   58   -0.60925      1.99941     4.59786    0.01198     6.60925
      H   59    0.21074      0.00000     0.78823    0.00103     0.78926
      H   60    0.21384      0.00000     0.78488    0.00128     0.78616
      H   61    0.21156      0.00000     0.78731    0.00114     0.78844
 =======================================================================
   * Total *    0.00000     77.97125   155.32811    0.70063   234.00000

 Normal termination of Gaussian 16 at Fri Jan 24 01:04:06 2025.
