 Gaussian 16, Revision B.01,
 Gaussian 16:  ES64L-G16RevB.01 20-Dec-2017

 --------------------------------------------
 # nmr=giao b3lyp/def2TZVP pop=nbo scfcyc=200
 --------------------------------------------

 --------------
 MB-89 SPE NoRh
 --------------
 Symbolic Z-matrix:
 Charge =  0 Multiplicity = 1

                         Standard orientation:
 ---------------------------------------------------------------------
 Center     Atomic      Atomic             Coordinates (Angstroms)
 Number     Number       Type             X           Y           Z
 ---------------------------------------------------------------------
      1         15           0        1.387783   -0.427083   -0.669796
      2          6           0        2.752526   -1.590160   -0.252725
      3          6           0        2.476558   -2.941382   -0.014046
      4          6           0        3.506051   -3.840364    0.229725
      5          6           0        4.843054   -3.429092    0.227893
      6          6           0        5.110027   -2.084715   -0.034518
      7          6           0        4.085639   -1.175021   -0.272190
      8          1           0        4.332682   -0.139262   -0.464212
      9          1           0        6.137296   -1.737609   -0.051001
     10          1           0        3.266966   -4.880075    0.420714
     11          1           0        1.457154   -3.306502   -0.019071
     12          6           0        2.027496    1.252863   -0.309126
     13          6           0        2.086578    2.208231   -1.323348
     14          6           0        2.569860    3.486481   -1.061006
     15          6           0        3.001493    3.845677    0.215246
     16          6           0        2.933314    2.882173    1.229237
     17          6           0        2.456014    1.605316    0.976656
     18          1           0        2.427456    0.882159    1.783320
     19          1           0        3.258709    3.137611    2.231343
     20          1           0        2.606454    4.214263   -1.862190
     21          1           0        1.746210    1.956728   -2.320324
     22          6           0       -0.009253   -0.718656    0.548195
     23         15           0       -1.400141   -0.403324   -0.672224
     24          6           0       -2.763630   -1.577830   -0.286575
     25          6           0       -4.090117   -1.157560   -0.182011
     26          6           0       -5.105993   -2.081114    0.039753
     27          6           0       -4.834636   -3.444482    0.161666
     28          6           0       -3.505023   -3.859738    0.038796
     29          6           0       -2.486246   -2.946725   -0.190003
     30          1           0       -1.471084   -3.311166   -0.304160
     31          1           0       -3.264832   -4.914042    0.117058
     32          1           0       -6.128195   -1.730789    0.118851
     33          1           0       -4.340343   -0.107858   -0.265760
     34          6           0       -2.033703    1.271496   -0.280313
     35          6           0       -2.453519    1.603923    1.013771
     36          6           0       -2.923429    2.877493    1.293102
     37          6           0       -2.995105    3.859452    0.296713
     38          6           0       -2.569388    3.521403   -0.988505
     39          6           0       -2.093474    2.245766   -1.275626
     40          1           0       -1.756531    2.014296   -2.277940
     41          1           0       -2.606667    4.264760   -1.775536
     42          1           0       -3.242298    3.116628    2.300766
     43          1           0       -2.421190    0.867010    1.807730
     44          1           0       -0.021816   -1.764535    0.854197
     45          1           0       -0.003982   -0.086667    1.435076
     46          6           0       -5.932534   -4.436331    0.438722
     47          1           0       -5.739097   -5.392458   -0.051699
     48          1           0       -6.015787   -4.631457    1.510886
     49          1           0       -6.899966   -4.067071    0.097082
     50          6           0       -3.531983    5.229863    0.607461
     51          1           0       -4.621703    5.205974    0.703268
     52          1           0       -3.133901    5.608625    1.550707
     53          1           0       -3.285593    5.943881   -0.178427
     54          6           0        5.952488   -4.402054    0.522365
     55          1           0        6.115548   -4.486451    1.600828
     56          1           0        5.716965   -5.399635    0.150316
     57          1           0        6.893010   -4.082103    0.073532
     58          6           0        3.543844    5.220000    0.499294
     59          1           0        3.129270    5.627244    1.424005
     60          1           0        4.631141    5.190693    0.619091
     61          1           0        3.318049    5.914434   -0.309792
 ---------------------------------------------------------------------

 SCF Done:  E(RB3LYP) =  -1806.32404722     A.U. after   15 cycles

      1  P    Isotropic =   238.1307   Anisotropy =   104.0132

      2  C    Isotropic =    31.2417   Anisotropy =   194.5680

      3  C    Isotropic =    50.2848   Anisotropy =   176.5168

      4  C    Isotropic =    49.4901   Anisotropy =   163.4051

      5  C    Isotropic =    41.2437   Anisotropy =   194.0276

      6  C    Isotropic =    49.2262   Anisotropy =   161.6989

      7  C    Isotropic =    50.8825   Anisotropy =   178.2714

      8  H    Isotropic =    25.3326   Anisotropy =    13.4956

      9  H    Isotropic =    24.8054   Anisotropy =     8.2225

     10  H    Isotropic =    24.4404   Anisotropy =     7.8072

     11  H    Isotropic =    24.0621   Anisotropy =    10.6289

     12  C    Isotropic =    39.9444   Anisotropy =   202.9788

     13  C    Isotropic =    38.9568   Anisotropy =   180.5270

     14  C    Isotropic =    50.0983   Anisotropy =   160.1698

     15  C    Isotropic =    35.5314   Anisotropy =   206.0065

     16  C    Isotropic =    47.9023   Anisotropy =   170.6344

     17  C    Isotropic =    40.1081   Anisotropy =   185.6919

     18  H    Isotropic =    24.2398   Anisotropy =    10.0105

     19  H    Isotropic =    24.5958   Anisotropy =     7.2964

     20  H    Isotropic =    24.6524   Anisotropy =     6.4835

     21  H    Isotropic =    23.9230   Anisotropy =     7.6231

     22  C    Isotropic =   144.0069   Anisotropy =    19.5579

     23  P    Isotropic =   240.9892   Anisotropy =   100.8903

     24  C    Isotropic =    31.6431   Anisotropy =   194.2210

     25  C    Isotropic =    50.7204   Anisotropy =   178.2128

     26  C    Isotropic =    49.3907   Anisotropy =   161.2231

     27  C    Isotropic =    41.0613   Anisotropy =   194.7420

     28  C    Isotropic =    49.5202   Anisotropy =   163.8193

     29  C    Isotropic =    49.4014   Anisotropy =   176.5357

     30  H    Isotropic =    24.0122   Anisotropy =    10.4791

     31  H    Isotropic =    24.4149   Anisotropy =     7.7758

     32  H    Isotropic =    24.8056   Anisotropy =     8.2803

     33  H    Isotropic =    25.2744   Anisotropy =    13.5446

     34  C    Isotropic =    40.5598   Anisotropy =   202.6873

     35  C    Isotropic =    40.0117   Anisotropy =   185.7098

     36  C    Isotropic =    48.1091   Anisotropy =   170.0359

     37  C    Isotropic =    35.3111   Anisotropy =   206.3314

     38  C    Isotropic =    49.7873   Anisotropy =   160.8088

     39  C    Isotropic =    39.3224   Anisotropy =   180.3735

     40  H    Isotropic =    23.9809   Anisotropy =     7.6290

     41  H    Isotropic =    24.6520   Anisotropy =     6.5431

     42  H    Isotropic =    24.5771   Anisotropy =     7.2729

     43  H    Isotropic =    24.1941   Anisotropy =     9.9850

     44  H    Isotropic =    29.3901   Anisotropy =     6.9297

     45  H    Isotropic =    28.9240   Anisotropy =     3.1833

     46  C    Isotropic =   160.6053   Anisotropy =    41.9506

     47  H    Isotropic =    29.5788   Anisotropy =     7.7713

     48  H    Isotropic =    29.3813   Anisotropy =     8.5408

     49  H    Isotropic =    29.7656   Anisotropy =     7.5482

     50  C    Isotropic =   160.4161   Anisotropy =    41.4972

     51  H    Isotropic =    29.3531   Anisotropy =     9.1928

     52  H    Isotropic =    29.6108   Anisotropy =     7.2711

     53  H    Isotropic =    29.8730   Anisotropy =     6.9057

     54  C    Isotropic =   160.7057   Anisotropy =    41.9145

     55  H    Isotropic =    29.3792   Anisotropy =     8.5666

     56  H    Isotropic =    29.6209   Anisotropy =     7.7403

     57  H    Isotropic =    29.7699   Anisotropy =     7.5769

     58  C    Isotropic =   160.3632   Anisotropy =    41.5313

     59  H    Isotropic =    29.5978   Anisotropy =     7.3031

     60  H    Isotropic =    29.3551   Anisotropy =     9.1652

     61  H    Isotropic =    29.8873   Anisotropy =     6.8948

 The electronic state is 1-A.
 Alpha  occ. eigenvalues --  -77.04282 -77.04269 -10.18976 -10.18954 -10.18059
 Alpha  occ. eigenvalues --  -10.17894 -10.17889 -10.17867 -10.17851 -10.17845
 Alpha  occ. eigenvalues --  -10.17808 -10.17806 -10.17797 -10.17655 -10.17619
 Alpha  occ. eigenvalues --  -10.17480 -10.17468 -10.17459 -10.17440 -10.17312
 Alpha  occ. eigenvalues --  -10.17303 -10.17284 -10.17224 -10.16926 -10.16885
 Alpha  occ. eigenvalues --  -10.16882 -10.16840 -10.16761 -10.16729 -10.16624
 Alpha  occ. eigenvalues --  -10.16576  -6.52850  -6.52834  -4.69002  -4.68987
 Alpha  occ. eigenvalues --   -4.68969  -4.68953  -4.68485  -4.68469  -0.86440
 Alpha  occ. eigenvalues --   -0.86365  -0.85614  -0.85546  -0.78957  -0.78331
 Alpha  occ. eigenvalues --   -0.77156  -0.77075  -0.75068  -0.75028  -0.74416
 Alpha  occ. eigenvalues --   -0.74324  -0.73690  -0.70187  -0.68779  -0.68381
 Alpha  occ. eigenvalues --   -0.68168  -0.61372  -0.61216  -0.61069  -0.60745
 Alpha  occ. eigenvalues --   -0.60496  -0.59664  -0.58303  -0.58276  -0.55760
 Alpha  occ. eigenvalues --   -0.54962  -0.50524  -0.50089  -0.48395  -0.47276
 Alpha  occ. eigenvalues --   -0.47082  -0.47025  -0.46386  -0.46339  -0.45346
 Alpha  occ. eigenvalues --   -0.45254  -0.44802  -0.44283  -0.43216  -0.42834
 Alpha  occ. eigenvalues --   -0.42810  -0.42451  -0.42441  -0.42126  -0.42077
 Alpha  occ. eigenvalues --   -0.41868  -0.41793  -0.40779  -0.39435  -0.39355
 Alpha  occ. eigenvalues --   -0.39234  -0.38698  -0.38623  -0.38340  -0.37294
 Alpha  occ. eigenvalues --   -0.36359  -0.36254  -0.35953  -0.35869  -0.34902
 Alpha  occ. eigenvalues --   -0.34525  -0.34467  -0.33940  -0.33882  -0.32368
 Alpha  occ. eigenvalues --   -0.32010  -0.31437  -0.26556  -0.26183  -0.26054
 Alpha  occ. eigenvalues --   -0.25666  -0.25525  -0.25296  -0.25203  -0.24240
 Alpha  occ. eigenvalues --   -0.21221  -0.18149
 Alpha virt. eigenvalues --   -0.03453  -0.02506  -0.02379  -0.01822  -0.01725
 Alpha virt. eigenvalues --   -0.01173  -0.00652  -0.00566   0.02202   0.03697
 Alpha virt. eigenvalues --    0.04164   0.04597   0.04777   0.05034   0.05570

 Mulliken charges:
               1
     1  P    0.163040
     2  C    0.034978
     3  C   -0.166951
     4  C   -0.200886
     5  C    0.174640
     6  C   -0.202115
     7  C   -0.142269
     8  H    0.132357
     9  H    0.096425
    10  H    0.094838
    11  H    0.108092
    12  C    0.021219
    13  C   -0.128559
    14  C   -0.175383
    15  C    0.177257
    16  C   -0.166596
    17  C   -0.179690
    18  H    0.120245
    19  H    0.099782
    20  H    0.100166
    21  H    0.111558
    22  C   -0.376477
    23  P    0.155083
    24  C    0.032002
    25  C   -0.143373
    26  C   -0.201219
    27  C    0.174141
    28  C   -0.199968
    29  C   -0.182652
    30  H    0.130608
    31  H    0.095612
    32  H    0.096610
    33  H    0.134557
    34  C    0.037426
    35  C   -0.195887
    36  C   -0.160098
    37  C    0.173495
    38  C   -0.173817
    39  C   -0.130345
    40  H    0.111307
    41  H    0.100244
    42  H    0.100239
    43  H    0.120728
    44  H    0.130368
    45  H    0.130366
    46  C   -0.362040
    47  H    0.115953
    48  H    0.119428
    49  H    0.114986
    50  C   -0.360940
    51  H    0.123010
    52  H    0.119334
    53  H    0.115060
    54  C   -0.362045
    55  H    0.119076
    56  H    0.115722
    57  H    0.115035
    58  C   -0.360741
    59  H    0.119485
    60  H    0.122791
    61  H    0.114788
 Sum of Mulliken charges =  -0.00000

 Dipole moment (field-independent basis, Debye):
    X=             -0.0438    Y=              2.0432    Z=              2.4407  Tot=              3.1834
 Quadrupole moment (field-independent basis, Debye-Ang):
   XX=           -186.9151   YY=           -174.5787   ZZ=           -201.7054
   XY=              0.2936   XZ=             -0.4227   YZ=             -4.0973

 Summary of Natural Population Analysis:

                                       Natural Population
                Natural  -----------------------------------------------
    Atom  No    Charge         Core      Valence    Rydberg      Total
 -----------------------------------------------------------------------
      P    1    0.82801      9.99816     4.13982    0.03401    14.17199
      C    2   -0.32489      1.99898     4.29660    0.02930     6.32489
      C    3   -0.20393      1.99909     4.18504    0.01980     6.20393
      C    4   -0.19619      1.99909     4.17923    0.01787     6.19619
      C    5   -0.02950      1.99912     4.01044    0.01993     6.02950
      C    6   -0.19556      1.99909     4.17858    0.01789     6.19556
      C    7   -0.20367      1.99909     4.18457    0.02001     6.20367
      H    8    0.21297      0.00000     0.78510    0.00193     0.78703
      H    9    0.20191      0.00000     0.79659    0.00151     0.79809
      H   10    0.20213      0.00000     0.79638    0.00149     0.79787
      H   11    0.19713      0.00000     0.80075    0.00212     0.80287
      C   12   -0.34848      1.99900     4.31673    0.03276     6.34848
      C   13   -0.17539      1.99910     4.15561    0.02068     6.17539
      C   14   -0.20802      1.99909     4.19062    0.01831     6.20802
      C   15   -0.00561      1.99913     3.98760    0.01888     6.00561
      C   16   -0.20605      1.99908     4.18901    0.01796     6.20605
      C   17   -0.18094      1.99909     4.16249    0.01936     6.18094
      H   18    0.20821      0.00000     0.78938    0.00240     0.79179
      H   19    0.20112      0.00000     0.79719    0.00169     0.79888
      H   20    0.20465      0.00000     0.79388    0.00147     0.79535
      H   21    0.21830      0.00000     0.78006    0.00163     0.78170
      C   22   -0.99012      1.99944     4.95748    0.03320     6.99012
      P   23    0.82710      9.99816     4.14078    0.03396    14.17290
      C   24   -0.32554      1.99898     4.29732    0.02924     6.32554
      C   25   -0.20357      1.99909     4.18444    0.02004     6.20357
      C   26   -0.19631      1.99909     4.17930    0.01792     6.19631
      C   27   -0.02794      1.99912     4.00890    0.01993     6.02794
      C   28   -0.19711      1.99909     4.18010    0.01792     6.19711
      C   29   -0.20237      1.99909     4.18332    0.01997     6.20237
      H   30    0.19903      0.00000     0.79899    0.00198     0.80097
      H   31    0.20262      0.00000     0.79589    0.00149     0.79738
      H   32    0.20194      0.00000     0.79655    0.00151     0.79806
      H   33    0.21352      0.00000     0.78452    0.00195     0.78648
      C   34   -0.34905      1.99900     4.31743    0.03262     6.34905
      C   35   -0.18223      1.99909     4.16375    0.01939     6.18223
      C   36   -0.20687      1.99908     4.18981    0.01798     6.20687
      C   37   -0.00513      1.99913     3.98715    0.01886     6.00513
      C   38   -0.20769      1.99909     4.19034    0.01826     6.20769
      C   39   -0.17448      1.99910     4.15473    0.02065     6.17448
      H   40    0.21805      0.00000     0.78033    0.00163     0.78195
      H   41    0.20469      0.00000     0.79384    0.00147     0.79531
      H   42    0.20111      0.00000     0.79720    0.00170     0.79889
      H   43    0.20806      0.00000     0.78954    0.00240     0.79194
      H   44    0.24734      0.00000     0.75084    0.00182     0.75266
      H   45    0.24013      0.00000     0.75748    0.00240     0.75987
      C   46   -0.60846      1.99941     4.59711    0.01194     6.60846
      H   47    0.21062      0.00000     0.78822    0.00116     0.78938
      H   48    0.21281      0.00000     0.78583    0.00136     0.78719
      H   49    0.20999      0.00000     0.78888    0.00113     0.79001
      C   50   -0.61139      1.99941     4.60017    0.01181     6.61139
      H   51    0.21650      0.00000     0.78225    0.00125     0.78350
      H   52    0.21362      0.00000     0.78524    0.00115     0.78638
      H   53    0.21070      0.00000     0.78820    0.00110     0.78930
      C   54   -0.60826      1.99941     4.59690    0.01195     6.60826
      H   55    0.21260      0.00000     0.78603    0.00136     0.78740
      H   56    0.21043      0.00000     0.78841    0.00116     0.78957
      H   57    0.21002      0.00000     0.78884    0.00114     0.78998
      C   58   -0.61124      1.99941     4.60002    0.01180     6.61124
      H   59    0.21376      0.00000     0.78508    0.00115     0.78624
      H   60    0.21641      0.00000     0.78234    0.00125     0.78359
      H   61    0.21053      0.00000     0.78837    0.00110     0.78947
 =======================================================================
   * Total *    0.00000     77.97130   155.32761    0.70109   234.00000

 Normal termination of Gaussian 16 at Fri Jan 24 01:06:29 2025.
