 Gaussian 16, Revision B.01,
 Gaussian 16:  ES64L-G16RevB.01 20-Dec-2017

 --------------------------------------------
 # nmr=giao b3lyp/def2TZVP pop=nbo scfcyc=200
 --------------------------------------------

 --------------
 MB-81 SPE NoRh
 --------------
 Symbolic Z-matrix:
 Charge =  0 Multiplicity = 1

                         Standard orientation:
 ---------------------------------------------------------------------
 Center     Atomic      Atomic             Coordinates (Angstroms)
 Number     Number       Type             X           Y           Z
 ---------------------------------------------------------------------
      1         15           0       -1.042879    0.896226   -0.615526
      2          6           0       -2.039611    2.390442   -0.201295
      3          6           0       -1.396345    3.615372    0.008892
      4          6           0       -2.135798    4.764795    0.258697
      5          6           0       -3.526646    4.708760    0.283590
      6          6           0       -4.172483    3.499508    0.056503
      7          6           0       -3.435692    2.344122   -0.186949
      8          1           0       -3.953456    1.408496   -0.353709
      9          1           0       -5.254104    3.449846    0.071517
     10          1           0       -4.101893    5.605023    0.476236
     11          1           0       -1.626079    5.705277    0.431836
     12          1           0       -0.314844    3.683502   -0.023469
     13          6           0       -2.117784   -0.547767   -0.272035
     14          6           0       -2.445667   -1.430698   -1.300092
     15          6           0       -3.261241   -2.529923   -1.052788
     16          6           0       -3.767911   -2.780067    0.222522
     17          6           0       -3.429868   -1.890601    1.250894
     18          6           0       -2.619702   -0.791224    1.012955
     19          1           0       -2.387323   -0.120064    1.831397
     20          1           0       -3.807247   -2.065038    2.252745
     21          1           0       -3.503791   -3.205790   -1.864640
     22          1           0       -2.055769   -1.266037   -2.296584
     23          6           0        0.367922    0.792202    0.617116
     24         15           0        1.629745    0.111783   -0.592331
     25          6           0        3.267415    0.854468   -0.185839
     26          6           0        4.424852    0.072731   -0.130324
     27          6           0        5.660404    0.668020    0.105509
     28          6           0        5.754231    2.043624    0.284780
     29          6           0        4.606309    2.829289    0.218680
     30          6           0        3.372099    2.240231   -0.024594
     31          1           0        2.493480    2.871040   -0.093888
     32          1           0        4.674188    3.901812    0.353406
     33          1           0        6.716781    2.502331    0.472595
     34          1           0        6.549926    0.051844    0.151393
     35          1           0        4.368475   -0.999720   -0.259691
     36          6           0        1.769744   -1.678028   -0.200109
     37          6           0        2.085699   -2.106765    1.093814
     38          6           0        2.180216   -3.463486    1.375541
     39          6           0        1.961700   -4.403253    0.370669
     40          6           0        1.645957   -3.984040   -0.916677
     41          6           0        1.548272   -2.625006   -1.201339
     42          1           0        1.288200   -2.300969   -2.201952
     43          1           0        1.472577   -4.712266   -1.698627
     44          1           0        2.037664   -5.460585    0.592830
     45          1           0        2.426423   -3.788143    2.379048
     46          1           0        2.268388   -1.386310    1.882760
     47          1           0        0.659255    1.793490    0.930826
     48          1           0        0.182475    0.181828    1.500286
     49          6           0       -4.665715   -3.957152    0.492473
     50          1           0       -4.358220   -4.491788    1.392463
     51          1           0       -5.697557   -3.629975    0.647125
     52          1           0       -4.662685   -4.661253   -0.339611
 ---------------------------------------------------------------------

 SCF Done:  E(RB3LYP) =  -1688.32938514     A.U. after   14 cycles

      1  P    Isotropic =   238.7860   Anisotropy =   101.2842

      2  C    Isotropic =    27.7865   Anisotropy =   197.8888

      3  C    Isotropic =    50.1007   Anisotropy =   179.6369

      4  C    Isotropic =    50.2823   Anisotropy =   182.0854

      5  C    Isotropic =    53.7177   Anisotropy =   179.4869

      6  C    Isotropic =    49.8710   Anisotropy =   182.7911

      7  C    Isotropic =    50.6736   Anisotropy =   181.9327

      8  H    Isotropic =    25.2039   Anisotropy =    13.4357

      9  H    Isotropic =    24.6238   Anisotropy =     6.5933

     10  H    Isotropic =    24.6222   Anisotropy =     4.2290

     11  H    Isotropic =    24.2551   Anisotropy =     5.9064

     12  H    Isotropic =    23.9186   Anisotropy =    10.6059

     13  C    Isotropic =    40.9379   Anisotropy =   201.2814

     14  C    Isotropic =    39.2999   Anisotropy =   180.5810

     15  C    Isotropic =    49.8295   Anisotropy =   160.2869

     16  C    Isotropic =    34.9110   Anisotropy =   207.1082

     17  C    Isotropic =    47.5306   Anisotropy =   171.1715

     18  C    Isotropic =    40.1898   Anisotropy =   185.7462

     19  H    Isotropic =    24.2319   Anisotropy =    10.0542

     20  H    Isotropic =    24.5669   Anisotropy =     7.3211

     21  H    Isotropic =    24.6027   Anisotropy =     6.5475

     22  H    Isotropic =    23.9173   Anisotropy =     7.7111

     23  C    Isotropic =   144.1583   Anisotropy =    18.9114

     24  P    Isotropic =   236.8096   Anisotropy =   105.3721

     25  C    Isotropic =    28.2493   Anisotropy =   197.7925

     26  C    Isotropic =    50.6245   Anisotropy =   182.1426

     27  C    Isotropic =    49.7530   Anisotropy =   183.1738

     28  C    Isotropic =    53.2606   Anisotropy =   179.4381

     29  C    Isotropic =    50.2490   Anisotropy =   182.4059

     30  C    Isotropic =    50.0424   Anisotropy =   179.9782

     31  H    Isotropic =    23.9056   Anisotropy =    10.5689

     32  H    Isotropic =    24.2473   Anisotropy =     5.9212

     33  H    Isotropic =    24.5945   Anisotropy =     4.2128

     34  H    Isotropic =    24.6045   Anisotropy =     6.5090

     35  H    Isotropic =    25.1801   Anisotropy =    13.5358

     36  C    Isotropic =    36.3048   Anisotropy =   206.8586

     37  C    Isotropic =    39.9015   Anisotropy =   188.7774

     38  C    Isotropic =    48.8137   Anisotropy =   186.7179

     39  C    Isotropic =    48.3926   Anisotropy =   190.5052

     40  C    Isotropic =    50.3761   Anisotropy =   184.8217

     41  C    Isotropic =    39.3418   Anisotropy =   184.3713

     42  H    Isotropic =    23.8154   Anisotropy =     7.6553

     43  H    Isotropic =    24.4268   Anisotropy =     4.9896

     44  H    Isotropic =    24.4433   Anisotropy =     3.8534

     45  H    Isotropic =    24.4256   Anisotropy =     5.4043

     46  H    Isotropic =    24.0773   Anisotropy =    10.1513

     47  H    Isotropic =    29.3070   Anisotropy =     7.0672

     48  H    Isotropic =    28.8456   Anisotropy =     3.3541

     49  C    Isotropic =   160.5057   Anisotropy =    41.5225

     50  H    Isotropic =    29.5996   Anisotropy =     7.3905

     51  H    Isotropic =    29.3646   Anisotropy =     9.1208

     52  H    Isotropic =    29.8805   Anisotropy =     6.9760

 The electronic state is 1-A.
 Alpha  occ. eigenvalues --  -77.04799 -77.04689 -10.19208 -10.18526 -10.18497
 Alpha  occ. eigenvalues --  -10.18363 -10.18313 -10.18284 -10.18274 -10.18197
 Alpha  occ. eigenvalues --  -10.18192 -10.18131 -10.18119 -10.18107 -10.18087
 Alpha  occ. eigenvalues --  -10.17725 -10.17694 -10.17670 -10.17602 -10.17540
 Alpha  occ. eigenvalues --  -10.17475 -10.17457 -10.17408 -10.17331 -10.17292
 Alpha  occ. eigenvalues --  -10.17224 -10.17198 -10.17136  -6.53365  -6.53255
 Alpha  occ. eigenvalues --   -4.69516  -4.69485  -4.69408  -4.69372  -4.69000
 Alpha  occ. eigenvalues --   -4.68891  -0.86662  -0.86487  -0.85637  -0.85587
 Alpha  occ. eigenvalues --   -0.78785  -0.77251  -0.75514  -0.75498  -0.75255
 Alpha  occ. eigenvalues --   -0.74889  -0.74703  -0.74525  -0.72609  -0.69395
 Alpha  occ. eigenvalues --   -0.63599  -0.61760  -0.61418  -0.61271  -0.60643
 Alpha  occ. eigenvalues --   -0.60441  -0.60073  -0.59152  -0.56162  -0.55338
 Alpha  occ. eigenvalues --   -0.52388  -0.51671  -0.50390  -0.48867  -0.47315
 Alpha  occ. eigenvalues --   -0.46163  -0.46034  -0.45776  -0.45438  -0.45252
 Alpha  occ. eigenvalues --   -0.45088  -0.44707  -0.43938  -0.43081  -0.42990
 Alpha  occ. eigenvalues --   -0.42722  -0.42440  -0.42299  -0.41753  -0.40505
 Alpha  occ. eigenvalues --   -0.39573  -0.39222  -0.38182  -0.37629  -0.37378
 Alpha  occ. eigenvalues --   -0.37274  -0.36434  -0.35491  -0.35381  -0.34787
 Alpha  occ. eigenvalues --   -0.34733  -0.34704  -0.32750  -0.32372  -0.32032
 Alpha  occ. eigenvalues --   -0.27625  -0.27028  -0.26625  -0.26365  -0.26161
 Alpha  occ. eigenvalues --   -0.25676  -0.25624  -0.24894  -0.21923  -0.18731
 Alpha virt. eigenvalues --   -0.03954  -0.02903  -0.02713  -0.02245  -0.01974
 Alpha virt. eigenvalues --   -0.01430  -0.01112  -0.00795   0.01832   0.03577
 Alpha virt. eigenvalues --    0.04110   0.04789   0.05135   0.05616   0.05697

 Mulliken charges:
               1
     1  P    0.161284
     2  C    0.042503
     3  C   -0.180245
     4  C   -0.130992
     5  C   -0.103726
     6  C   -0.129749
     7  C   -0.152968
     8  H    0.136598
     9  H    0.105400
    10  H    0.105763
    11  H    0.103759
    12  H    0.120498
    13  C    0.021323
    14  C   -0.130061
    15  C   -0.174604
    16  C    0.176066
    17  C   -0.164744
    18  C   -0.181406
    19  H    0.121046
    20  H    0.101214
    21  H    0.101313
    22  H    0.112503
    23  C   -0.375545
    24  P    0.163377
    25  C    0.041337
    26  C   -0.156411
    27  C   -0.128296
    28  C   -0.103668
    29  C   -0.131699
    30  C   -0.184271
    31  H    0.128904
    32  H    0.104239
    33  H    0.106283
    34  H    0.106278
    35  H    0.137546
    36  C    0.041056
    37  C   -0.201997
    38  C   -0.095838
    39  C   -0.097442
    40  C   -0.106079
    41  C   -0.140025
    42  H    0.115540
    43  H    0.109607
    44  H    0.111627
    45  H    0.109080
    46  H    0.125341
    47  H    0.129322
    48  H    0.132454
    49  C   -0.360546
    50  H    0.120720
    51  H    0.123261
    52  H    0.115068
 Sum of Mulliken charges =  -0.00000

 Dipole moment (field-independent basis, Debye):
    X=             -0.8674    Y=             -2.1228    Z=              2.1621  Tot=              3.1517
 Quadrupole moment (field-independent basis, Debye-Ang):
   XX=           -170.0919   YY=           -161.2650   ZZ=           -181.8684
   XY=              4.9427   XZ=              1.6828   YZ=              4.2542

 Summary of Natural Population Analysis:

                                       Natural Population
                Natural  -----------------------------------------------
    Atom  No    Charge         Core      Valence    Rydberg      Total
 -----------------------------------------------------------------------
      P    1    0.82781      9.99815     4.14003    0.03401    14.17219
      C    2   -0.31440      1.99899     4.28561    0.02981     6.31440
      C    3   -0.21276      1.99908     4.19369    0.01998     6.21276
      C    4   -0.19641      1.99918     4.17823    0.01899     6.19641
      C    5   -0.21767      1.99919     4.19878    0.01971     6.21767
      C    6   -0.19509      1.99919     4.17696    0.01895     6.19509
      C    7   -0.21227      1.99908     4.19307    0.02011     6.21227
      H    8    0.21394      0.00000     0.78417    0.00189     0.78606
      H    9    0.20668      0.00000     0.79200    0.00133     0.79332
      H   10    0.20710      0.00000     0.79170    0.00120     0.79290
      H   11    0.20708      0.00000     0.79160    0.00132     0.79292
      H   12    0.19792      0.00000     0.80009    0.00199     0.80208
      C   13   -0.35066      1.99900     4.31900    0.03266     6.35066
      C   14   -0.17552      1.99910     4.15576    0.02066     6.17552
      C   15   -0.20763      1.99909     4.19022    0.01832     6.20763
      C   16   -0.00367      1.99913     3.98571    0.01883     6.00367
      C   17   -0.20538      1.99908     4.18837    0.01793     6.20538
      C   18   -0.18128      1.99909     4.16287    0.01932     6.18128
      H   19    0.20815      0.00000     0.78946    0.00238     0.79185
      H   20    0.20183      0.00000     0.79649    0.00168     0.79817
      H   21    0.20523      0.00000     0.79330    0.00147     0.79477
      H   22    0.21835      0.00000     0.78003    0.00161     0.78165
      C   23   -0.99015      1.99944     4.95754    0.03317     6.99015
      P   24    0.82650      9.99816     4.14146    0.03388    14.17350
      C   25   -0.31429      1.99899     4.28562    0.02968     6.31429
      C   26   -0.21236      1.99908     4.19322    0.02006     6.21236
      C   27   -0.19504      1.99919     4.17692    0.01893     6.19504
      C   28   -0.21679      1.99919     4.19794    0.01966     6.21679
      C   29   -0.19631      1.99919     4.17816    0.01897     6.19631
      C   30   -0.21264      1.99908     4.19354    0.02002     6.21264
      H   31    0.19876      0.00000     0.79929    0.00195     0.80124
      H   32    0.20735      0.00000     0.79133    0.00131     0.79265
      H   33    0.20733      0.00000     0.79146    0.00120     0.79267
      H   34    0.20705      0.00000     0.79162    0.00133     0.79295
      H   35    0.21411      0.00000     0.78403    0.00186     0.78589
      C   36   -0.33661      1.99901     4.30418    0.03342     6.33661
      C   37   -0.19254      1.99908     4.17328    0.02018     6.19254
      C   38   -0.20576      1.99919     4.18750    0.01907     6.20576
      C   39   -0.19488      1.99919     4.17671    0.01898     6.19488
      C   40   -0.20568      1.99918     4.18709    0.01940     6.20568
      C   41   -0.18426      1.99910     4.16452    0.02065     6.18426
      H   42    0.21899      0.00000     0.77938    0.00163     0.78101
      H   43    0.20977      0.00000     0.78896    0.00127     0.79023
      H   44    0.20867      0.00000     0.79016    0.00117     0.79133
      H   45    0.20842      0.00000     0.79020    0.00138     0.79158
      H   46    0.20917      0.00000     0.78839    0.00244     0.79083
      H   47    0.24810      0.00000     0.75009    0.00181     0.75190
      H   48    0.24120      0.00000     0.75642    0.00238     0.75880
      C   49   -0.61165      1.99941     4.60043    0.01180     6.61165
      H   50    0.21459      0.00000     0.78425    0.00115     0.78541
      H   51    0.21680      0.00000     0.78196    0.00123     0.78320
      H   52    0.21078      0.00000     0.78813    0.00109     0.78922
 =======================================================================
   * Total *    0.00000     71.97382   137.36096    0.66521   210.00000

 Normal termination of Gaussian 16 at Fri Jan 24 00:50:18 2025.
