 Gaussian 16, Revision B.01,
 Gaussian 16:  ES64L-G16RevB.01 20-Dec-2017

 --------------------------------------------
 # nmr=giao b3lyp/def2TZVP pop=nbo scfcyc=200
 --------------------------------------------

 ------------------
 Ligand 47 SPE NoRh
 ------------------
 Symbolic Z-matrix:
 Charge =  0 Multiplicity = 1

                         Standard orientation:
 ---------------------------------------------------------------------
 Center     Atomic      Atomic             Coordinates (Angstroms)
 Number     Number       Type             X           Y           Z
 ---------------------------------------------------------------------
      1         15           0       -0.855787    0.174005   -0.201748
      2         15           0       -3.478532   -0.767397   -0.691297
      3          6           0       -0.663269    1.929766    0.332826
      4          6           0       -1.083366    2.959805   -0.510419
      5          1           0       -1.489747    2.722747   -1.486701
      6          6           0       -0.981013    4.286583   -0.100574
      7          1           0       -1.307099    5.081333   -0.760539
      8          6           0       -0.456308    4.590077    1.150699
      9          1           0       -0.372082    5.621953    1.467752
     10          6           0       -0.033278    3.565459    1.994066
     11          1           0        0.382000    3.800001    2.966539
     12          6           0       -0.134594    2.240030    1.589427
     13          1           0        0.212022    1.451916    2.247806
     14          6           0       -2.355239   -0.419516    0.766313
     15          1           0       -2.729881    0.355566    1.433864
     16          1           0       -2.182141   -1.315290    1.356180
     17          6           0       -5.027619    0.260068   -0.394384
     18          1           0       -5.327394    0.024905    0.632034
     19          6           0       -4.725578    1.759191   -0.480861
     20          1           0       -3.942760    2.073848    0.210892
     21          1           0       -5.625175    2.327049   -0.234699
     22          1           0       -4.416047    2.043246   -1.487902
     23          6           0       -6.167345   -0.131637   -1.341187
     24          1           0       -5.909344    0.058077   -2.384761
     25          1           0       -7.050794    0.468307   -1.113671
     26          1           0       -6.455004   -1.179647   -1.249128
     27          6           0       -4.022505   -2.561813   -0.512883
     28          1           0       -4.686823   -2.712525   -1.369497
     29          6           0       -4.806648   -2.840693    0.773517
     30          1           0       -5.103054   -3.891855    0.798408
     31          1           0       -5.716215   -2.245393    0.852810
     32          1           0       -4.202128   -2.655793    1.663722
     33          6           0       -2.833205   -3.517344   -0.666482
     34          1           0       -2.145032   -3.448480    0.179136
     35          1           0       -2.264614   -3.321844   -1.575973
     36          1           0       -3.193767   -4.548071   -0.703068
     37          6           0        0.638759   -0.717684    0.438211
     38          6           0        1.942072   -0.379169   -0.044685
     39          6           0        0.493706   -1.757152    1.339073
     40          6           0        3.071483   -1.126335    0.406765
     41          6           0        2.161387    0.700136   -0.960109
     42          6           0        1.604558   -2.483618    1.784434
     43          1           0       -0.475667   -2.031296    1.727789
     44          6           0        4.401369   -0.793592   -0.081658
     45          6           0        2.861471   -2.176403    1.324086
     46          6           0        3.401143    1.013284   -1.410893
     47          1           0        1.323225    1.299333   -1.284652
     48          1           0        1.466543   -3.288642    2.494970
     49          6           0        4.554443    0.283174   -0.996287
     50          6           0        5.563127   -1.492197    0.311950
     51          1           0        3.699174   -2.755995    1.681862
     52          1           0        3.534579    1.839650   -2.098967
     53          6           0        5.836295    0.621299   -1.478648
     54          6           0        6.804684   -1.145847   -0.173351
     55          1           0        5.495895   -2.318719    1.005122
     56          6           0        6.948441   -0.080011   -1.075221
     57          1           0        5.931401    1.446987   -2.173892
     58          1           0        7.678425   -1.700560    0.147166
     59          1           0        7.928459    0.184903   -1.449258
 ---------------------------------------------------------------------

 SCF Done:  E(RB3LYP) =  -1730.08797338     A.U. after   15 cycles

      1  P    Isotropic =   240.6224   Anisotropy =   114.6657

      2  P    Isotropic =   224.4200   Anisotropy =    76.1113

      3  C    Isotropic =    32.6216   Anisotropy =   209.2276

      4  C    Isotropic =    42.3902   Anisotropy =   180.4586

      5  H    Isotropic =    23.4677   Anisotropy =     7.9254

      6  C    Isotropic =    50.2864   Anisotropy =   183.2837

      7  H    Isotropic =    24.2121   Anisotropy =     5.2470

      8  C    Isotropic =    49.1177   Anisotropy =   188.0831

      9  H    Isotropic =    24.3867   Anisotropy =     3.7972

     10  C    Isotropic =    48.3803   Anisotropy =   185.7409

     11  H    Isotropic =    24.5788   Anisotropy =     6.6222

     12  C    Isotropic =    41.8279   Anisotropy =   186.7687

     13  H    Isotropic =    24.4356   Anisotropy =    11.7497

     14  C    Isotropic =   164.1470   Anisotropy =    22.7913

     15  H    Isotropic =    30.6564   Anisotropy =     3.9088

     16  H    Isotropic =    29.3730   Anisotropy =     6.5451

     17  C    Isotropic =   152.3757   Anisotropy =    19.7067

     18  H    Isotropic =    29.9805   Anisotropy =     4.3880

     19  C    Isotropic =   162.2052   Anisotropy =    31.2120

     20  H    Isotropic =    31.1879   Anisotropy =    10.4201

     21  H    Isotropic =    30.9338   Anisotropy =     9.9232

     22  H    Isotropic =    31.0112   Anisotropy =     7.1483

     23  C    Isotropic =   164.8295   Anisotropy =    32.8994

     24  H    Isotropic =    31.1611   Anisotropy =     8.1918

     25  H    Isotropic =    30.9024   Anisotropy =    11.0007

     26  H    Isotropic =    30.9115   Anisotropy =     8.4824

     27  C    Isotropic =   150.6092   Anisotropy =    16.9038

     28  H    Isotropic =    30.1271   Anisotropy =     7.3242

     29  C    Isotropic =   167.0529   Anisotropy =    27.2088

     30  H    Isotropic =    30.8553   Anisotropy =    11.3779

     31  H    Isotropic =    30.5156   Anisotropy =     7.6280

     32  H    Isotropic =    31.0108   Anisotropy =     5.5962

     33  C    Isotropic =   161.7107   Anisotropy =    33.1339

     34  H    Isotropic =    30.9852   Anisotropy =     7.6733

     35  H    Isotropic =    30.5484   Anisotropy =     7.2156

     36  H    Isotropic =    30.7138   Anisotropy =    10.5498

     37  C    Isotropic =    38.0257   Anisotropy =   186.5916

     38  C    Isotropic =    44.9952   Anisotropy =   200.0993

     39  C    Isotropic =    51.8541   Anisotropy =   178.0613

     40  C    Isotropic =    44.1939   Anisotropy =   201.7688

     41  C    Isotropic =    52.5452   Anisotropy =   172.2021

     42  C    Isotropic =    54.0720   Anisotropy =   174.3816

     43  H    Isotropic =    23.6821   Anisotropy =    11.8921

     44  C    Isotropic =    45.2176   Anisotropy =   200.6544

     45  C    Isotropic =    56.7611   Anisotropy =   175.0194

     46  C    Isotropic =    52.1015   Anisotropy =   149.8091

     47  H    Isotropic =    23.8927   Anisotropy =    13.5234

     48  H    Isotropic =    23.9781   Anisotropy =     7.1296

     49  C    Isotropic =    44.6006   Anisotropy =   212.6606

     50  C    Isotropic =    55.7875   Anisotropy =   178.0414

     51  H    Isotropic =    22.8443   Anisotropy =     9.8949

     52  H    Isotropic =    24.1987   Anisotropy =    10.1725

     53  C    Isotropic =    49.4431   Anisotropy =   160.3743

     54  C    Isotropic =    52.7494   Anisotropy =   178.8111

     55  H    Isotropic =    22.7746   Anisotropy =    11.0467

     56  C    Isotropic =    52.3890   Anisotropy =   181.0335

     57  H    Isotropic =    23.8449   Anisotropy =     8.6988

     58  H    Isotropic =    24.0262   Anisotropy =     6.1309

     59  H    Isotropic =    24.1082   Anisotropy =     5.5965

 The electronic state is 1-A.
 Alpha  occ. eigenvalues --  -77.04833 -77.03327 -10.18977 -10.18932 -10.18870
 Alpha  occ. eigenvalues --  -10.18685 -10.18454 -10.18384 -10.18138 -10.18122
 Alpha  occ. eigenvalues --  -10.18120 -10.18085 -10.18012 -10.17960 -10.17911
 Alpha  occ. eigenvalues --  -10.17901 -10.17685 -10.17666 -10.17639 -10.17602
 Alpha  occ. eigenvalues --  -10.17557 -10.17548 -10.17437 -10.17432 -10.17233
 Alpha  occ. eigenvalues --  -10.16413 -10.16374 -10.16346 -10.16190  -6.53369
 Alpha  occ. eigenvalues --   -6.51936  -4.69524  -4.69489  -4.69001  -4.68107
 Alpha  occ. eigenvalues --   -4.68019  -4.67560  -0.88537  -0.86274  -0.85247
 Alpha  occ. eigenvalues --   -0.81160  -0.80574  -0.78366  -0.78332  -0.76590
 Alpha  occ. eigenvalues --   -0.75447  -0.75278  -0.73434  -0.72338  -0.71779
 Alpha  occ. eigenvalues --   -0.69058  -0.68693  -0.64294  -0.63063  -0.62744
 Alpha  occ. eigenvalues --   -0.61379  -0.61224  -0.61050  -0.58896  -0.58358
 Alpha  occ. eigenvalues --   -0.55333  -0.53626  -0.52890  -0.51740  -0.50863
 Alpha  occ. eigenvalues --   -0.50009  -0.48362  -0.47384  -0.46776  -0.45994
 Alpha  occ. eigenvalues --   -0.45854  -0.45465  -0.44565  -0.44062  -0.43620
 Alpha  occ. eigenvalues --   -0.43221  -0.42893  -0.42767  -0.42300  -0.41384
 Alpha  occ. eigenvalues --   -0.41115  -0.40730  -0.40389  -0.39868  -0.39736
 Alpha  occ. eigenvalues --   -0.39091  -0.38831  -0.38577  -0.37791  -0.36797
 Alpha  occ. eigenvalues --   -0.36626  -0.36230  -0.35425  -0.35171  -0.35111
 Alpha  occ. eigenvalues --   -0.34983  -0.34408  -0.33879  -0.33507  -0.32079
 Alpha  occ. eigenvalues --   -0.31987  -0.30789  -0.29419  -0.29367  -0.27239
 Alpha  occ. eigenvalues --   -0.26292  -0.25940  -0.23697  -0.22562  -0.21465
 Alpha  occ. eigenvalues --   -0.18527
 Alpha virt. eigenvalues --   -0.05082  -0.04473  -0.03152  -0.01977  -0.01078
 Alpha virt. eigenvalues --    0.01259   0.01915   0.02580   0.03442   0.04649
 Alpha virt. eigenvalues --    0.04775   0.05067   0.05590   0.05841   0.06153

 Mulliken charges:
               1
     1  P    0.143518
     2  P    0.150794
     3  C   -0.035481
     4  C   -0.154144
     5  H    0.118125
     6  C   -0.100426
     7  H    0.110200
     8  C   -0.090551
     9  H    0.111167
    10  C   -0.122778
    11  H    0.108534
    12  C   -0.129096
    13  H    0.132905
    14  C   -0.358116
    15  H    0.130817
    16  H    0.108401
    17  C   -0.066360
    18  H    0.075727
    19  C   -0.362956
    20  H    0.130292
    21  H    0.107894
    22  H    0.107390
    23  C   -0.358160
    24  H    0.113374
    25  H    0.109895
    26  H    0.116245
    27  C   -0.092580
    28  H    0.085881
    29  C   -0.348563
    30  H    0.104075
    31  H    0.118317
    32  H    0.104851
    33  C   -0.338021
    34  H    0.091849
    35  H    0.131154
    36  H    0.110158
    37  C   -0.009657
    38  C    0.092687
    39  C   -0.101222
    40  C    0.083555
    41  C   -0.159841
    42  C   -0.160455
    43  H    0.087590
    44  C    0.118233
    45  C   -0.193896
    46  C   -0.219177
    47  H    0.125805
    48  H    0.101734
    49  C    0.135887
    50  C   -0.192890
    51  H    0.092097
    52  H    0.094678
    53  C   -0.159888
    54  C   -0.099798
    55  H    0.095229
    56  C   -0.110437
    57  H    0.101808
    58  H    0.106482
    59  H    0.107144
 Sum of Mulliken charges =  -0.00000

 Dipole moment (field-independent basis, Debye):
    X=             -0.8817    Y=              0.3673    Z=              1.8222  Tot=              2.0573
 Quadrupole moment (field-independent basis, Debye-Ang):
   XX=           -175.2865   YY=           -177.7462   ZZ=           -189.6693
   XY=              0.2975   XZ=             -1.9035   YZ=             -6.5306

 Summary of Natural Population Analysis:

                                       Natural Population
                Natural  -----------------------------------------------
    Atom  No    Charge         Core      Valence    Rydberg      Total
 -----------------------------------------------------------------------
      P    1    0.82318      9.99815     4.14614    0.03253    14.17682
      P    2    0.78340      9.99859     4.18418    0.03382    14.21660
      C    3   -0.32775      1.99900     4.29471    0.03404     6.32775
      C    4   -0.20135      1.99909     4.18162    0.02064     6.20135
      H    5    0.21882      0.00000     0.77952    0.00165     0.78118
      C    6   -0.20559      1.99918     4.18685    0.01956     6.20559
      H    7    0.20966      0.00000     0.78906    0.00128     0.79034
      C    8   -0.19976      1.99919     4.18143    0.01914     6.19976
      H    9    0.20880      0.00000     0.79002    0.00117     0.79120
      C   10   -0.20110      1.99919     4.18295    0.01896     6.20110
      H   11    0.20847      0.00000     0.79016    0.00137     0.79153
      C   12   -0.19703      1.99907     4.17793    0.02003     6.19703
      H   13    0.21265      0.00000     0.78515    0.00220     0.78735
      C   14   -1.01478      1.99944     4.98347    0.03187     7.01478
      H   15    0.24881      0.00000     0.74907    0.00212     0.75119
      H   16    0.23697      0.00000     0.76032    0.00270     0.76303
      C   17   -0.47632      1.99945     4.45437    0.02250     6.47632
      H   18    0.19237      0.00000     0.80420    0.00343     0.80763
      C   19   -0.59464      1.99943     4.58352    0.01170     6.59464
      H   20    0.20759      0.00000     0.79112    0.00129     0.79241
      H   21    0.20342      0.00000     0.79500    0.00158     0.79658
      H   22    0.20306      0.00000     0.79510    0.00184     0.79694
      C   23   -0.59709      1.99943     4.58565    0.01202     6.59709
      H   24    0.20466      0.00000     0.79345    0.00189     0.79534
      H   25    0.20497      0.00000     0.79344    0.00159     0.79503
      H   26    0.20236      0.00000     0.79623    0.00141     0.79764
      C   27   -0.47469      1.99945     4.45149    0.02375     6.47469
      H   28    0.21746      0.00000     0.78085    0.00169     0.78254
      C   29   -0.60186      1.99943     4.59022    0.01221     6.60186
      H   30    0.20029      0.00000     0.79782    0.00189     0.79971
      H   31    0.20267      0.00000     0.79599    0.00134     0.79733
      H   32    0.19442      0.00000     0.80388    0.00169     0.80558
      C   33   -0.59454      1.99943     4.58352    0.01159     6.59454
      H   34    0.19324      0.00000     0.80515    0.00161     0.80676
      H   35    0.21791      0.00000     0.78081    0.00129     0.78209
      H   36    0.20393      0.00000     0.79450    0.00157     0.79607
      C   37   -0.28509      1.99894     4.25686    0.02928     6.28509
      C   38   -0.05709      1.99901     4.03729    0.02079     6.05709
      C   39   -0.21355      1.99908     4.19553    0.01894     6.21355
      C   40   -0.02342      1.99904     4.00630    0.01807     6.02342
      C   41   -0.18031      1.99909     4.16465    0.01658     6.18031
      C   42   -0.19549      1.99917     4.17801    0.01830     6.19549
      H   43    0.19532      0.00000     0.80193    0.00275     0.80468
      C   44   -0.03085      1.99903     4.01343    0.01838     6.03085
      C   45   -0.18559      1.99911     4.16870    0.01777     6.18559
      C   46   -0.16910      1.99911     4.15342    0.01657     6.16910
      H   47    0.21844      0.00000     0.77953    0.00202     0.78156
      H   48    0.20691      0.00000     0.79186    0.00123     0.79309
      C   49   -0.05767      1.99907     4.04030    0.01829     6.05767
      C   50   -0.18046      1.99912     4.16390    0.01743     6.18046
      H   51    0.20061      0.00000     0.79796    0.00143     0.79939
      H   52    0.20432      0.00000     0.79398    0.00170     0.79568
      C   53   -0.17601      1.99913     4.15854    0.01833     6.17601
      C   54   -0.20145      1.99920     4.18374    0.01851     6.20145
      H   55    0.20098      0.00000     0.79754    0.00148     0.79902
      C   56   -0.20501      1.99918     4.18677    0.01906     6.20501
      H   57    0.20584      0.00000     0.79278    0.00138     0.79416
      H   58    0.20737      0.00000     0.79144    0.00119     0.79263
      H   59    0.20866      0.00000     0.79020    0.00115     0.79134
 =======================================================================
   * Total *    0.00000     73.97480   147.38359    0.64161   222.00000

 Normal termination of Gaussian 16 at Wed Nov  6 18:19:33 2024.
