 Gaussian 16, Revision B.01,
 Gaussian 16:  ES64L-G16RevB.01 20-Dec-2017

 --------------------------------------------
 # nmr=giao b3lyp/def2TZVP pop=nbo scfcyc=200
 --------------------------------------------

 -------------
 MB-8 SPE NoRh
 -------------
 Symbolic Z-matrix:
 Charge =  0 Multiplicity = 1

                         Standard orientation:
 ---------------------------------------------------------------------
 Center     Atomic      Atomic             Coordinates (Angstroms)
 Number     Number       Type             X           Y           Z
 ---------------------------------------------------------------------
      1         15           0       -1.341951   -0.059695   -0.423026
      2         15           0        1.346572   -0.216610   -0.455310
      3          6           0        0.007730   -0.387726    0.817351
      4          1           0       -0.082343   -1.416558    1.169590
      5          1           0        0.080922    0.296816    1.661952
      6          6           0       -2.487039    1.834621    1.138796
      7          1           0       -3.048179    2.746801    0.958111
      8          1           0       -1.662657    2.044553    1.821790
      9          1           0       -3.141155    1.074592    1.565918
     10          6           0       -3.675379   -1.393677   -0.638181
     11          1           0       -4.318816   -1.962805    0.028133
     12          1           0       -3.458891   -1.989957   -1.523819
     13          1           0       -4.176266   -0.465970   -0.919728
     14          6           0        3.159088   -1.632756    0.962766
     15          1           0        3.886570   -2.411467    0.751465
     16          1           0        2.464838   -1.979771    1.729514
     17          1           0        3.666199   -0.730020    1.302289
     18          6           0        2.945818    1.929537   -0.731373
     19          1           0        3.267849    2.769531   -0.122505
     20          1           0        2.430242    2.300186   -1.618619
     21          1           0        3.814751    1.336150   -1.019585
     22          8           0        2.457887   -1.392019   -0.282646
     23          8           0        2.042708    1.162259    0.093392
     24          8           0       -2.462967   -1.133575    0.100963
     25          8           0       -1.974340    1.417396   -0.149913
 ---------------------------------------------------------------------

 SCF Done:  E(RB3LYP) =  -1182.84694619     A.U. after   13 cycles

      1  P    Isotropic =    76.0128   Anisotropy =   238.5393

      2  P    Isotropic =    78.3061   Anisotropy =   230.5963

      3  C    Isotropic =   144.0475   Anisotropy =    29.8192

      4  H    Isotropic =    30.4878   Anisotropy =     4.4499

      5  H    Isotropic =    29.5579   Anisotropy =     2.6878

      6  C    Isotropic =   133.7813   Anisotropy =    74.8417

      7  H    Isotropic =    28.5406   Anisotropy =     8.8459

      8  H    Isotropic =    28.8077   Anisotropy =     7.2778

      9  H    Isotropic =    28.1739   Anisotropy =     7.7764

     10  C    Isotropic =   127.5345   Anisotropy =    85.0961

     11  H    Isotropic =    28.2905   Anisotropy =     8.7168

     12  H    Isotropic =    28.4025   Anisotropy =     8.6604

     13  H    Isotropic =    28.3799   Anisotropy =     8.6423

     14  C    Isotropic =   132.0153   Anisotropy =    77.0804

     15  H    Isotropic =    28.4646   Anisotropy =     8.8502

     16  H    Isotropic =    28.8933   Anisotropy =     7.1009

     17  H    Isotropic =    28.0714   Anisotropy =     7.7451

     18  C    Isotropic =   125.4941   Anisotropy =    87.4507

     19  H    Isotropic =    28.2554   Anisotropy =     8.7174

     20  H    Isotropic =    28.3443   Anisotropy =     8.2118

     21  H    Isotropic =    28.3530   Anisotropy =     9.0309

     22  O    Isotropic =   250.7786   Anisotropy =    96.3468

     23  O    Isotropic =   248.3544   Anisotropy =    87.5589

     24  O    Isotropic =   247.1559   Anisotropy =   108.7843

     25  O    Isotropic =   262.4914   Anisotropy =    88.0049

 The electronic state is 1-A.
 Alpha  occ. eigenvalues --  -77.09560 -77.09374 -19.13963 -19.13894 -19.13561
 Alpha  occ. eigenvalues --  -19.13308 -10.22222 -10.22182 -10.22091 -10.22036
 Alpha  occ. eigenvalues --  -10.17112  -6.57243  -6.57087  -4.73547  -4.73388
 Alpha  occ. eigenvalues --   -4.73383  -4.73223  -4.72800  -4.72648  -1.04151
 Alpha  occ. eigenvalues --   -1.04003  -1.00899  -1.00814  -0.75608  -0.71671
 Alpha  occ. eigenvalues --   -0.69828  -0.69498  -0.68568  -0.57203  -0.55881
 Alpha  occ. eigenvalues --   -0.50436  -0.49720  -0.48123  -0.47122  -0.46463
 Alpha  occ. eigenvalues --   -0.45855  -0.45409  -0.45217  -0.44385  -0.44338
 Alpha  occ. eigenvalues --   -0.43792  -0.41505  -0.37608  -0.35861  -0.35740
 Alpha  occ. eigenvalues --   -0.34552  -0.33736  -0.31024  -0.29910  -0.29826
 Alpha  occ. eigenvalues --   -0.29608  -0.23243  -0.19406
 Alpha virt. eigenvalues --   -0.00371   0.03011   0.03308   0.03956   0.05377
 Alpha virt. eigenvalues --    0.06293   0.06605   0.07418   0.08539   0.08901
 Alpha virt. eigenvalues --    0.09997   0.10245   0.10480   0.11088   0.11349

 Mulliken charges:
               1
     1  P    0.426935
     2  P    0.412659
     3  C   -0.336683
     4  H    0.125525
     5  H    0.116266
     6  C   -0.187181
     7  H    0.124918
     8  H    0.110402
     9  H    0.124534
    10  C   -0.172385
    11  H    0.120997
    12  H    0.118419
    13  H    0.120347
    14  C   -0.183043
    15  H    0.125378
    16  H    0.104681
    17  H    0.123294
    18  C   -0.171281
    19  H    0.119921
    20  H    0.121497
    21  H    0.118750
    22  O   -0.351338
    23  O   -0.379171
    24  O   -0.379752
    25  O   -0.353686
 Sum of Mulliken charges =  -0.00000

 Dipole moment (field-independent basis, Debye):
    X=             -0.1300    Y=              0.4413    Z=              2.6500  Tot=              2.6896
 Quadrupole moment (field-independent basis, Debye-Ang):
   XX=            -66.8017   YY=            -78.3660   ZZ=            -83.2264
   XY=              2.7716   XZ=              1.0287   YZ=             -0.7310

 Summary of Natural Population Analysis:

                                       Natural Population
                Natural  -----------------------------------------------
    Atom  No    Charge         Core      Valence    Rydberg      Total
 -----------------------------------------------------------------------
      P    1    1.32800      9.99864     3.57566    0.09769    13.67200
      P    2    1.32202      9.99861     3.58177    0.09760    13.67798
      C    3   -1.14428      1.99948     5.11362    0.03118     7.14428
      H    4    0.26296      0.00000     0.73545    0.00159     0.73704
      H    5    0.25275      0.00000     0.74480    0.00245     0.74725
      C    6   -0.26348      1.99930     4.24731    0.01687     6.26348
      H    7    0.18656      0.00000     0.81177    0.00167     0.81344
      H    8    0.16981      0.00000     0.82789    0.00230     0.83019
      H    9    0.17595      0.00000     0.82188    0.00217     0.82405
      C   10   -0.24640      1.99930     4.22895    0.01814     6.24640
      H   11    0.18465      0.00000     0.81381    0.00155     0.81535
      H   12    0.17572      0.00000     0.82166    0.00263     0.82428
      H   13    0.17392      0.00000     0.82397    0.00211     0.82608
      C   14   -0.26321      1.99931     4.24736    0.01655     6.26321
      H   15    0.18639      0.00000     0.81192    0.00169     0.81361
      H   16    0.16798      0.00000     0.82972    0.00230     0.83202
      H   17    0.17578      0.00000     0.82210    0.00212     0.82422
      C   18   -0.24500      1.99930     4.22747    0.01822     6.24500
      H   19    0.18463      0.00000     0.81381    0.00156     0.81537
      H   20    0.17801      0.00000     0.81930    0.00269     0.82199
      H   21    0.17213      0.00000     0.82582    0.00205     0.82787
      O   22   -0.77221      1.99983     6.75641    0.01597     8.77221
      O   23   -0.79312      1.99982     6.77720    0.01610     8.79312
      O   24   -0.79541      1.99982     6.78003    0.01556     8.79541
      O   25   -0.77415      1.99983     6.75848    0.01584     8.77415
 =======================================================================
   * Total *    0.00000     37.99325    67.61814    0.38861   106.00000

 Normal termination of Gaussian 16 at Thu Jan 23 19:24:57 2025.
