 Gaussian 16, Revision B.01,
 Gaussian 16:  ES64L-G16RevB.01 20-Dec-2017

 --------------------------------------------
 # nmr=giao b3lyp/def2TZVP pop=nbo scfcyc=200
 --------------------------------------------

 --------------
 MB-97 SPE NoRh
 --------------
 Symbolic Z-matrix:
 Charge =  0 Multiplicity = 1

                         Standard orientation:
 ---------------------------------------------------------------------
 Center     Atomic      Atomic             Coordinates (Angstroms)
 Number     Number       Type             X           Y           Z
 ---------------------------------------------------------------------
      1         15           0       -0.529444   -1.593768   -0.387450
      2         15           0        0.529469    0.997668   -0.590923
      3          6           0       -3.411468   -1.415295    0.084313
      4          6           0       -4.079037   -1.994868   -0.998742
      5          1           0       -3.674111   -2.875726   -1.481707
      6          6           0       -5.281459   -1.471048   -1.460460
      7          1           0       -5.787808   -1.943205   -2.293461
      8          6           0       -5.844381   -0.356871   -0.846180
      9          1           0       -6.785225    0.044612   -1.199319
     10          6           0       -5.196090    0.225478    0.238159
     11          1           0       -5.634125    1.080529    0.736994
     12          6           0       -3.993262   -0.301780    0.696268
     13          1           0       -3.512027    0.145742    1.559059
     14          6           0       -2.115618   -1.970740    0.620764
     15          1           0       -1.918696   -1.493719    1.583371
     16          6           0       -2.074974   -3.498864    0.835970
     17          1           0       -2.695817   -3.767385    1.692081
     18          1           0       -2.495712   -4.015483   -0.030677
     19          6           0       -0.620041   -3.923230    1.028754
     20          1           0       -0.515321   -5.009656    1.057898
     21          1           0       -0.249761   -3.541792    1.983037
     22          6           0        0.191083   -3.342900   -0.142366
     23          1           0       -0.122091   -3.863688   -1.051690
     24          6           0        1.695010   -3.423159   -0.060715
     25          6           0        2.388202   -3.286286    1.146838
     26          1           0        1.848220   -3.131489    2.072975
     27          6           0        3.776805   -3.371264    1.187854
     28          1           0        4.290512   -3.276289    2.136031
     29          6           0        4.501186   -3.590530    0.021561
     30          1           0        5.580796   -3.666168    0.055765
     31          6           0        3.826268   -3.731374   -1.186526
     32          1           0        4.378784   -3.919194   -2.099192
     33          6           0        2.439526   -3.647796   -1.224614
     34          1           0        1.924074   -3.776911   -2.169562
     35          6           0        0.480157   -0.405324    0.647068
     36          1           0        1.481663   -0.818607    0.774383
     37          1           0        0.075712   -0.158861    1.628896
     38          6           0        2.276421    1.697688   -0.541021
     39          6           0        2.420299    2.999133   -1.351235
     40          6           0        2.912652    1.848009    0.853233
     41          1           0        2.833921    0.913201   -1.070083
     42          6           0        3.894652    3.411268   -1.468202
     43          1           0        1.867252    3.801261   -0.853446
     44          1           0        1.983772    2.892075   -2.347394
     45          6           0        4.388712    2.256435    0.728629
     46          1           0        2.380060    2.609063    1.427655
     47          1           0        2.839281    0.916474    1.416795
     48          6           0        4.557394    3.537904   -0.093574
     49          1           0        3.967319    4.354124   -2.014636
     50          1           0        4.431238    2.663226   -2.064549
     51          1           0        4.815136    2.386087    1.725959
     52          1           0        4.948666    1.441606    0.254526
     53          1           0        5.616741    3.775203   -0.207636
     54          1           0        4.107906    4.377969    0.448738
     55          6           0       -0.765575    2.206812    0.043935
     56          6           0       -0.420579    2.924611    1.359758
     57          6           0       -1.240520    3.209330   -1.025062
     58          1           0       -1.608741    1.531545    0.238459
     59          6           0       -1.617252    3.743141    1.867319
     60          1           0        0.422271    3.602823    1.196205
     61          1           0       -0.106516    2.212266    2.126433
     62          6           0       -2.426086    4.038548   -0.510914
     63          1           0       -0.421988    3.882703   -1.295663
     64          1           0       -1.529143    2.674313   -1.932202
     65          6           0       -2.103985    4.740699    0.811976
     66          1           0       -1.337807    4.264756    2.784810
     67          1           0       -2.435090    3.063710    2.131851
     68          1           0       -2.713473    4.770327   -1.269543
     69          1           0       -3.289010    3.377561   -0.372127
     70          1           0       -2.982163    5.276827    1.176830
     71          1           0       -1.327316    5.495329    0.643001
 ---------------------------------------------------------------------

 SCF Done:  E(RB3LYP) =  -1812.34729851     A.U. after   14 cycles

      1  P    Isotropic =   205.8969   Anisotropy =    91.3295

      2  P    Isotropic =   226.8494   Anisotropy =    98.5445

      3  C    Isotropic =    31.3259   Anisotropy =   203.1102

      4  C    Isotropic =    51.1276   Anisotropy =   182.4398

      5  H    Isotropic =    24.2551   Anisotropy =    10.9394

      6  C    Isotropic =    49.0690   Anisotropy =   184.9857

      7  H    Isotropic =    24.2801   Anisotropy =     5.4024

      8  C    Isotropic =    52.2793   Anisotropy =   181.3858

      9  H    Isotropic =    24.4821   Anisotropy =     4.3884

     10  C    Isotropic =    50.0541   Anisotropy =   182.6527

     11  H    Isotropic =    24.4135   Anisotropy =     6.0633

     12  C    Isotropic =    48.2701   Anisotropy =   156.3218

     13  H    Isotropic =    24.4781   Anisotropy =     7.6515

     14  C    Isotropic =   121.1965   Anisotropy =    21.8022

     15  H    Isotropic =    28.4739   Anisotropy =     5.0497

     16  C    Isotropic =   143.0250   Anisotropy =    33.5829

     17  H    Isotropic =    29.5859   Anisotropy =     8.6517

     18  H    Isotropic =    29.8222   Anisotropy =     8.3610

     19  C    Isotropic =   143.6291   Anisotropy =    25.8409

     20  H    Isotropic =    29.6406   Anisotropy =     9.7365

     21  H    Isotropic =    29.7111   Anisotropy =     6.5834

     22  C    Isotropic =   123.1916   Anisotropy =    24.0964

     23  H    Isotropic =    28.3248   Anisotropy =     7.4593

     24  C    Isotropic =    35.8817   Anisotropy =   198.6676

     25  C    Isotropic =    51.2378   Anisotropy =   184.8357

     26  H    Isotropic =    24.4382   Anisotropy =     9.8325

     27  C    Isotropic =    50.0278   Anisotropy =   184.5842

     28  H    Isotropic =    24.2578   Anisotropy =     5.5311

     29  C    Isotropic =    52.7865   Anisotropy =   181.7181

     30  H    Isotropic =    24.4964   Anisotropy =     3.7836

     31  C    Isotropic =    49.3054   Anisotropy =   184.5518

     32  H    Isotropic =    24.3404   Anisotropy =     4.7606

     33  C    Isotropic =    47.7539   Anisotropy =   163.6162

     34  H    Isotropic =    24.3266   Anisotropy =     8.6818

     35  C    Isotropic =   161.0381   Anisotropy =    26.1895

     36  H    Isotropic =    30.8218   Anisotropy =    10.8368

     37  H    Isotropic =    30.5874   Anisotropy =     4.1939

     38  C    Isotropic =   136.4596   Anisotropy =    24.2646

     39  C    Isotropic =   150.1044   Anisotropy =     9.1895

     40  C    Isotropic =   148.1054   Anisotropy =    14.2111

     41  H    Isotropic =    30.8248   Anisotropy =     5.4722

     42  C    Isotropic =   150.7089   Anisotropy =     7.3407

     43  H    Isotropic =    30.9325   Anisotropy =     7.4306

     44  H    Isotropic =    30.2169   Anisotropy =     5.2966

     45  C    Isotropic =   150.8753   Anisotropy =     8.9647

     46  H    Isotropic =    30.6513   Anisotropy =     6.5136

     47  H    Isotropic =    30.3988   Anisotropy =     7.5217

     48  C    Isotropic =   152.3040   Anisotropy =     3.3702

     49  H    Isotropic =    30.2758   Anisotropy =    10.1295

     50  H    Isotropic =    30.9012   Anisotropy =     7.9986

     51  H    Isotropic =    30.3731   Anisotropy =     8.9819

     52  H    Isotropic =    31.1348   Anisotropy =     7.6080

     53  H    Isotropic =    30.3945   Anisotropy =    10.6635

     54  H    Isotropic =    30.8096   Anisotropy =     8.0806

     55  C    Isotropic =   140.5962   Anisotropy =    17.9849

     56  C    Isotropic =   147.8076   Anisotropy =    12.1161

     57  C    Isotropic =   146.5236   Anisotropy =    17.0548

     58  H    Isotropic =    30.6094   Anisotropy =     9.1963

     59  C    Isotropic =   150.5153   Anisotropy =     8.3125

     60  H    Isotropic =    30.5239   Anisotropy =     7.9694

     61  H    Isotropic =    29.9216   Anisotropy =     5.3887

     62  C    Isotropic =   151.1520   Anisotropy =     6.1100

     63  H    Isotropic =    30.8113   Anisotropy =     6.7284

     64  H    Isotropic =    30.3049   Anisotropy =     5.1063

     65  C    Isotropic =   152.6952   Anisotropy =     3.3719

     66  H    Isotropic =    30.1092   Anisotropy =     9.3424

     67  H    Isotropic =    30.6784   Anisotropy =     6.4728

     68  H    Isotropic =    30.3530   Anisotropy =    10.0499

     69  H    Isotropic =    30.7736   Anisotropy =     8.2545

     70  H    Isotropic =    30.2737   Anisotropy =    10.3872

     71  H    Isotropic =    30.7493   Anisotropy =     8.5666

 The electronic state is 1-A.
 Alpha  occ. eigenvalues --  -77.03947 -77.02665 -10.18844 -10.18469 -10.18308
 Alpha  occ. eigenvalues --  -10.18284 -10.17753 -10.17662 -10.17598 -10.17531
 Alpha  occ. eigenvalues --  -10.17460 -10.17438 -10.17433 -10.17433 -10.17389
 Alpha  occ. eigenvalues --  -10.17387 -10.17299 -10.17209 -10.17192 -10.17183
 Alpha  occ. eigenvalues --  -10.17033 -10.16406 -10.16397 -10.16177 -10.16135
 Alpha  occ. eigenvalues --  -10.16088 -10.16056 -10.16011 -10.15999 -10.15961
 Alpha  occ. eigenvalues --  -10.15942  -6.52480  -6.51259  -4.68613  -4.68598
 Alpha  occ. eigenvalues --   -4.68106  -4.67429  -4.67358  -4.66875  -0.86560
 Alpha  occ. eigenvalues --   -0.86080  -0.83258  -0.82649  -0.82634  -0.77880
 Alpha  occ. eigenvalues --   -0.75878  -0.75200  -0.74948  -0.74666  -0.74053
 Alpha  occ. eigenvalues --   -0.73840  -0.73429  -0.72247  -0.69762  -0.66383
 Alpha  occ. eigenvalues --   -0.62326  -0.61666  -0.60982  -0.60819  -0.60389
 Alpha  occ. eigenvalues --   -0.60204  -0.59985  -0.59479  -0.56632  -0.56029
 Alpha  occ. eigenvalues --   -0.54924  -0.53899  -0.52554  -0.51800  -0.50279
 Alpha  occ. eigenvalues --   -0.47859  -0.47319  -0.47024  -0.46689  -0.46099
 Alpha  occ. eigenvalues --   -0.45357  -0.45195  -0.44429  -0.44164  -0.44043
 Alpha  occ. eigenvalues --   -0.43959  -0.43691  -0.42821  -0.42605  -0.42297
 Alpha  occ. eigenvalues --   -0.42184  -0.41759  -0.40949  -0.39640  -0.39150
 Alpha  occ. eigenvalues --   -0.38379  -0.37929  -0.37852  -0.37737  -0.37360
 Alpha  occ. eigenvalues --   -0.37188  -0.37041  -0.36634  -0.35856  -0.35334
 Alpha  occ. eigenvalues --   -0.35031  -0.34774  -0.34564  -0.33930  -0.33824
 Alpha  occ. eigenvalues --   -0.33680  -0.33615  -0.33162  -0.32519  -0.32106
 Alpha  occ. eigenvalues --   -0.31713  -0.31245  -0.30478  -0.30025  -0.28740
 Alpha  occ. eigenvalues --   -0.27416  -0.25965  -0.25680  -0.25289  -0.23780
 Alpha  occ. eigenvalues --   -0.21848  -0.17846
 Alpha virt. eigenvalues --   -0.02214  -0.01844  -0.01507  -0.01059   0.01518
 Alpha virt. eigenvalues --    0.02101   0.02693   0.03052   0.03439   0.04012
 Alpha virt. eigenvalues --    0.04162   0.05318   0.05363   0.05820   0.06147

 Mulliken charges:
               1
     1  P    0.128361
     2  P    0.142847
     3  C    0.251007
     4  C   -0.217573
     5  H    0.096145
     6  C   -0.107474
     7  H    0.105475
     8  C   -0.115947
     9  H    0.106364
    10  C   -0.119586
    11  H    0.105662
    12  C   -0.211206
    13  H    0.112475
    14  C   -0.144735
    15  H    0.068234
    16  C   -0.169825
    17  H    0.103495
    18  H    0.092607
    19  C   -0.149478
    20  H    0.097322
    21  H    0.081653
    22  C   -0.087976
    23  H    0.077764
    24  C    0.161915
    25  C   -0.237298
    26  H    0.105522
    27  C   -0.091655
    28  H    0.107114
    29  C   -0.118169
    30  H    0.107514
    31  C   -0.109437
    32  H    0.107560
    33  C   -0.194395
    34  H    0.105086
    35  C   -0.387250
    36  H    0.147639
    37  H    0.106341
    38  C   -0.078962
    39  C   -0.215935
    40  C   -0.199629
    41  H    0.074104
    42  C   -0.158466
    43  H    0.077767
    44  H    0.106939
    45  C   -0.162380
    46  H    0.087941
    47  H    0.094947
    48  C   -0.154607
    49  H    0.090556
    50  H    0.082063
    51  H    0.087281
    52  H    0.082766
    53  H    0.090943
    54  H    0.073280
    55  C   -0.070934
    56  C   -0.210465
    57  C   -0.196513
    58  H    0.047359
    59  C   -0.155598
    60  H    0.075874
    61  H    0.098514
    62  C   -0.168633
    63  H    0.087510
    64  H    0.104831
    65  C   -0.158418
    66  H    0.087961
    67  H    0.077507
    68  H    0.090373
    69  H    0.090667
    70  H    0.090819
    71  H    0.074438
 Sum of Mulliken charges =  -0.00000

 Dipole moment (field-independent basis, Debye):
    X=              0.4400    Y=             -0.0500    Z=              1.7467  Tot=              1.8019
 Quadrupole moment (field-independent basis, Debye-Ang):
   XX=           -200.3802   YY=           -202.7504   ZZ=           -205.2876
   XY=             -1.0118   XZ=              0.6936   YZ=              2.6262

 Summary of Natural Population Analysis:

                                       Natural Population
                Natural  -----------------------------------------------
    Atom  No    Charge         Core      Valence    Rydberg      Total
 -----------------------------------------------------------------------
      P    1    0.79161      9.99863     4.17872    0.03104    14.20839
      P    2    0.80985      9.99854     4.15781    0.03380    14.19015
      C    3   -0.01762      1.99905     3.99534    0.02323     6.01762
      C    4   -0.20418      1.99907     4.18680    0.01831     6.20418
      H    5    0.20216      0.00000     0.79570    0.00214     0.79784
      C    6   -0.19399      1.99920     4.17612    0.01867     6.19399
      H    7    0.20690      0.00000     0.79185    0.00125     0.79310
      C    8   -0.21542      1.99919     4.19691    0.01933     6.21542
      H    9    0.20737      0.00000     0.79142    0.00121     0.79263
      C   10   -0.19943      1.99919     4.18115    0.01909     6.19943
      H   11    0.20669      0.00000     0.79203    0.00128     0.79331
      C   12   -0.21036      1.99908     4.19193    0.01934     6.21036
      H   13    0.19877      0.00000     0.79878    0.00245     0.80123
      C   14   -0.47823      1.99931     4.45357    0.02535     6.47823
      H   15    0.20857      0.00000     0.78798    0.00345     0.79143
      C   16   -0.38300      1.99940     4.36815    0.01546     6.38300
      H   17    0.21223      0.00000     0.78612    0.00165     0.78777
      H   18    0.19493      0.00000     0.80346    0.00161     0.80507
      C   19   -0.38401      1.99939     4.36941    0.01521     6.38401
      H   20    0.20798      0.00000     0.79005    0.00197     0.79202
      H   21    0.18871      0.00000     0.80966    0.00163     0.81129
      C   22   -0.47657      1.99932     4.45253    0.02473     6.47657
      H   23    0.21879      0.00000     0.77872    0.00249     0.78121
      C   24   -0.02152      1.99906     3.99786    0.02460     6.02152
      C   25   -0.22105      1.99907     4.20382    0.01816     6.22105
      H   26    0.20373      0.00000     0.79445    0.00181     0.79627
      C   27   -0.19810      1.99919     4.18023    0.01868     6.19810
      H   28    0.20699      0.00000     0.79174    0.00128     0.79301
      C   29   -0.21717      1.99918     4.19874    0.01924     6.21717
      H   30    0.20793      0.00000     0.79089    0.00118     0.79207
      C   31   -0.19651      1.99919     4.17822    0.01910     6.19651
      H   32    0.20845      0.00000     0.79033    0.00122     0.79155
      C   33   -0.20247      1.99910     4.18481    0.01856     6.20247
      H   34    0.20801      0.00000     0.79064    0.00135     0.79199
      C   35   -1.03317      1.99946     5.00294    0.03077     7.03317
      H   36    0.25641      0.00000     0.74125    0.00233     0.74359
      H   37    0.22851      0.00000     0.76869    0.00280     0.77149
      C   38   -0.48197      1.99937     4.45813    0.02447     6.48197
      C   39   -0.39196      1.99938     4.37761    0.01497     6.39196
      C   40   -0.39266      1.99938     4.37933    0.01395     6.39266
      H   41    0.21096      0.00000     0.78663    0.00242     0.78904
      C   42   -0.38074      1.99943     4.36774    0.01358     6.38074
      H   43    0.18470      0.00000     0.81299    0.00230     0.81530
      H   44    0.21198      0.00000     0.78598    0.00205     0.78802
      C   45   -0.38356      1.99943     4.37059    0.01354     6.38356
      H   46    0.18842      0.00000     0.80943    0.00215     0.81158
      H   47    0.19776      0.00000     0.80038    0.00186     0.80224
      C   48   -0.38600      1.99943     4.37323    0.01334     6.38600
      H   49    0.20085      0.00000     0.79777    0.00138     0.79915
      H   50    0.18829      0.00000     0.80990    0.00181     0.81171
      H   51    0.19881      0.00000     0.79972    0.00146     0.80119
      H   52    0.18748      0.00000     0.81067    0.00185     0.81252
      H   53    0.20098      0.00000     0.79767    0.00134     0.79902
      H   54    0.18566      0.00000     0.81249    0.00185     0.81434
      C   55   -0.48596      1.99937     4.46077    0.02582     6.48596
      C   56   -0.39327      1.99938     4.37951    0.01439     6.39327
      C   57   -0.39123      1.99938     4.37649    0.01537     6.39123
      H   58    0.21434      0.00000     0.78286    0.00280     0.78566
      C   59   -0.38312      1.99943     4.37022    0.01347     6.38312
      H   60    0.18614      0.00000     0.81144    0.00242     0.81386
      H   61    0.19599      0.00000     0.80168    0.00233     0.80401
      C   62   -0.38330      1.99942     4.37022    0.01366     6.38330
      H   63    0.18705      0.00000     0.81069    0.00226     0.81295
      H   64    0.21596      0.00000     0.78213    0.00191     0.78404
      C   65   -0.38603      1.99943     4.37333    0.01327     6.38603
      H   66    0.19893      0.00000     0.79958    0.00148     0.80107
      H   67    0.18461      0.00000     0.81364    0.00175     0.81539
      H   68    0.20155      0.00000     0.79709    0.00136     0.79845
      H   69    0.19078      0.00000     0.80743    0.00179     0.80922
      H   70    0.20056      0.00000     0.79809    0.00135     0.79944
      H   71    0.18619      0.00000     0.81196    0.00185     0.81381
 =======================================================================
   * Total *    0.00000     77.97644   165.34617    0.67740   244.00000

 Normal termination of Gaussian 16 at Fri Jan 24 01:43:43 2025.
