 Gaussian 16, Revision B.01,
 Gaussian 16:  ES64L-G16RevB.01 20-Dec-2017

 --------------------------------------------
 # nmr=giao b3lyp/def2TZVP pop=nbo scfcyc=200
 --------------------------------------------

 ------------------
 Ligand 9b SPE NoRh
 ------------------
 Symbolic Z-matrix:
 Charge =  0 Multiplicity = 1

                         Standard orientation:
 ---------------------------------------------------------------------
 Center     Atomic      Atomic             Coordinates (Angstroms)
 Number     Number       Type             X           Y           Z
 ---------------------------------------------------------------------
      1         15           0        1.129018    0.724108    0.029982
      2         15           0       -1.219862   -0.654755    0.665326
      3          6           0       -0.294913   -0.106673   -0.862424
      4          1           0       -0.873998    0.678482   -1.344582
      5          1           0       -0.071608   -0.878230   -1.596659
      6          6           0       -3.025910   -0.599731    0.331743
      7          6           0       -3.633840    0.618257   -0.034931
      8          6           0       -5.011047    0.680450   -0.238047
      9          1           0       -5.484365    1.607332   -0.528277
     10          6           0       -5.789213   -0.460668   -0.071747
     11          6           0       -5.208181   -1.665411    0.295082
     12          1           0       -5.813308   -2.552547    0.424442
     13          6           0       -3.832970   -1.727979    0.493739
     14          6           0       -0.816042   -2.447406    0.829511
     15          1           0       -1.256788   -2.852441    1.739597
     16          1           0       -1.164987   -3.019503   -0.031497
     17          1           0        0.266113   -2.542050    0.912604
     18          6           0        2.635683   -0.295066   -0.269461
     19          6           0        2.604407   -1.514425   -0.947123
     20          6           0        3.872399    0.162257    0.228612
     21          6           0        3.758942   -2.266758   -1.138394
     22          6           0        5.030992   -0.583816    0.032307
     23          6           0        4.967772   -1.796440   -0.648226
     24          1           0        3.709578   -3.207076   -1.671787
     25          1           0        5.982092   -0.233177    0.404317
     26          6           0        1.414818    2.289957   -0.911305
     27          1           0        2.241280    2.834340   -0.460823
     28          1           0        1.650921    2.067761   -1.952820
     29          1           0        0.511407    2.896988   -0.859193
     30          1           0       -6.858485   -0.398523   -0.232330
     31          1           0       -3.392785   -2.673012    0.778794
     32          1           0        5.875612   -2.369008   -0.793148
     33          1           0        1.673138   -1.892593   -1.344528
     34          6           0        5.071082    1.918962    1.363574
     35          1           0        4.802595    2.864262    1.827953
     36          1           0        5.542782    1.271919    2.105093
     37          1           0        5.761968    2.102222    0.537434
     38          8           0        3.843505    1.356538    0.891354
     39          8           0       -2.798268    1.687838   -0.177378
     40          6           0       -3.355822    2.963333   -0.503259
     41          1           0       -3.844286    2.943339   -1.480254
     42          1           0       -4.067649    3.289110    0.258840
     43          1           0       -2.517387    3.654043   -0.532511
 ---------------------------------------------------------------------

 SCF Done:  E(RB3LYP) =  -1494.53709666     A.U. after   26 cycles

      1  P    Isotropic =   265.4463   Anisotropy =   110.8788

      2  P    Isotropic =   280.0600   Anisotropy =    71.5479

      3  C    Isotropic =   160.2294   Anisotropy =    20.5198

      4  H    Isotropic =    29.6107   Anisotropy =     8.9302

      5  H    Isotropic =    30.0057   Anisotropy =     5.8847

      6  C    Isotropic =    43.3243   Anisotropy =   172.3519

      7  C    Isotropic =    15.4612   Anisotropy =   133.7227

      8  C    Isotropic =    72.0874   Anisotropy =   154.8220

      9  H    Isotropic =    25.0700   Anisotropy =     8.3613

     10  C    Isotropic =    51.8069   Anisotropy =   177.7367

     11  C    Isotropic =    58.1791   Anisotropy =   171.8481

     12  H    Isotropic =    24.7723   Anisotropy =     5.1559

     13  C    Isotropic =    51.0216   Anisotropy =   177.4817

     14  C    Isotropic =   173.2572   Anisotropy =    12.6106

     15  H    Isotropic =    30.7199   Anisotropy =    10.7673

     16  H    Isotropic =    30.4493   Anisotropy =     8.5885

     17  H    Isotropic =    30.6430   Anisotropy =     8.1589

     18  C    Isotropic =    44.6145   Anisotropy =   174.6097

     19  C    Isotropic =    49.6131   Anisotropy =   178.9711

     20  C    Isotropic =    16.2163   Anisotropy =   132.8855

     21  C    Isotropic =    58.8814   Anisotropy =   170.4559

     22  C    Isotropic =    71.6767   Anisotropy =   155.7119

     23  C    Isotropic =    50.8086   Anisotropy =   178.7875

     24  H    Isotropic =    24.7627   Anisotropy =     5.8059

     25  H    Isotropic =    25.0805   Anisotropy =     7.7827

     26  C    Isotropic =   168.4796   Anisotropy =    24.0726

     27  H    Isotropic =    29.9978   Anisotropy =     9.5818

     28  H    Isotropic =    30.4821   Anisotropy =     8.1343

     29  H    Isotropic =    30.7372   Anisotropy =     8.6414

     30  H    Isotropic =    24.5345   Anisotropy =     4.8974

     31  H    Isotropic =    24.5955   Anisotropy =    11.5942

     32  H    Isotropic =    24.4884   Anisotropy =     4.7806

     33  H    Isotropic =    24.3366   Anisotropy =    10.9532

     34  C    Isotropic =   126.6729   Anisotropy =    76.6576

     35  H    Isotropic =    27.8054   Anisotropy =     8.4443

     36  H    Isotropic =    28.1560   Anisotropy =     9.0112

     37  H    Isotropic =    28.2379   Anisotropy =     8.9456

     38  O    Isotropic =   214.4943   Anisotropy =   102.4575

     39  O    Isotropic =   216.9564   Anisotropy =    97.1384

     40  C    Isotropic =   126.5838   Anisotropy =    75.8730

     41  H    Isotropic =    28.0957   Anisotropy =     8.5954

     42  H    Isotropic =    28.1497   Anisotropy =     8.9861

     43  H    Isotropic =    27.7640   Anisotropy =     7.4482

 The electronic state is 1-A.
 Alpha  occ. eigenvalues --  -77.03961 -77.03817 -19.16184 -19.16033 -10.23613
 Alpha  occ. eigenvalues --  -10.23488 -10.23059 -10.22948 -10.17746 -10.17455
 Alpha  occ. eigenvalues --  -10.17431 -10.17417 -10.17292 -10.17243 -10.17214
 Alpha  occ. eigenvalues --  -10.17178 -10.17146 -10.16675 -10.16455 -10.16415
 Alpha  occ. eigenvalues --  -10.15961  -6.52471  -6.52346  -4.68647  -4.68579
 Alpha  occ. eigenvalues --   -4.68499  -4.68477  -4.68095  -4.67968  -1.06928
 Alpha  occ. eigenvalues --   -1.06753  -0.85462  -0.85251  -0.77361  -0.76376
 Alpha  occ. eigenvalues --   -0.75432  -0.75077  -0.73503  -0.71584  -0.69898
 Alpha  occ. eigenvalues --   -0.69807  -0.68508  -0.61930  -0.61495  -0.59485
 Alpha  occ. eigenvalues --   -0.59300  -0.55507  -0.54621  -0.52343  -0.52237
 Alpha  occ. eigenvalues --   -0.48705  -0.48592  -0.47674  -0.47579  -0.47414
 Alpha  occ. eigenvalues --   -0.47191  -0.44997  -0.44629  -0.43797  -0.42804
 Alpha  occ. eigenvalues --   -0.42108  -0.41931  -0.41465  -0.40808  -0.40259
 Alpha  occ. eigenvalues --   -0.39154  -0.38706  -0.38532  -0.38345  -0.37424
 Alpha  occ. eigenvalues --   -0.36271  -0.35947  -0.35271  -0.35185  -0.32830
 Alpha  occ. eigenvalues --   -0.32808  -0.32318  -0.32044  -0.30645  -0.26571
 Alpha  occ. eigenvalues --   -0.26202  -0.23427  -0.23140  -0.20747  -0.17736
 Alpha virt. eigenvalues --   -0.01968  -0.01617  -0.00288   0.00087   0.03026
 Alpha virt. eigenvalues --    0.03097   0.03682   0.04431   0.04691   0.05122
 Alpha virt. eigenvalues --    0.06214   0.06590   0.07128   0.07786   0.08621

 Mulliken charges:
               1
     1  P    0.190995
     2  P    0.198873
     3  C   -0.336711
     4  H    0.133129
     5  H    0.116617
     6  C   -0.022073
     7  C    0.290637
     8  C   -0.257089
     9  H    0.112532
    10  C   -0.107278
    11  C   -0.161621
    12  H    0.100550
    13  C   -0.145069
    14  C   -0.473031
    15  H    0.133523
    16  H    0.120875
    17  H    0.156894
    18  C   -0.022335
    19  C   -0.140296
    20  C    0.301710
    21  C   -0.168388
    22  C   -0.263159
    23  C   -0.102152
    24  H    0.100843
    25  H    0.113988
    26  C   -0.425466
    27  H    0.136334
    28  H    0.114624
    29  H    0.117786
    30  H    0.104911
    31  H    0.114522
    32  H    0.105912
    33  H    0.103972
    34  C   -0.209926
    35  H    0.136187
    36  H    0.125074
    37  H    0.121747
    38  O   -0.291438
    39  O   -0.301591
    40  C   -0.206975
    41  H    0.122062
    42  H    0.127367
    43  H    0.132934
 Sum of Mulliken charges =  -0.00000

 Dipole moment (field-independent basis, Debye):
    X=              0.8778    Y=              1.4771    Z=             -1.5304  Tot=              2.3010
 Quadrupole moment (field-independent basis, Debye-Ang):
   XX=           -118.7029   YY=           -126.8471   ZZ=           -146.2717
   XY=             -0.9714   XZ=              6.8144   YZ=             -1.0369

 Summary of Natural Population Analysis:

                                       Natural Population
                Natural  -----------------------------------------------
    Atom  No    Charge         Core      Valence    Rydberg      Total
 -----------------------------------------------------------------------
      P    1    0.83316      9.99853     4.13158    0.03673    14.16684
      P    2    0.83512      9.99852     4.12853    0.03783    14.16488
      C    3   -1.00739      1.99944     4.97664    0.03132     7.00739
      H    4    0.26336      0.00000     0.73505    0.00159     0.73664
      H    5    0.22806      0.00000     0.76917    0.00277     0.77194
      C    6   -0.36187      1.99892     4.33394    0.02901     6.36187
      C    7    0.28320      1.99869     3.69166    0.02644     5.71680
      C    8   -0.29247      1.99905     4.27416    0.01925     6.29247
      H    9    0.21095      0.00000     0.78738    0.00168     0.78905
      C   10   -0.19392      1.99920     4.17461    0.02011     6.19392
      C   11   -0.22988      1.99917     4.21112    0.01958     6.22988
      H   12    0.20714      0.00000     0.79162    0.00124     0.79286
      C   13   -0.19168      1.99911     4.17292    0.01965     6.19168
      C   14   -0.92496      1.99945     4.90678    0.01873     6.92496
      H   15    0.23082      0.00000     0.76827    0.00091     0.76918
      H   16    0.20924      0.00000     0.78767    0.00309     0.79076
      H   17    0.23764      0.00000     0.76133    0.00102     0.76236
      C   18   -0.35784      1.99890     4.32907    0.02987     6.35784
      C   19   -0.19445      1.99910     4.17578    0.01957     6.19445
      C   20    0.28386      1.99868     3.69081    0.02664     5.71614
      C   21   -0.23165      1.99917     4.21284    0.01964     6.23165
      C   22   -0.29171      1.99905     4.27340    0.01926     6.29171
      C   23   -0.19192      1.99920     4.17269    0.02003     6.19192
      H   24    0.20761      0.00000     0.79115    0.00124     0.79239
      H   25    0.21187      0.00000     0.78645    0.00168     0.78813
      C   26   -0.90398      1.99944     4.88594    0.01861     6.90398
      H   27    0.23753      0.00000     0.76138    0.00109     0.76247
      H   28    0.20907      0.00000     0.78838    0.00255     0.79093
      H   29    0.22012      0.00000     0.77875    0.00113     0.77988
      H   30    0.20627      0.00000     0.79251    0.00122     0.79373
      H   31    0.20377      0.00000     0.79396    0.00227     0.79623
      H   32    0.20677      0.00000     0.79202    0.00121     0.79323
      H   33    0.20013      0.00000     0.79717    0.00270     0.79987
      C   34   -0.24853      1.99927     4.23548    0.01379     6.24853
      H   35    0.19481      0.00000     0.80389    0.00130     0.80519
      H   36    0.17287      0.00000     0.82481    0.00232     0.82713
      H   37    0.17109      0.00000     0.82658    0.00233     0.82891
      O   38   -0.46388      1.99976     6.44731    0.01681     8.46388
      O   39   -0.46876      1.99976     6.45195    0.01705     8.46876
      C   40   -0.24813      1.99927     4.23497    0.01389     6.24813
      H   41    0.17066      0.00000     0.82703    0.00231     0.82934
      H   42    0.17488      0.00000     0.82280    0.00232     0.82512
      H   43    0.19300      0.00000     0.80549    0.00151     0.80700
 =======================================================================
   * Total *   -0.00000     57.98169   111.50504    0.51327   170.00000

 Normal termination of Gaussian 16 at Wed Nov  6 15:24:22 2024.
