 Gaussian 16, Revision B.01,
 Gaussian 16:  ES64L-G16RevB.01 20-Dec-2017

 --------------------------------------------
 # nmr=giao b3lyp/def2TZVP pop=nbo scfcyc=200
 --------------------------------------------

 --------------
 MB-93 SPE NoRh
 --------------
 Symbolic Z-matrix:
 Charge =  0 Multiplicity = 1

                         Standard orientation:
 ---------------------------------------------------------------------
 Center     Atomic      Atomic             Coordinates (Angstroms)
 Number     Number       Type             X           Y           Z
 ---------------------------------------------------------------------
      1         15           0       -1.349550   -0.140313   -0.711462
      2         15           0        1.333405   -0.173246   -0.703972
      3          6           0       -0.001733    0.687814    0.258867
      4          1           0       -0.007110    0.476792    1.327647
      5          1           0        0.010952    1.765102    0.086415
      6          6           0       -2.926672   -2.103634    0.225296
      7          6           0       -2.637043   -3.309958    0.848278
      8          6           0       -4.059777   -1.949414   -0.563837
      9          6           0       -3.497115   -4.387550    0.668095
     10          1           0       -1.755401   -3.391153    1.470249
     11          6           0       -4.908135   -3.039623   -0.741873
     12          1           0       -4.291035   -0.992002   -1.014131
     13          6           0       -4.630761   -4.256681   -0.130007
     14          1           0       -3.281492   -5.329599    1.155151
     15          1           0       -5.797044   -2.926692   -1.351037
     16          1           0       -5.299321   -5.097551   -0.264507
     17          6           0       -2.867458    2.094291   -0.398651
     18          6           0       -2.811129    3.338167   -1.012709
     19          6           0       -3.372599    1.938616    0.886868
     20          6           0       -3.266278    4.454873   -0.318972
     21          1           0       -2.425586    3.420265   -2.019949
     22          6           0       -3.817479    3.067158    1.569908
     23          1           0       -3.427896    0.960240    1.343794
     24          6           0       -3.766881    4.322473    0.972352
     25          1           0       -3.230119    5.427762   -0.792679
     26          1           0       -4.215652    2.957861    2.571010
     27          1           0       -4.121727    5.193126    1.509582
     28          6           0        2.883955    2.046659   -0.426400
     29          6           0        2.907739    3.268105   -1.087360
     30          6           0        3.329719    1.918983    0.882975
     31          6           0        3.381926    4.389181   -0.416993
     32          1           0        2.565537    3.326531   -2.112184
     33          6           0        3.796224    3.054203    1.543294
     34          1           0        3.324857    0.958241    1.377919
     35          6           0        3.825252    4.285888    0.898511
     36          1           0        3.407646    5.343822   -0.926520
     37          1           0        4.148730    2.965514    2.563223
     38          1           0        4.194687    5.160858    1.417181
     39          6           0        2.900228   -2.132117    0.260545
     40          6           0        2.572373   -3.351534    0.836549
     41          6           0        4.072054   -1.965072   -0.468254
     42          6           0        3.432716   -4.431101    0.669385
     43          1           0        1.661325   -3.441270    1.412901
     44          6           0        4.921095   -3.057673   -0.633581
     45          1           0        4.328115   -1.000054   -0.883886
     46          6           0        4.604978   -4.288378   -0.068704
     47          1           0        3.186947   -5.384194    1.120806
     48          1           0        5.837888   -2.935874   -1.195864
     49          1           0        5.273736   -5.130942   -0.192902
     50          8           0       -2.438934    0.995652   -1.168819
     51          8           0       -2.060650   -1.029712    0.481355
     52          8           0        2.437099    0.941156   -1.175758
     53          8           0        2.032853   -1.055281    0.501697
 ---------------------------------------------------------------------

 SCF Done:  E(RB3LYP) =  -1950.08968158     A.U. after   37 cycles

      1  P    Isotropic =    76.4842   Anisotropy =   271.4077

      2  P    Isotropic =    76.8756   Anisotropy =   272.5213

      3  C    Isotropic =   138.7578   Anisotropy =    11.6918

      4  H    Isotropic =    29.3869   Anisotropy =     2.8583

      5  H    Isotropic =    30.1301   Anisotropy =     8.4076

      6  C    Isotropic =    16.2796   Anisotropy =   125.9822

      7  C    Isotropic =    57.3926   Anisotropy =   152.9005

      8  C    Isotropic =    58.5852   Anisotropy =   155.9434

      9  C    Isotropic =    48.9071   Anisotropy =   183.4048

     10  H    Isotropic =    24.4446   Anisotropy =     7.4883

     11  C    Isotropic =    47.9282   Anisotropy =   183.9648

     12  H    Isotropic =    24.1964   Anisotropy =     8.9836

     13  C    Isotropic =    54.5512   Anisotropy =   179.8453

     14  H    Isotropic =    24.3149   Anisotropy =     5.5799

     15  H    Isotropic =    24.2938   Anisotropy =     6.0162

     16  H    Isotropic =    24.5391   Anisotropy =     4.3481

     17  C    Isotropic =    16.3674   Anisotropy =   126.9269

     18  C    Isotropic =    57.0526   Anisotropy =   155.2886

     19  C    Isotropic =    57.4276   Anisotropy =   157.7814

     20  C    Isotropic =    48.5343   Anisotropy =   185.2543

     21  H    Isotropic =    24.6417   Anisotropy =     6.7088

     22  C    Isotropic =    47.8060   Anisotropy =   185.9841

     23  H    Isotropic =    24.0837   Anisotropy =     8.9147

     24  C    Isotropic =    54.5461   Anisotropy =   181.4989

     25  H    Isotropic =    24.4409   Anisotropy =     4.7276

     26  H    Isotropic =    24.4316   Anisotropy =     6.0517

     27  H    Isotropic =    24.6527   Anisotropy =     4.0037

     28  C    Isotropic =    16.2635   Anisotropy =   126.5833

     29  C    Isotropic =    57.0820   Anisotropy =   155.2625

     30  C    Isotropic =    57.7019   Anisotropy =   158.1789

     31  C    Isotropic =    48.6058   Anisotropy =   185.1488

     32  H    Isotropic =    24.6054   Anisotropy =     6.7670

     33  C    Isotropic =    47.7366   Anisotropy =   186.2518

     34  H    Isotropic =    24.0417   Anisotropy =     8.9018

     35  C    Isotropic =    54.6531   Anisotropy =   181.6838

     36  H    Isotropic =    24.4234   Anisotropy =     4.6723

     37  H    Isotropic =    24.4234   Anisotropy =     6.0567

     38  H    Isotropic =    24.6542   Anisotropy =     3.9902

     39  C    Isotropic =    16.3362   Anisotropy =   125.7837

     40  C    Isotropic =    57.2674   Anisotropy =   153.0144

     41  C    Isotropic =    58.1460   Anisotropy =   156.4240

     42  C    Isotropic =    48.8223   Anisotropy =   183.3113

     43  H    Isotropic =    24.4663   Anisotropy =     7.4672

     44  C    Isotropic =    47.9122   Anisotropy =   184.1155

     45  H    Isotropic =    24.2590   Anisotropy =     9.0520

     46  C    Isotropic =    54.4575   Anisotropy =   179.8477

     47  H    Isotropic =    24.3135   Anisotropy =     5.6345

     48  H    Isotropic =    24.3242   Anisotropy =     6.0756

     49  H    Isotropic =    24.5427   Anisotropy =     4.3545

     50  O    Isotropic =   147.3361   Anisotropy =   103.8265

     51  O    Isotropic =   137.3705   Anisotropy =    89.0324

     52  O    Isotropic =   148.0898   Anisotropy =   107.0698

     53  O    Isotropic =   136.9797   Anisotropy =    83.7653

 The electronic state is 1-A.
 Alpha  occ. eigenvalues --  -77.11558 -77.11531 -19.16214 -19.16166 -19.15842
 Alpha  occ. eigenvalues --  -19.15787 -10.24353 -10.24315 -10.24182 -10.24163
 Alpha  occ. eigenvalues --  -10.18599 -10.18583 -10.18579 -10.18574 -10.18494
 Alpha  occ. eigenvalues --  -10.18289 -10.18270 -10.18234 -10.18227 -10.18190
 Alpha  occ. eigenvalues --  -10.18182 -10.18152 -10.18149 -10.18038 -10.18032
 Alpha  occ. eigenvalues --  -10.17882 -10.17878 -10.17877 -10.17877 -10.17619
 Alpha  occ. eigenvalues --  -10.17603  -6.59222  -6.59200  -4.75531  -4.75508
 Alpha  occ. eigenvalues --   -4.75365  -4.75341  -4.74751  -4.74729  -1.06870
 Alpha  occ. eigenvalues --   -1.06746  -1.04120  -1.04094  -0.86552  -0.86512
 Alpha  occ. eigenvalues --   -0.86064  -0.86026  -0.77609  -0.76150  -0.76054
 Alpha  occ. eigenvalues --   -0.75803  -0.75648  -0.75573  -0.74983  -0.74775
 Alpha  occ. eigenvalues --   -0.73435  -0.65799  -0.64038  -0.62271  -0.62238
 Alpha  occ. eigenvalues --   -0.61977  -0.61967  -0.61599  -0.61465  -0.57797
 Alpha  occ. eigenvalues --   -0.57406  -0.55216  -0.55145  -0.51507  -0.51381
 Alpha  occ. eigenvalues --   -0.50231  -0.49867  -0.49164  -0.48003  -0.47718
 Alpha  occ. eigenvalues --   -0.47667  -0.47562  -0.46563  -0.45540  -0.45498
 Alpha  occ. eigenvalues --   -0.45062  -0.44980  -0.44540  -0.43909  -0.43702
 Alpha  occ. eigenvalues --   -0.43458  -0.43093  -0.43083  -0.42948  -0.41346
 Alpha  occ. eigenvalues --   -0.39382  -0.39308  -0.38671  -0.37502  -0.37458
 Alpha  occ. eigenvalues --   -0.37285  -0.37257  -0.36885  -0.36862  -0.36476
 Alpha  occ. eigenvalues --   -0.36334  -0.35856  -0.35111  -0.35022  -0.33712
 Alpha  occ. eigenvalues --   -0.31795  -0.31707  -0.26879  -0.26855  -0.26495
 Alpha  occ. eigenvalues --   -0.26388  -0.26095  -0.25553  -0.25262  -0.25066
 Alpha  occ. eigenvalues --   -0.24024  -0.20962
 Alpha virt. eigenvalues --   -0.03208  -0.02754  -0.02489  -0.02160  -0.01884
 Alpha virt. eigenvalues --   -0.01517  -0.01179  -0.01031   0.00290   0.02539
 Alpha virt. eigenvalues --    0.03693   0.04201   0.04408   0.04939   0.05353

 Mulliken charges:
               1
     1  P    0.427147
     2  P    0.426092
     3  C   -0.343838
     4  H    0.132957
     5  H    0.156206
     6  C    0.274632
     7  C   -0.200006
     8  C   -0.190404
     9  C   -0.088866
    10  H    0.114789
    11  C   -0.098163
    12  H    0.137885
    13  C   -0.118363
    14  H    0.109509
    15  H    0.113398
    16  H    0.109162
    17  C    0.182057
    18  C   -0.182048
    19  C   -0.155973
    20  C   -0.085263
    21  H    0.119650
    22  C   -0.101314
    23  H    0.153724
    24  C   -0.117440
    25  H    0.112079
    26  H    0.114618
    27  H    0.110761
    28  C    0.179768
    29  C   -0.183220
    30  C   -0.155025
    31  C   -0.084968
    32  H    0.119642
    33  C   -0.101721
    34  H    0.155134
    35  C   -0.117932
    36  H    0.112118
    37  H    0.114802
    38  H    0.110853
    39  C    0.277226
    40  C   -0.200995
    41  C   -0.189482
    42  C   -0.089484
    43  H    0.115198
    44  C   -0.098071
    45  H    0.137697
    46  C   -0.117572
    47  H    0.109475
    48  H    0.113358
    49  H    0.109146
    50  O   -0.345410
    51  O   -0.368892
    52  O   -0.343183
    53  O   -0.371449
 Sum of Mulliken charges =  -0.00000

 Dipole moment (field-independent basis, Debye):
    X=              0.0370    Y=              1.4360    Z=              2.0799  Tot=              2.5278
 Quadrupole moment (field-independent basis, Debye-Ang):
   XX=           -185.5056   YY=           -168.6292   ZZ=           -194.6616
   XY=              0.5823   XZ=             -0.2417   YZ=             -4.7017

 Summary of Natural Population Analysis:

                                       Natural Population
                Natural  -----------------------------------------------
    Atom  No    Charge         Core      Valence    Rydberg      Total
 -----------------------------------------------------------------------
      P    1    1.34644      9.99845     3.57560    0.07951    13.65356
      P    2    1.34722      9.99846     3.57474    0.07958    13.65278
      C    3   -1.14383      1.99948     5.11309    0.03127     7.14383
      H    4    0.27327      0.00000     0.72444    0.00229     0.72673
      H    5    0.27029      0.00000     0.72805    0.00167     0.72971
      C    6    0.27783      1.99868     3.69969    0.02380     5.72217
      C    7   -0.24060      1.99903     4.22175    0.01982     6.24060
      C    8   -0.26259      1.99901     4.24346    0.02012     6.26259
      C    9   -0.18989      1.99920     4.17151    0.01918     6.18989
      H   10    0.21899      0.00000     0.77952    0.00149     0.78101
      C   11   -0.18638      1.99921     4.16807    0.01910     6.18638
      H   12    0.22693      0.00000     0.77127    0.00180     0.77307
      C   13   -0.22358      1.99919     4.20484    0.01955     6.22358
      H   14    0.20945      0.00000     0.78934    0.00121     0.79055
      H   15    0.21049      0.00000     0.78823    0.00128     0.78951
      H   16    0.20966      0.00000     0.78914    0.00120     0.79034
      C   17    0.26256      1.99869     3.71333    0.02542     5.73744
      C   18   -0.24521      1.99904     4.22670    0.01947     6.24521
      C   19   -0.26543      1.99901     4.24741    0.01901     6.26543
      C   20   -0.18868      1.99920     4.17046    0.01901     6.18868
      H   21    0.22266      0.00000     0.77597    0.00136     0.77734
      C   22   -0.18601      1.99921     4.16801    0.01880     6.18601
      H   23    0.23062      0.00000     0.76755    0.00183     0.76938
      C   24   -0.22300      1.99919     4.20452    0.01929     6.22300
      H   25    0.21039      0.00000     0.78842    0.00119     0.78961
      H   26    0.21073      0.00000     0.78802    0.00125     0.78927
      H   27    0.21047      0.00000     0.78840    0.00113     0.78953
      C   28    0.26289      1.99869     3.71306    0.02537     5.73711
      C   29   -0.24452      1.99904     4.22596    0.01952     6.24452
      C   30   -0.26741      1.99901     4.24946    0.01893     6.26741
      C   31   -0.18866      1.99920     4.17045    0.01900     6.18866
      H   32    0.22291      0.00000     0.77573    0.00136     0.77709
      C   33   -0.18571      1.99921     4.16771    0.01879     6.18571
      H   34    0.23101      0.00000     0.76714    0.00185     0.76899
      C   35   -0.22311      1.99919     4.20464    0.01928     6.22311
      H   36    0.21037      0.00000     0.78845    0.00118     0.78963
      H   37    0.21075      0.00000     0.78800    0.00125     0.78925
      H   38    0.21046      0.00000     0.78841    0.00113     0.78954
      C   39    0.27757      1.99869     3.69990    0.02385     5.72243
      C   40   -0.24061      1.99903     4.22178    0.01980     6.24061
      C   41   -0.26085      1.99901     4.24178    0.02007     6.26085
      C   42   -0.18973      1.99920     4.17133    0.01919     6.18973
      H   43    0.21911      0.00000     0.77939    0.00150     0.78089
      C   44   -0.18654      1.99921     4.16828    0.01904     6.18654
      H   45    0.22624      0.00000     0.77195    0.00181     0.77376
      C   46   -0.22333      1.99919     4.20461    0.01954     6.22333
      H   47    0.20956      0.00000     0.78923    0.00121     0.79044
      H   48    0.21034      0.00000     0.78838    0.00128     0.78966
      H   49    0.20967      0.00000     0.78913    0.00120     0.79033
      O   50   -0.76116      1.99979     6.73771    0.02366     8.76116
      O   51   -0.77490      1.99977     6.75016    0.02497     8.77490
      O   52   -0.76094      1.99979     6.73757    0.02358     8.76094
      O   53   -0.77621      1.99977     6.75151    0.02494     8.77621
 =======================================================================
   * Total *   -0.00000     77.97282   155.22325    0.80393   234.00000

 Normal termination of Gaussian 16 at Fri Jan 24 01:23:55 2025.
