 Gaussian 16, Revision B.01,
 Gaussian 16:  ES64L-G16RevB.01 20-Dec-2017

 --------------------------------------------
 # nmr=giao b3lyp/def2TZVP pop=nbo scfcyc=200
 --------------------------------------------

 --------------
 MS-19 SPE NoRh
 --------------
 Symbolic Z-matrix:
 Charge =  0 Multiplicity = 1

                         Standard orientation:
 ---------------------------------------------------------------------
 Center     Atomic      Atomic             Coordinates (Angstroms)
 Number     Number       Type             X           Y           Z
 ---------------------------------------------------------------------
      1         15           0        1.444927   -0.202500   -1.095507
      2         15           0       -1.377984   -0.102981   -1.162157
      3          6           0        0.000187   -0.596065    0.064933
      4          6           0        2.734957   -1.479529   -0.781717
      5          6           0        3.887233   -1.444200   -1.577933
      6          6           0        4.882948   -2.398961   -1.417370
      7          6           0        4.739813   -3.403464   -0.463424
      8          6           0        3.601401   -3.442972    0.332217
      9          6           0        2.600673   -2.486875    0.174983
     10          6           0        2.255236    1.393428   -0.678333
     11          6           0        1.904086    2.537794   -1.399429
     12          6           0        2.511402    3.757150   -1.117272
     13          6           0        3.482737    3.836114   -0.124769
     14          6           0        3.843550    2.695973    0.588154
     15          6           0        3.233260    1.478527    0.316072
     16          6           0       -2.689950   -1.371804   -0.928382
     17          6           0       -2.616019   -2.550339   -1.678341
     18          6           0       -3.547302   -3.564801   -1.484948
     19          6           0       -4.562216   -3.407197   -0.547598
     20          6           0       -4.640690   -2.237603    0.203013
     21          6           0       -3.708348   -1.223324    0.019097
     22          6           0       -2.144403    1.513246   -0.740363
     23          6           0       -1.482914    2.491799    0.006906
     24          6           0       -2.069707    3.741139    0.187709
     25          6           0       -3.306312    4.030066   -0.376865
     26          6           0       -3.964439    3.062023   -1.129899
     27          6           0       -3.387792    1.811314   -1.315818
     28          1           0       -0.077126   -1.683408   -0.035898
     29          1           0        4.021727   -0.659342   -2.312541
     30          1           0        5.770882   -2.356850   -2.034634
     31          1           0        5.515878   -4.147860   -0.339883
     32          1           0        3.487563   -4.215659    1.081631
     33          1           0        1.734234   -2.535730    0.820415
     34          1           0        1.156933    2.471549   -2.179889
     35          1           0        2.234156    4.639774   -1.679388
     36          1           0        3.963513    4.782461    0.088724
     37          1           0        4.603062    2.755158    1.357919
     38          1           0        3.522686    0.599587    0.875527
     39          1           0       -1.826703   -2.674091   -2.410583
     40          1           0       -3.483486   -4.473856   -2.070227
     41          1           0       -5.292616   -4.193548   -0.401586
     42          1           0       -5.427360   -2.114784    0.936312
     43          1           0       -3.776475   -0.321551    0.612525
     44          1           0       -0.524505    2.288070    0.463789
     45          1           0       -1.553311    4.490140    0.776174
     46          1           0       -3.757567    5.003141   -0.231620
     47          1           0       -4.929021    3.277076   -1.572686
     48          1           0       -3.917340    1.067034   -1.897447
     49          6           0       -0.024295   -0.260521    1.521810
     50          6           0        0.391413    0.802070    3.492745
     51          1           0        0.156480    1.811525    3.832903
     52          1           0        1.386615    0.557671    3.878372
     53          6           0       -0.660826   -0.210697    3.992346
     54          1           0       -1.636746    0.249029    4.141701
     55          1           0       -0.356231   -0.709057    4.910022
     56          7           0        0.472295    0.783120    2.033978
     57         16           0       -0.805472   -1.452493    2.637022
 ---------------------------------------------------------------------

 SCF Done:  E(RB3LYP) =  -2218.14003002     A.U. after   16 cycles

      1  P    Isotropic =   210.6444   Anisotropy =   119.1243

      2  P    Isotropic =   219.7334   Anisotropy =    81.0694

      3  C    Isotropic =   129.1767   Anisotropy =    14.9342

      4  C    Isotropic =    32.3664   Anisotropy =   195.9307

      5  C    Isotropic =    47.2738   Anisotropy =   185.8012

      6  C    Isotropic =    49.5551   Anisotropy =   184.3085

      7  C    Isotropic =    52.5643   Anisotropy =   181.9384

      8  C    Isotropic =    49.9440   Anisotropy =   183.1219

      9  C    Isotropic =    48.8738   Anisotropy =   181.3418

     10  C    Isotropic =    35.8935   Anisotropy =   199.1058

     11  C    Isotropic =    39.8546   Anisotropy =   186.2229

     12  C    Isotropic =    51.3772   Anisotropy =   182.1371

     13  C    Isotropic =    48.8647   Anisotropy =   188.0889

     14  C    Isotropic =    50.8285   Anisotropy =   181.6359

     15  C    Isotropic =    37.7634   Anisotropy =   194.6709

     16  C    Isotropic =    32.2589   Anisotropy =   205.9391

     17  C    Isotropic =    42.7812   Anisotropy =   181.1580

     18  C    Isotropic =    49.6361   Anisotropy =   183.9098

     19  C    Isotropic =    48.6828   Anisotropy =   188.4499

     20  C    Isotropic =    49.6400   Anisotropy =   183.8195

     21  C    Isotropic =    41.6944   Anisotropy =   191.9043

     22  C    Isotropic =    37.0566   Anisotropy =   183.3274

     23  C    Isotropic =    45.7716   Anisotropy =   197.1732

     24  C    Isotropic =    50.6130   Anisotropy =   183.9947

     25  C    Isotropic =    52.8777   Anisotropy =   181.3421

     26  C    Isotropic =    50.6956   Anisotropy =   182.9739

     27  C    Isotropic =    48.2962   Anisotropy =   184.2823

     28  H    Isotropic =    28.4981   Anisotropy =     2.9334

     29  H    Isotropic =    24.5419   Anisotropy =    11.4082

     30  H    Isotropic =    24.4197   Anisotropy =     5.3609

     31  H    Isotropic =    24.5440   Anisotropy =     3.9851

     32  H    Isotropic =    24.3987   Anisotropy =     6.9285

     33  H    Isotropic =    24.1935   Anisotropy =    10.6994

     34  H    Isotropic =    23.8108   Anisotropy =     8.0677

     35  H    Isotropic =    24.3908   Anisotropy =     5.3962

     36  H    Isotropic =    24.3309   Anisotropy =     3.9289

     37  H    Isotropic =    24.5312   Anisotropy =     6.2285

     38  H    Isotropic =    24.4971   Anisotropy =    11.1196

     39  H    Isotropic =    23.7331   Anisotropy =     9.0640

     40  H    Isotropic =    24.1977   Anisotropy =     5.4220

     41  H    Isotropic =    24.2656   Anisotropy =     4.0981

     42  H    Isotropic =    24.3833   Anisotropy =     6.4458

     43  H    Isotropic =    24.0239   Anisotropy =    11.0563

     44  H    Isotropic =    24.1617   Anisotropy =     7.4172

     45  H    Isotropic =    24.6697   Anisotropy =     7.6202

     46  H    Isotropic =    24.5769   Anisotropy =     4.3227

     47  H    Isotropic =    24.4408   Anisotropy =     5.3494

     48  H    Isotropic =    24.4738   Anisotropy =    11.5149

     49  C    Isotropic =     8.3734   Anisotropy =    87.7472

     50  C    Isotropic =   113.2885   Anisotropy =    72.6966

     51  H    Isotropic =    27.5530   Anisotropy =     5.7004

     52  H    Isotropic =    27.9701   Anisotropy =     6.8730

     53  C    Isotropic =   140.8267   Anisotropy =    45.0936

     54  H    Isotropic =    28.9193   Anisotropy =     9.8199

     55  H    Isotropic =    28.8513   Anisotropy =    10.2599

     56  N    Isotropic =   -81.6370   Anisotropy =   374.0693

     57  S    Isotropic =   261.0695   Anisotropy =   607.7656

 The electronic state is 1-A.
 Alpha  occ. eigenvalues --  -88.86417 -77.05830 -77.05200 -14.30992 -10.24843
 Alpha  occ. eigenvalues --  -10.21253 -10.21192 -10.20898 -10.18580 -10.18527
 Alpha  occ. eigenvalues --  -10.18365 -10.18197 -10.18152 -10.18107 -10.17974
 Alpha  occ. eigenvalues --  -10.17945 -10.17836 -10.17687 -10.17654 -10.17647
 Alpha  occ. eigenvalues --  -10.17614 -10.17589 -10.17556 -10.17546 -10.17462
 Alpha  occ. eigenvalues --  -10.17441 -10.17435 -10.17400 -10.17337 -10.17279
 Alpha  occ. eigenvalues --  -10.17213 -10.17026  -7.94072  -6.54334  -6.53735
 Alpha  occ. eigenvalues --   -5.90382  -5.90044  -5.89529  -4.70512  -4.70424
 Alpha  occ. eigenvalues --   -4.69975  -4.69912  -4.69829  -4.69371  -0.95017
 Alpha  occ. eigenvalues --   -0.86355  -0.86041  -0.85587  -0.85541  -0.79553
 Alpha  occ. eigenvalues --   -0.78306  -0.76443  -0.75789  -0.75325  -0.74906
 Alpha  occ. eigenvalues --   -0.74851  -0.74656  -0.74499  -0.74352  -0.71130
 Alpha  occ. eigenvalues --   -0.64163  -0.63048  -0.61955  -0.61189  -0.60731
 Alpha  occ. eigenvalues --   -0.60681  -0.60457  -0.60000  -0.59849  -0.57106
 Alpha  occ. eigenvalues --   -0.56200  -0.53013  -0.52292  -0.51966  -0.50069
 Alpha  occ. eigenvalues --   -0.49578  -0.48865  -0.47452  -0.46049  -0.45976
 Alpha  occ. eigenvalues --   -0.45715  -0.45552  -0.45421  -0.45209  -0.44954
 Alpha  occ. eigenvalues --   -0.44707  -0.43193  -0.42870  -0.42647  -0.42373
 Alpha  occ. eigenvalues --   -0.42265  -0.42082  -0.40809  -0.40293  -0.39925
 Alpha  occ. eigenvalues --   -0.39052  -0.38737  -0.37693  -0.37496  -0.37224
 Alpha  occ. eigenvalues --   -0.37032  -0.35963  -0.35262  -0.35180  -0.34915
 Alpha  occ. eigenvalues --   -0.34706  -0.34515  -0.34163  -0.32611  -0.32167
 Alpha  occ. eigenvalues --   -0.30261  -0.28171  -0.27561  -0.27002  -0.26571
 Alpha  occ. eigenvalues --   -0.26346  -0.25989  -0.25965  -0.25380  -0.25264
 Alpha  occ. eigenvalues --   -0.23481  -0.21943  -0.18814
 Alpha virt. eigenvalues --   -0.03841  -0.03301  -0.02619  -0.02216  -0.02074
 Alpha virt. eigenvalues --   -0.01823  -0.01673  -0.00707  -0.00507  -0.00310
 Alpha virt. eigenvalues --    0.02647   0.03206   0.04757   0.04967   0.05000

 Mulliken charges:
               1
     1  P    0.125152
     2  P    0.158129
     3  C   -0.168841
     4  C    0.071009
     5  C   -0.166598
     6  C   -0.111805
     7  C   -0.100444
     8  C   -0.151181
     9  C   -0.160124
    10  C    0.060981
    11  C   -0.171593
    12  C   -0.112912
    13  C   -0.093840
    14  C   -0.123652
    15  C   -0.134330
    16  C    0.041247
    17  C   -0.189787
    18  C   -0.099166
    19  C   -0.100641
    20  C   -0.104249
    21  C   -0.168456
    22  C    0.064373
    23  C   -0.183776
    24  C   -0.142636
    25  C   -0.110241
    26  C   -0.105704
    27  C   -0.212126
    28  H    0.127749
    29  H    0.113347
    30  H    0.108362
    31  H    0.107366
    32  H    0.106563
    33  H    0.122420
    34  H    0.122972
    35  H    0.108930
    36  H    0.108181
    37  H    0.104049
    38  H    0.128076
    39  H    0.120692
    40  H    0.111156
    41  H    0.111158
    42  H    0.107740
    43  H    0.131634
    44  H    0.194768
    45  H    0.106594
    46  H    0.105682
    47  H    0.107780
    48  H    0.124944
    49  C    0.084225
    50  C   -0.085758
    51  H    0.112790
    52  H    0.096891
    53  C   -0.183569
    54  H    0.114695
    55  H    0.121413
    56  N   -0.253542
    57  S   -0.096097
 Sum of Mulliken charges =  -0.00000

 Dipole moment (field-independent basis, Debye):
    X=             -0.4359    Y=              0.1283    Z=              3.0073  Tot=              3.0414
 Quadrupole moment (field-independent basis, Debye-Ang):
   XX=           -196.5622   YY=           -196.5781   ZZ=           -202.2269
   XY=              1.4290   XZ=              0.5289   YZ=              2.5318

 Summary of Natural Population Analysis:

                                       Natural Population
                Natural  -----------------------------------------------
    Atom  No    Charge         Core      Valence    Rydberg      Total
 -----------------------------------------------------------------------
      P    1    0.85490      9.99803     4.11492    0.03215    14.14510
      P    2    0.87615      9.99804     4.09408    0.03173    14.12385
      C    3   -0.82478      1.99920     4.78635    0.03923     6.82478
      C    4   -0.32444      1.99900     4.29415    0.03128     6.32444
      C    5   -0.19985      1.99909     4.18111    0.01965     6.19985
      C    6   -0.19661      1.99919     4.17885    0.01857     6.19661
      C    7   -0.21310      1.99919     4.19454    0.01938     6.21310
      C    8   -0.19656      1.99919     4.17862    0.01875     6.19656
      C    9   -0.21845      1.99908     4.19982    0.01956     6.21845
      C   10   -0.33337      1.99897     4.30165    0.03274     6.33337
      C   11   -0.18831      1.99909     4.16963    0.01959     6.18831
      C   12   -0.20828      1.99918     4.19046    0.01864     6.20828
      C   13   -0.19594      1.99919     4.17770    0.01905     6.19594
      C   14   -0.20712      1.99918     4.18922    0.01871     6.20712
      C   15   -0.17159      1.99907     4.15239    0.02012     6.17159
      C   16   -0.34365      1.99900     4.31213    0.03252     6.34365
      C   17   -0.19600      1.99910     4.17693    0.01997     6.19600
      C   18   -0.20506      1.99918     4.18650    0.01938     6.20506
      C   19   -0.19677      1.99919     4.17854    0.01904     6.19677
      C   20   -0.20271      1.99919     4.18460    0.01892     6.20271
      C   21   -0.18655      1.99908     4.16739    0.02008     6.18655
      C   22   -0.34097      1.99898     4.31114    0.03085     6.34097
      C   23   -0.21854      1.99908     4.19867    0.02079     6.21854
      C   24   -0.19742      1.99919     4.17908    0.01915     6.19742
      C   25   -0.21319      1.99919     4.19452    0.01948     6.21319
      C   26   -0.20059      1.99918     4.18279    0.01861     6.20059
      C   27   -0.20591      1.99909     4.18753    0.01929     6.20591
      H   28    0.26793      0.00000     0.72964    0.00243     0.73207
      H   29    0.21223      0.00000     0.78604    0.00173     0.78777
      H   30    0.20863      0.00000     0.79010    0.00126     0.79137
      H   31    0.20762      0.00000     0.79121    0.00117     0.79238
      H   32    0.20768      0.00000     0.79105    0.00128     0.79232
      H   33    0.20480      0.00000     0.79270    0.00250     0.79520
      H   34    0.21796      0.00000     0.78024    0.00179     0.78204
      H   35    0.20971      0.00000     0.78902    0.00127     0.79029
      H   36    0.20697      0.00000     0.79185    0.00118     0.79303
      H   37    0.20648      0.00000     0.79219    0.00133     0.79352
      H   38    0.21331      0.00000     0.78443    0.00226     0.78669
      H   39    0.21697      0.00000     0.78152    0.00151     0.78303
      H   40    0.21032      0.00000     0.78843    0.00125     0.78968
      H   41    0.20860      0.00000     0.79022    0.00117     0.79140
      H   42    0.20808      0.00000     0.79056    0.00136     0.79192
      H   43    0.21601      0.00000     0.78181    0.00217     0.78399
      H   44    0.23561      0.00000     0.76168    0.00271     0.76439
      H   45    0.20765      0.00000     0.79107    0.00129     0.79235
      H   46    0.20675      0.00000     0.79208    0.00117     0.79325
      H   47    0.20809      0.00000     0.79067    0.00125     0.79191
      H   48    0.21276      0.00000     0.78553    0.00170     0.78724
      C   49    0.12858      1.99909     3.83012    0.04222     5.87142
      C   50   -0.24195      1.99939     4.22482    0.01775     6.24195
      H   51    0.20698      0.00000     0.79151    0.00151     0.79302
      H   52    0.19436      0.00000     0.80335    0.00229     0.80564
      C   53   -0.51653      1.99937     4.49766    0.01951     6.51653
      H   54    0.20946      0.00000     0.78900    0.00154     0.79054
      H   55    0.22350      0.00000     0.77535    0.00115     0.77650
      N   56   -0.43063      1.99923     5.39650    0.03489     7.43063
      S   57    0.18676      9.99913     5.78962    0.02449    15.81324
 =======================================================================
   * Total *   -0.00000     87.97034   157.23330    0.79636   246.00000

 1\1\GINC-G4NODEC3\SP\RB3LYP\def2TZVP\C28H25N1P2S1\ROOT\24-Jan-2025\0\\
 # nmr=giao b3lyp/def2TZVP pop=nbo scfcyc=200\\MS-19 SPE NoRh\\0,1\P,0,
 -1.221,0.738,-0.154\P,0,1.316,-0.503,-0.072\C,0,0.558,1.149,-0.659\C,0
 ,-2.316,1.468,-1.443\C,0,-3.693,1.236,-1.329\C,0,-4.571,1.728,-2.286\C
 ,0,-4.086,2.454,-3.371\C,0,-2.722,2.691,-3.489\C,0,-1.838,2.2,-2.531\C
 ,0,-1.711,1.577,1.406\C,0,-1.644,0.864,2.606\C,0,-2.023,1.467,3.801\C,
 0,-2.485,2.779,3.801\C,0,-2.564,3.489,2.606\C,0,-2.178,2.894,1.412\C,0
 ,2.548,-0.94,-1.367\C,0,2.115,-1.676,-2.475\C,0,2.996,-1.97,-3.51\C,0,

 Normal termination of Gaussian 16 at Fri Jan 24 06:13:25 2025.
