 Gaussian 16, Revision B.01,
 Gaussian 16:  ES64L-G16RevB.01 20-Dec-2017

 --------------------------------------------
 # nmr=giao b3lyp/def2TZVP pop=nbo scfcyc=200
 --------------------------------------------

 --------------
 MS-17 SPE NoRh
 --------------
 Symbolic Z-matrix:
 Charge =  0 Multiplicity = 1

                         Standard orientation:
 ---------------------------------------------------------------------
 Center     Atomic      Atomic             Coordinates (Angstroms)
 Number     Number       Type             X           Y           Z
 ---------------------------------------------------------------------
      1          8           0        0.241239   -2.282285    2.380096
      2         15           0       -1.459906   -0.076404   -0.948399
      3         15           0        1.335641   -0.070894   -0.981701
      4          6           0       -2.769248   -1.353945   -0.718852
      5          6           0       -2.628800   -2.453135    0.131339
      6          1           0       -1.744950   -2.585394    0.743719
      7          6           0       -3.646277   -3.400429    0.219492
      8          1           0       -3.528772   -4.244772    0.887009
      9          6           0       -4.803753   -3.262907   -0.537239
     10          1           0       -5.590942   -4.002295   -0.464607
     11          6           0       -4.950542   -2.168181   -1.384288
     12          1           0       -5.851792   -2.051155   -1.972581
     13          6           0       -3.939555   -1.220630   -1.478170
     14          1           0       -4.075501   -0.365583   -2.130776
     15          6           0       -2.255387    1.488086   -0.384156
     16          6           0       -3.191487    1.493094    0.658234
     17          1           0       -3.492445    0.565350    1.126607
     18          6           0       -3.763811    2.688477    1.077761
     19          1           0       -4.489584    2.682594    1.881425
     20          6           0       -3.414676    3.887191    0.461385
     21          1           0       -3.867590    4.815021    0.786007
     22          6           0       -2.494581    3.888480   -0.581444
     23          1           0       -2.231637    4.816462   -1.072727
     24          6           0       -1.919861    2.694459   -1.005021
     25          1           0       -1.215581    2.694051   -1.825990
     26          6           0       -0.049445   -0.491505    0.234559
     27          1           0       -0.051840   -1.583672    0.257352
     28          6           0       -0.052043    0.007541    1.676540
     29          1           0        0.593305    0.878017    1.803097
     30          1           0       -1.055468    0.344715    1.956216
     31          6           0        0.326080   -1.097608    2.668833
     32          6           0        2.688374   -1.312365   -0.806751
     33          6           0        2.545316   -2.511247   -0.107001
     34          1           0        1.645141   -2.734708    0.449640
     35          6           0        3.589222   -3.434380   -0.084261
     36          1           0        3.469817   -4.355054    0.472199
     37          6           0        4.773186   -3.174889   -0.762095
     38          1           0        5.580973   -3.895639   -0.740871
     39          6           0        4.922329   -1.980287   -1.462646
     40          1           0        5.844612   -1.768643   -1.987956
     41          6           0        3.886701   -1.055664   -1.487888
     42          1           0        4.023504   -0.124426   -2.026053
     43          6           0        2.116773    1.511611   -0.455250
     44          6           0        2.968365    1.562103    0.655350
     45          1           0        3.201073    0.658483    1.206646
     46          6           0        3.546423    2.765574    1.040295
     47          1           0        4.208976    2.793944    1.896762
     48          6           0        3.287525    3.928149    0.319614
     49          1           0        3.745171    4.863611    0.617713
     50          6           0        2.452081    3.884362   -0.791521
     51          1           0        2.261410    4.784186   -1.362676
     52          6           0        1.871238    2.681588   -1.178867
     53          1           0        1.233413    2.644012   -2.052935
     54          7           0        0.725902   -0.670187    3.888290
     55          1           0        0.764863    0.304249    4.132979
     56          1           0        0.911724   -1.355548    4.604778
 ---------------------------------------------------------------------

 SCF Done:  E(RB3LYP) =  -1857.09305500     A.U. after   14 cycles

      1  O    Isotropic =   -70.7431   Anisotropy =   603.7897

      2  P    Isotropic =   223.7221   Anisotropy =   106.3670

      3  P    Isotropic =   218.8928   Anisotropy =   106.2395

      4  C    Isotropic =    33.3419   Anisotropy =   193.3382

      5  C    Isotropic =    47.8710   Anisotropy =   188.9473

      6  H    Isotropic =    23.1188   Anisotropy =    10.9326

      7  C    Isotropic =    49.4441   Anisotropy =   183.9345

      8  H    Isotropic =    24.2076   Anisotropy =     6.8483

      9  C    Isotropic =    52.5470   Anisotropy =   180.8406

     10  H    Isotropic =    24.5336   Anisotropy =     4.2048

     11  C    Isotropic =    49.9644   Anisotropy =   183.5189

     12  H    Isotropic =    24.4703   Anisotropy =     5.5597

     13  C    Isotropic =    47.6584   Anisotropy =   182.9247

     14  H    Isotropic =    24.6391   Anisotropy =    11.5252

     15  C    Isotropic =    34.9720   Anisotropy =   205.0422

     16  C    Isotropic =    40.1557   Anisotropy =   190.0424

     17  H    Isotropic =    24.6746   Anisotropy =    10.9130

     18  C    Isotropic =    49.6002   Anisotropy =   183.7565

     19  H    Isotropic =    24.5818   Anisotropy =     6.3624

     20  C    Isotropic =    49.4940   Anisotropy =   187.6775

     21  H    Isotropic =    24.4861   Anisotropy =     4.2865

     22  C    Isotropic =    50.6469   Anisotropy =   183.1618

     23  H    Isotropic =    24.3708   Anisotropy =     5.9569

     24  C    Isotropic =    40.4880   Anisotropy =   182.6869

     25  H    Isotropic =    23.5134   Anisotropy =     8.5186

     26  C    Isotropic =   152.9160   Anisotropy =    15.3954

     27  H    Isotropic =    27.1305   Anisotropy =     8.2392

     28  C    Isotropic =   148.4363   Anisotropy =    38.6445

     29  H    Isotropic =    30.1346   Anisotropy =     5.7595

     30  H    Isotropic =    29.5638   Anisotropy =     7.4601

     31  C    Isotropic =     5.7546   Anisotropy =   130.7249

     32  C    Isotropic =    32.6154   Anisotropy =   192.4118

     33  C    Isotropic =    48.1291   Anisotropy =   189.3211

     34  H    Isotropic =    23.3120   Anisotropy =    10.3727

     35  C    Isotropic =    49.9023   Anisotropy =   183.1563

     36  H    Isotropic =    24.3289   Anisotropy =     6.8374

     37  C    Isotropic =    53.2708   Anisotropy =   179.4404

     38  H    Isotropic =    24.6394   Anisotropy =     4.1528

     39  C    Isotropic =    50.3001   Anisotropy =   182.4177

     40  H    Isotropic =    24.5861   Anisotropy =     5.7813

     41  C    Isotropic =    48.9124   Anisotropy =   182.5142

     42  H    Isotropic =    24.8636   Anisotropy =    12.1775

     43  C    Isotropic =    36.3165   Anisotropy =   204.0443

     44  C    Isotropic =    38.1073   Anisotropy =   188.5211

     45  H    Isotropic =    24.4937   Anisotropy =    10.0662

     46  C    Isotropic =    49.7903   Anisotropy =   183.4682

     47  H    Isotropic =    24.5003   Anisotropy =     6.3291

     48  C    Isotropic =    48.9247   Anisotropy =   188.7955

     49  H    Isotropic =    24.3760   Anisotropy =     4.2044

     50  C    Isotropic =    50.2616   Anisotropy =   183.5307

     51  H    Isotropic =    24.2057   Anisotropy =     5.5949

     52  C    Isotropic =    38.9136   Anisotropy =   182.6771

     53  H    Isotropic =    23.3629   Anisotropy =     8.5007

     54  N    Isotropic =   152.8013   Anisotropy =   137.0688

     55  H    Isotropic =    27.4279   Anisotropy =     7.9926

     56  H    Isotropic =    27.2900   Anisotropy =    12.9112

 The electronic state is 1-A.
 Alpha  occ. eigenvalues --  -77.04669 -77.04639 -19.10479 -14.35337 -10.28855
 Alpha  occ. eigenvalues --  -10.19422 -10.19371 -10.18771 -10.18638 -10.18577
 Alpha  occ. eigenvalues --  -10.18505 -10.18442 -10.18366 -10.18345 -10.18313
 Alpha  occ. eigenvalues --  -10.18278 -10.18183 -10.18159 -10.18103 -10.17928
 Alpha  occ. eigenvalues --  -10.17826 -10.17228 -10.17150 -10.17036 -10.17035
 Alpha  occ. eigenvalues --  -10.16959 -10.16957 -10.16926 -10.16806 -10.16715
 Alpha  occ. eigenvalues --  -10.16629  -6.53228  -6.53200  -4.69381  -4.69351
 Alpha  occ. eigenvalues --   -4.69345  -4.69319  -4.68863  -4.68837  -1.05196
 Alpha  occ. eigenvalues --   -0.92522  -0.86689  -0.86440  -0.85317  -0.85117
 Alpha  occ. eigenvalues --   -0.80110  -0.76508  -0.76087  -0.75736  -0.75486
 Alpha  occ. eigenvalues --   -0.74449  -0.74347  -0.74296  -0.74160  -0.69371
 Alpha  occ. eigenvalues --   -0.63981  -0.62576  -0.61547  -0.61289  -0.60480
 Alpha  occ. eigenvalues --   -0.60207  -0.59952  -0.59874  -0.59286  -0.56148
 Alpha  occ. eigenvalues --   -0.55856  -0.54771  -0.52112  -0.51929  -0.51089
 Alpha  occ. eigenvalues --   -0.49786  -0.48762  -0.47149  -0.46271  -0.46122
 Alpha  occ. eigenvalues --   -0.46033  -0.45678  -0.44951  -0.44819  -0.44426
 Alpha  occ. eigenvalues --   -0.44262  -0.43952  -0.43352  -0.42944  -0.41914
 Alpha  occ. eigenvalues --   -0.41859  -0.41599  -0.40783  -0.40706  -0.39753
 Alpha  occ. eigenvalues --   -0.38306  -0.38117  -0.37645  -0.37193  -0.36839
 Alpha  occ. eigenvalues --   -0.36737  -0.35644  -0.35250  -0.34884  -0.34296
 Alpha  occ. eigenvalues --   -0.34027  -0.32536  -0.32144  -0.30922  -0.29212
 Alpha  occ. eigenvalues --   -0.27800  -0.27255  -0.26919  -0.26778  -0.26777
 Alpha  occ. eigenvalues --   -0.26200  -0.25989  -0.25345  -0.25111  -0.21816
 Alpha  occ. eigenvalues --   -0.18332
 Alpha virt. eigenvalues --   -0.03904  -0.03191  -0.02910  -0.02186  -0.01977
 Alpha virt. eigenvalues --   -0.01220  -0.00892  -0.00515   0.00578   0.01007
 Alpha virt. eigenvalues --    0.02830   0.03930   0.04927   0.05331   0.05675

 Mulliken charges:
               1
     1  O   -0.387077
     2  P    0.118199
     3  P    0.130608
     4  C    0.044141
     5  C   -0.163733
     6  H    0.173389
     7  C   -0.159707
     8  H    0.107817
     9  C   -0.098544
    10  H    0.105608
    11  C   -0.114637
    12  H    0.106229
    13  C   -0.162596
    14  H    0.108380
    15  C    0.009557
    16  C   -0.168993
    17  H    0.150932
    18  C   -0.131123
    19  H    0.109178
    20  C   -0.089897
    21  H    0.110533
    22  C   -0.128424
    23  H    0.106904
    24  C   -0.126823
    25  H    0.116448
    26  C   -0.175848
    27  H    0.121757
    28  C   -0.269279
    29  H    0.136245
    30  H    0.139381
    31  C    0.321263
    32  C    0.065376
    33  C   -0.170499
    34  H    0.159671
    35  C   -0.154209
    36  H    0.107228
    37  C   -0.104562
    38  H    0.103927
    39  C   -0.117985
    40  H    0.104822
    41  C   -0.171745
    42  H    0.114731
    43  C    0.001684
    44  C   -0.174153
    45  H    0.141152
    46  C   -0.115944
    47  H    0.109223
    48  C   -0.088606
    49  H    0.111721
    50  C   -0.121302
    51  H    0.109332
    52  C   -0.150050
    53  H    0.133500
    54  N   -0.406735
    55  H    0.237666
    56  H    0.235873
 Sum of Mulliken charges =  -0.00000

 Dipole moment (field-independent basis, Debye):
    X=              0.3655    Y=              3.7900    Z=              4.3774  Tot=              5.8016
 Quadrupole moment (field-independent basis, Debye-Ang):
   XX=           -187.3644   YY=           -187.4330   ZZ=           -184.5910
   XY=              1.8065   XZ=              2.9538   YZ=             -1.0910

 Summary of Natural Population Analysis:

                                       Natural Population
                Natural  -----------------------------------------------
    Atom  No    Charge         Core      Valence    Rydberg      Total
 -----------------------------------------------------------------------
      O    1   -0.62454      1.99975     6.59954    0.02525     8.62454
      P    2    0.84131      9.99805     4.12953    0.03111    14.15869
      P    3    0.83771      9.99805     4.13299    0.03125    14.16229
      C    4   -0.32453      1.99901     4.29435    0.03118     6.32453
      C    5   -0.22247      1.99908     4.20369    0.01970     6.22247
      H    6    0.22275      0.00000     0.77543    0.00183     0.77725
      C    7   -0.19526      1.99919     4.17729    0.01879     6.19526
      H    8    0.20830      0.00000     0.79042    0.00128     0.79170
      C    9   -0.21363      1.99919     4.19502    0.01942     6.21363
      H   10    0.20673      0.00000     0.79209    0.00118     0.79327
      C   11   -0.19885      1.99918     4.18100    0.01866     6.19885
      H   12    0.20752      0.00000     0.79121    0.00128     0.79248
      C   13   -0.20269      1.99909     4.18383    0.01978     6.20269
      H   14    0.20998      0.00000     0.78823    0.00179     0.79002
      C   15   -0.33194      1.99899     4.30061    0.03234     6.33194
      C   16   -0.20174      1.99909     4.18271    0.01994     6.20174
      H   17    0.21494      0.00000     0.78279    0.00227     0.78506
      C   18   -0.20543      1.99919     4.18733    0.01892     6.20543
      H   19    0.20820      0.00000     0.79047    0.00133     0.79180
      C   20   -0.19905      1.99919     4.18075    0.01911     6.19905
      H   21    0.20849      0.00000     0.79033    0.00117     0.79151
      C   22   -0.20372      1.99918     4.18591    0.01863     6.20372
      H   23    0.20911      0.00000     0.78962    0.00127     0.79089
      C   24   -0.19029      1.99909     4.17100    0.02019     6.19029
      H   25    0.21269      0.00000     0.78537    0.00193     0.78731
      C   26   -0.78377      1.99938     4.74849    0.03590     6.78377
      H   27    0.28286      0.00000     0.71480    0.00234     0.71714
      C   28   -0.51602      1.99923     4.49809    0.01870     6.51602
      H   29    0.22537      0.00000     0.77190    0.00273     0.77463
      H   30    0.23741      0.00000     0.75978    0.00281     0.76259
      C   31    0.66246      1.99946     3.30531    0.03277     5.33754
      C   32   -0.32368      1.99900     4.29363    0.03105     6.32368
      C   33   -0.21990      1.99908     4.20111    0.01971     6.21990
      H   34    0.22505      0.00000     0.77319    0.00176     0.77495
      C   35   -0.19440      1.99919     4.17650    0.01871     6.19440
      H   36    0.20791      0.00000     0.79082    0.00127     0.79209
      C   37   -0.21621      1.99919     4.19752    0.01950     6.21621
      H   38    0.20602      0.00000     0.79280    0.00118     0.79398
      C   39   -0.19898      1.99918     4.18113    0.01867     6.19898
      H   40    0.20678      0.00000     0.79194    0.00128     0.79322
      C   41   -0.20642      1.99909     4.18758    0.01975     6.20642
      H   42    0.20907      0.00000     0.78913    0.00180     0.79093
      C   43   -0.33443      1.99899     4.30264    0.03279     6.33443
      C   44   -0.19974      1.99908     4.18051    0.02015     6.19974
      H   45    0.21419      0.00000     0.78349    0.00233     0.78581
      C   46   -0.20807      1.99918     4.18993    0.01895     6.20807
      H   47    0.20797      0.00000     0.79068    0.00135     0.79203
      C   48   -0.19664      1.99919     4.17838    0.01908     6.19664
      H   49    0.20903      0.00000     0.78980    0.00117     0.79097
      C   50   -0.20478      1.99918     4.18693    0.01868     6.20478
      H   51    0.20980      0.00000     0.78894    0.00126     0.79020
      C   52   -0.18906      1.99909     4.16956    0.02041     6.18906
      H   53    0.21395      0.00000     0.78414    0.00190     0.78605
      N   54   -0.78889      1.99946     5.76989    0.01954     7.78889
      H   55    0.39080      0.00000     0.60775    0.00146     0.60920
      H   56    0.39876      0.00000     0.59890    0.00234     0.60124
 =======================================================================
   * Total *    0.00000     77.97230   153.27678    0.75092   232.00000

 Normal termination of Gaussian 16 at Fri Jan 24 05:51:36 2025.
