 Gaussian 16, Revision B.01,
 Gaussian 16:  ES64L-G16RevB.01 20-Dec-2017

 --------------------------------------------
 # nmr=giao b3lyp/def2TZVP pop=nbo scfcyc=200
 --------------------------------------------

 --------------
 MS-16 SPE NoRh
 --------------
 Symbolic Z-matrix:
 Charge =  0 Multiplicity = 1

                         Standard orientation:
 ---------------------------------------------------------------------
 Center     Atomic      Atomic             Coordinates (Angstroms)
 Number     Number       Type             X           Y           Z
 ---------------------------------------------------------------------
      1          8           0        0.073481   -2.257471    2.400621
      2         15           0       -1.422175   -0.063216   -0.965166
      3         15           0        1.372590   -0.082322   -0.981679
      4          6           0       -2.745163   -1.333085   -0.768073
      5          6           0       -2.605927   -2.472889    0.028567
      6          1           0       -1.718530   -2.638905    0.623562
      7          6           0       -3.631497   -3.414242    0.084460
      8          1           0       -3.514273   -4.289484    0.711421
      9          6           0       -4.794615   -3.232478   -0.652729
     10          1           0       -5.588851   -3.967340   -0.605082
     11          6           0       -4.939985   -2.098419   -1.447830
     12          1           0       -5.845713   -1.947026   -2.020371
     13          6           0       -3.921184   -1.156606   -1.508192
     14          1           0       -4.056152   -0.271835   -2.120275
     15          6           0       -2.217317    1.500925   -0.404066
     16          6           0       -3.150149    1.506616    0.640602
     17          1           0       -3.448653    0.578578    1.111976
     18          6           0       -3.722303    2.701065    1.061314
     19          1           0       -4.446185    2.695740    1.866472
     20          6           0       -3.375845    3.898862    0.442372
     21          1           0       -3.828767    4.827839    0.767724
     22          6           0       -2.458987    3.900508   -0.602185
     23          1           0       -2.196420    4.828039   -1.094588
     24          6           0       -1.883667    2.706589   -1.025847
     25          1           0       -1.179925    2.706631   -1.848483
     26          6           0       -0.021925   -0.482540    0.231322
     27          1           0       -0.029582   -1.575328    0.257313
     28          6           0       -0.017610    0.024516    1.670999
     29          1           0        0.773953    0.759239    1.842867
     30          1           0       -0.939868    0.570249    1.897791
     31          6           0        0.108750   -1.086114    2.713680
     32          6           0        0.278305   -0.643595    4.144150
     33          1           0        0.116909   -1.482409    4.818024
     34          1           0       -0.398691    0.176521    4.392892
     35          1           0        1.298106   -0.270695    4.285068
     36          6           0        2.706259   -1.339733   -0.779546
     37          6           0        2.544578   -2.521879   -0.055102
     38          1           0        1.634523   -2.725571    0.494278
     39          6           0        3.575290   -3.457177   -0.004272
     40          1           0        3.440704   -4.365593    0.569919
     41          6           0        4.767681   -3.227875   -0.680362
     42          1           0        5.565074   -3.958727   -0.638413
     43          6           0        4.934418   -2.052139   -1.406635
     44          1           0        5.863089   -1.863349   -1.931594
     45          6           0        3.911844   -1.114225   -1.459450
     46          1           0        4.062620   -0.197527   -2.016811
     47          6           0        2.169109    1.495588   -0.463138
     48          6           0        3.041492    1.541602    0.632219
     49          1           0        3.287237    0.635618    1.173242
     50          6           0        3.625193    2.743742    1.012848
     51          1           0        4.301418    2.768272    1.858234
     52          6           0        3.352420    3.909233    0.301616
     53          1           0        3.813447    4.843011    0.596970
     54          6           0        2.498169    3.869863   -0.794787
     55          1           0        2.296701    4.771737   -1.359212
     56          6           0        1.911575    2.667455   -1.177551
     57          1           0        1.260306    2.633750   -2.041540
 ---------------------------------------------------------------------

 SCF Done:  E(RB3LYP) =  -1841.02077180     A.U. after   14 cycles

      1  O    Isotropic =  -298.7408   Anisotropy =   965.7912

      2  P    Isotropic =   220.8799   Anisotropy =   105.8776

      3  P    Isotropic =   217.9508   Anisotropy =   106.2669

      4  C    Isotropic =    33.2405   Anisotropy =   193.3918

      5  C    Isotropic =    48.3999   Anisotropy =   187.7871

      6  H    Isotropic =    23.3755   Anisotropy =    10.8823

      7  C    Isotropic =    49.6944   Anisotropy =   183.5458

      8  H    Isotropic =    24.2416   Anisotropy =     6.7336

      9  C    Isotropic =    52.6682   Anisotropy =   180.4887

     10  H    Isotropic =    24.5538   Anisotropy =     4.1884

     11  C    Isotropic =    49.9116   Anisotropy =   183.6447

     12  H    Isotropic =    24.4999   Anisotropy =     5.6155

     13  C    Isotropic =    48.0861   Anisotropy =   182.8938

     14  H    Isotropic =    24.6924   Anisotropy =    11.7151

     15  C    Isotropic =    35.7009   Anisotropy =   204.3921

     16  C    Isotropic =    39.8612   Anisotropy =   189.4778

     17  H    Isotropic =    24.7016   Anisotropy =    10.7176

     18  C    Isotropic =    49.5273   Anisotropy =   183.9854

     19  H    Isotropic =    24.5480   Anisotropy =     6.2868

     20  C    Isotropic =    49.2531   Anisotropy =   188.0455

     21  H    Isotropic =    24.4378   Anisotropy =     4.2697

     22  C    Isotropic =    50.4107   Anisotropy =   183.4768

     23  H    Isotropic =    24.3310   Anisotropy =     5.9350

     24  C    Isotropic =    40.1258   Anisotropy =   182.7162

     25  H    Isotropic =    23.4976   Anisotropy =     8.4669

     26  C    Isotropic =   155.4887   Anisotropy =    12.4552

     27  H    Isotropic =    27.1532   Anisotropy =     8.8087

     28  C    Isotropic =   139.3292   Anisotropy =    53.8388

     29  H    Isotropic =    29.3794   Anisotropy =     5.8816

     30  H    Isotropic =    29.5562   Anisotropy =     6.7287

     31  C    Isotropic =   -33.2529   Anisotropy =   196.7286

     32  C    Isotropic =   153.9073   Anisotropy =    56.7386

     33  H    Isotropic =    29.8864   Anisotropy =     8.2184

     34  H    Isotropic =    29.8114   Anisotropy =     4.5714

     35  H    Isotropic =    29.9352   Anisotropy =     5.0123

     36  C    Isotropic =    32.4814   Anisotropy =   193.3527

     37  C    Isotropic =    48.8310   Anisotropy =   187.0057

     38  H    Isotropic =    23.4890   Anisotropy =    10.6681

     39  C    Isotropic =    49.8369   Anisotropy =   183.1250

     40  H    Isotropic =    24.3059   Anisotropy =     6.7271

     41  C    Isotropic =    53.1243   Anisotropy =   179.7387

     42  H    Isotropic =    24.6224   Anisotropy =     4.1779

     43  C    Isotropic =    50.0895   Anisotropy =   183.0835

     44  H    Isotropic =    24.5562   Anisotropy =     5.7469

     45  C    Isotropic =    48.7828   Anisotropy =   182.8823

     46  H    Isotropic =    24.8408   Anisotropy =    12.1140

     47  C    Isotropic =    36.3756   Anisotropy =   203.7690

     48  C    Isotropic =    38.6216   Anisotropy =   188.7363

     49  H    Isotropic =    24.6177   Anisotropy =    10.2504

     50  C    Isotropic =    49.4112   Anisotropy =   184.2133

     51  H    Isotropic =    24.4833   Anisotropy =     6.2719

     52  C    Isotropic =    48.8504   Anisotropy =   189.1650

     53  H    Isotropic =    24.3767   Anisotropy =     4.2390

     54  C    Isotropic =    50.1895   Anisotropy =   183.7059

     55  H    Isotropic =    24.2079   Anisotropy =     5.6512

     56  C    Isotropic =    39.2421   Anisotropy =   182.6632

     57  H    Isotropic =    23.3792   Anisotropy =     8.5211

 The electronic state is 1-A.
 Alpha  occ. eigenvalues --  -77.04867 -77.04841 -19.13012 -10.27617 -10.19534
 Alpha  occ. eigenvalues --  -10.19282 -10.18882 -10.18782 -10.18687 -10.18607
 Alpha  occ. eigenvalues --  -10.18573 -10.18527 -10.18464 -10.18443 -10.18429
 Alpha  occ. eigenvalues --  -10.18392 -10.18355 -10.18300 -10.18252 -10.18138
 Alpha  occ. eigenvalues --  -10.18093 -10.17369 -10.17298 -10.17286 -10.17219
 Alpha  occ. eigenvalues --  -10.17210 -10.17128 -10.17122 -10.17094 -10.17014
 Alpha  occ. eigenvalues --  -10.16982  -6.53422  -6.53399  -4.69574  -4.69551
 Alpha  occ. eigenvalues --   -4.69540  -4.69518  -4.69058  -4.69036  -1.06004
 Alpha  occ. eigenvalues --   -0.86769  -0.86617  -0.85481  -0.85395  -0.80701
 Alpha  occ. eigenvalues --   -0.77234  -0.76651  -0.75811  -0.75645  -0.75220
 Alpha  occ. eigenvalues --   -0.74571  -0.74491  -0.74426  -0.74339  -0.68474
 Alpha  occ. eigenvalues --   -0.64141  -0.62177  -0.61614  -0.61427  -0.60405
 Alpha  occ. eigenvalues --   -0.60160  -0.60060  -0.59937  -0.56285  -0.55452
 Alpha  occ. eigenvalues --   -0.54371  -0.52253  -0.52168  -0.51182  -0.49987
 Alpha  occ. eigenvalues --   -0.48170  -0.47962  -0.46705  -0.46370  -0.46240
 Alpha  occ. eigenvalues --   -0.45913  -0.45834  -0.45232  -0.45037  -0.44607
 Alpha  occ. eigenvalues --   -0.44305  -0.43456  -0.43113  -0.42613  -0.42370
 Alpha  occ. eigenvalues --   -0.41996  -0.41892  -0.41417  -0.40890  -0.39802
 Alpha  occ. eigenvalues --   -0.38557  -0.38362  -0.38194  -0.37449  -0.37035
 Alpha  occ. eigenvalues --   -0.37007  -0.36741  -0.35755  -0.35385  -0.35063
 Alpha  occ. eigenvalues --   -0.34411  -0.34275  -0.32702  -0.32309  -0.30976
 Alpha  occ. eigenvalues --   -0.27837  -0.27210  -0.27058  -0.26945  -0.26680
 Alpha  occ. eigenvalues --   -0.26351  -0.26184  -0.25510  -0.25405  -0.21954
 Alpha  occ. eigenvalues --   -0.18493
 Alpha virt. eigenvalues --   -0.03999  -0.03522  -0.03319  -0.03041  -0.02367
 Alpha virt. eigenvalues --   -0.01971  -0.01309  -0.01085  -0.00705   0.01663
 Alpha virt. eigenvalues --    0.02497   0.04057   0.04689   0.05200   0.05635

 Mulliken charges:
               1
     1  O   -0.328423
     2  P    0.122804
     3  P    0.130933
     4  C    0.050394
     5  C   -0.161472
     6  H    0.162552
     7  C   -0.158034
     8  H    0.107896
     9  C   -0.099825
    10  H    0.106034
    11  C   -0.115387
    12  H    0.106902
    13  C   -0.164761
    14  H    0.110678
    15  C   -0.001542
    16  C   -0.169668
    17  H    0.148674
    18  C   -0.124457
    19  H    0.110027
    20  C   -0.087950
    21  H    0.111203
    22  C   -0.130385
    23  H    0.107678
    24  C   -0.122297
    25  H    0.117450
    26  C   -0.151116
    27  H    0.113194
    28  C   -0.276017
    29  H    0.141764
    30  H    0.140451
    31  C    0.269242
    32  C   -0.357503
    33  H    0.135585
    34  H    0.127821
    35  H    0.132035
    36  C    0.063540
    37  C   -0.169843
    38  H    0.153975
    39  C   -0.154436
    40  H    0.107962
    41  C   -0.103660
    42  H    0.105512
    43  C   -0.117197
    44  H    0.105912
    45  C   -0.169633
    46  H    0.115129
    47  C    0.006838
    48  C   -0.178660
    49  H    0.144397
    50  C   -0.117297
    51  H    0.109834
    52  C   -0.088653
    53  H    0.112027
    54  C   -0.122198
    55  H    0.109391
    56  C   -0.151054
    57  H    0.133636
 Sum of Mulliken charges =  -0.00000

 Dipole moment (field-independent basis, Debye):
    X=              0.1048    Y=              3.4053    Z=              3.2606  Tot=              4.7158
 Quadrupole moment (field-independent basis, Debye-Ang):
   XX=           -185.9512   YY=           -187.2692   ZZ=           -193.7657
   XY=              1.1008   XZ=              0.4897   YZ=             -1.6383

 Summary of Natural Population Analysis:

                                       Natural Population
                Natural  -----------------------------------------------
    Atom  No    Charge         Core      Valence    Rydberg      Total
 -----------------------------------------------------------------------
      O    1   -0.55328      1.99975     6.52793    0.02560     8.55328
      P    2    0.84171      9.99805     4.12904    0.03119    14.15829
      P    3    0.84072      9.99806     4.13000    0.03122    14.15928
      C    4   -0.32343      1.99900     4.29330    0.03112     6.32343
      C    5   -0.22160      1.99908     4.20293    0.01959     6.22160
      H    6    0.21898      0.00000     0.77916    0.00186     0.78102
      C    7   -0.19521      1.99919     4.17728    0.01874     6.19521
      H    8    0.20832      0.00000     0.79041    0.00127     0.79168
      C    9   -0.21407      1.99919     4.19544    0.01944     6.21407
      H   10    0.20708      0.00000     0.79174    0.00118     0.79292
      C   11   -0.19780      1.99918     4.17999    0.01863     6.19780
      H   12    0.20781      0.00000     0.79092    0.00127     0.79219
      C   13   -0.20386      1.99909     4.18502    0.01975     6.20386
      H   14    0.21019      0.00000     0.78804    0.00178     0.78981
      C   15   -0.33386      1.99899     4.30253    0.03233     6.33386
      C   16   -0.20223      1.99908     4.18319    0.01996     6.20223
      H   17    0.21473      0.00000     0.78302    0.00225     0.78527
      C   18   -0.20537      1.99918     4.18729    0.01889     6.20537
      H   19    0.20866      0.00000     0.79001    0.00133     0.79134
      C   20   -0.19773      1.99919     4.17943    0.01911     6.19773
      H   21    0.20904      0.00000     0.78979    0.00117     0.79096
      C   22   -0.20330      1.99918     4.18549    0.01863     6.20330
      H   23    0.20957      0.00000     0.78916    0.00127     0.79043
      C   24   -0.18940      1.99909     4.17009    0.02022     6.18940
      H   25    0.21281      0.00000     0.78526    0.00193     0.78719
      C   26   -0.78622      1.99938     4.75041    0.03643     6.78622
      H   27    0.27691      0.00000     0.71997    0.00312     0.72309
      C   28   -0.52895      1.99924     4.51189    0.01782     6.52895
      H   29    0.23727      0.00000     0.76008    0.00265     0.76273
      H   30    0.24138      0.00000     0.75587    0.00275     0.75862
      C   31    0.60199      1.99946     3.36914    0.02941     5.39801
      C   32   -0.69858      1.99937     4.68716    0.01206     6.69858
      H   33    0.23226      0.00000     0.76636    0.00138     0.76774
      H   34    0.22388      0.00000     0.77525    0.00088     0.77612
      H   35    0.23406      0.00000     0.76506    0.00088     0.76594
      C   36   -0.32360      1.99900     4.29349    0.03111     6.32360
      C   37   -0.22156      1.99908     4.20283    0.01965     6.22156
      H   38    0.21935      0.00000     0.77882    0.00183     0.78065
      C   39   -0.19424      1.99919     4.17635    0.01871     6.19424
      H   40    0.20824      0.00000     0.79049    0.00127     0.79176
      C   41   -0.21577      1.99919     4.19710    0.01948     6.21577
      H   42    0.20686      0.00000     0.79196    0.00118     0.79314
      C   43   -0.19780      1.99918     4.17995    0.01867     6.19780
      H   44    0.20742      0.00000     0.79131    0.00128     0.79258
      C   45   -0.20569      1.99909     4.18690    0.01970     6.20569
      H   46    0.20985      0.00000     0.78837    0.00177     0.79015
      C   47   -0.33459      1.99899     4.30308    0.03253     6.33459
      C   48   -0.20023      1.99909     4.18114    0.02001     6.20023
      H   49    0.21297      0.00000     0.78476    0.00227     0.78703
      C   50   -0.20608      1.99918     4.18801    0.01888     6.20608
      H   51    0.20872      0.00000     0.78995    0.00134     0.79128
      C   52   -0.19602      1.99919     4.17780    0.01903     6.19602
      H   53    0.20929      0.00000     0.78954    0.00117     0.79071
      C   54   -0.20399      1.99918     4.18617    0.01864     6.20399
      H   55    0.20991      0.00000     0.78883    0.00126     0.79009
      C   56   -0.18914      1.99909     4.16971    0.02034     6.18914
      H   57    0.21363      0.00000     0.78447    0.00190     0.78637
 =======================================================================
   * Total *    0.00000     77.97220   153.28866    0.73914   232.00000

 Normal termination of Gaussian 16 at Fri Jan 24 05:50:09 2025.
