 Gaussian 16, Revision B.01,
 Gaussian 16:  ES64L-G16RevB.01 20-Dec-2017

 --------------------------------------------
 # nmr=giao b3lyp/def2TZVP pop=nbo scfcyc=200
 --------------------------------------------

 --------------
 MS-12 SPE NoRh
 --------------
 Symbolic Z-matrix:
 Charge =  0 Multiplicity = 1

                         Standard orientation:
 ---------------------------------------------------------------------
 Center     Atomic      Atomic             Coordinates (Angstroms)
 Number     Number       Type             X           Y           Z
 ---------------------------------------------------------------------
      1         15           0        1.386168   -0.210774   -0.600767
      2         15           0       -1.418677   -0.211413   -0.628735
      3          6           0       -0.020732   -0.507139    0.621426
      4          6           0       -0.018064    0.079515    2.025675
      5          6           0        2.710538   -1.458204   -0.288023
      6          6           0        4.016864   -1.176117   -0.705541
      7          6           0        5.018959   -2.130829   -0.575116
      8          6           0        4.730492   -3.378580   -0.032879
      9          6           0        3.433916   -3.669985    0.375306
     10          6           0        2.426722   -2.719423    0.242091
     11          6           0        2.159027    1.411404   -0.195142
     12          6           0        1.943639    2.504779   -1.038988
     13          6           0        2.502101    3.744488   -0.739702
     14          6           0        3.279085    3.900078    0.401854
     15          6           0        3.499618    2.814775    1.246872
     16          6           0        2.945227    1.576233    0.952389
     17          6           0       -2.628459   -1.547761   -0.244229
     18          6           0       -2.595674   -2.725360   -0.995556
     19          6           0       -3.429633   -3.791418   -0.670120
     20          6           0       -4.300505   -3.689501    0.409154
     21          6           0       -4.333371   -2.520900    1.166485
     22          6           0       -3.502359   -1.454484    0.845541
     23          6           0       -2.297651    1.375145   -0.310357
     24          6           0       -1.611365    2.515292    0.120281
     25          6           0       -2.275375    3.729449    0.250295
     26          6           0       -3.626432    3.828005   -0.065024
     27          6           0       -4.311654    2.704449   -0.514757
     28          6           0       -3.653678    1.485314   -0.640318
     29          1           0       -0.068621   -1.597314    0.697528
     30          1           0        0.804542   -0.341527    2.608584
     31          1           0        0.088605    1.162391    2.031869
     32          1           0       -0.945741   -0.171895    2.543257
     33          1           0        4.262217   -0.205638   -1.118216
     34          1           0        6.026506   -1.895696   -0.896159
     35          1           0        5.512734   -4.119631    0.071463
     36          1           0        3.201712   -4.638980    0.799378
     37          1           0        1.425718   -2.980052    0.558994
     38          1           0        1.336974    2.383016   -1.926685
     39          1           0        2.333551    4.583851   -1.402422
     40          1           0        3.717295    4.862976    0.632984
     41          1           0        4.107232    2.932984    2.135253
     42          1           0        3.137731    0.737862    1.608927
     43          1           0       -1.912946   -2.811022   -1.831175
     44          1           0       -3.399714   -4.697777   -1.260878
     45          1           0       -4.952338   -4.516443    0.661159
     46          1           0       -5.009089   -2.439348    2.009029
     47          1           0       -3.545279   -0.550373    1.439749
     48          1           0       -0.556397    2.471430    0.350156
     49          1           0       -1.733380    4.600631    0.597725
     50          1           0       -4.142060    4.774320    0.037396
     51          1           0       -5.362489    2.772158   -0.768301
     52          1           0       -4.206544    0.621541   -0.986788
 ---------------------------------------------------------------------

 SCF Done:  E(RB3LYP) =  -1688.31813929     A.U. after   15 cycles

      1  P    Isotropic =   220.0869   Anisotropy =    90.0029

      2  P    Isotropic =   218.3237   Anisotropy =    98.1622

      3  C    Isotropic =   136.9219   Anisotropy =    22.7428

      4  C    Isotropic =   173.1756   Anisotropy =    12.0114

      5  C    Isotropic =    31.5963   Anisotropy =   196.9222

      6  C    Isotropic =    49.5206   Anisotropy =   182.4760

      7  C    Isotropic =    49.3452   Anisotropy =   184.0655

      8  C    Isotropic =    53.8188   Anisotropy =   178.8635

      9  C    Isotropic =    50.4352   Anisotropy =   182.1253

     10  C    Isotropic =    52.5560   Anisotropy =   183.2663

     11  C    Isotropic =    37.3722   Anisotropy =   202.0346

     12  C    Isotropic =    37.6971   Anisotropy =   186.5035

     13  C    Isotropic =    49.9995   Anisotropy =   184.5490

     14  C    Isotropic =    48.2348   Anisotropy =   190.4479

     15  C    Isotropic =    49.6584   Anisotropy =   183.9034

     16  C    Isotropic =    37.8022   Anisotropy =   189.8237

     17  C    Isotropic =    31.4560   Anisotropy =   210.5120

     18  C    Isotropic =    41.8591   Anisotropy =   180.2282

     19  C    Isotropic =    49.0303   Anisotropy =   184.5585

     20  C    Isotropic =    48.5682   Anisotropy =   188.3442

     21  C    Isotropic =    49.1815   Anisotropy =   184.0791

     22  C    Isotropic =    43.3154   Anisotropy =   186.2621

     23  C    Isotropic =    35.1681   Anisotropy =   189.8690

     24  C    Isotropic =    48.1597   Anisotropy =   182.0573

     25  C    Isotropic =    50.9744   Anisotropy =   182.5088

     26  C    Isotropic =    53.4353   Anisotropy =   179.8740

     27  C    Isotropic =    49.6509   Anisotropy =   183.6475

     28  C    Isotropic =    48.6313   Anisotropy =   183.3399

     29  H    Isotropic =    29.3451   Anisotropy =     4.6406

     30  H    Isotropic =    30.6736   Anisotropy =     8.5867

     31  H    Isotropic =    30.6833   Anisotropy =     5.4000

     32  H    Isotropic =    30.6334   Anisotropy =     9.1807

     33  H    Isotropic =    24.8189   Anisotropy =    12.6751

     34  H    Isotropic =    24.5103   Anisotropy =     6.0124

     35  H    Isotropic =    24.6401   Anisotropy =     4.0524

     36  H    Isotropic =    24.4396   Anisotropy =     6.4247

     37  H    Isotropic =    24.4351   Anisotropy =    11.0589

     38  H    Isotropic =    23.5266   Anisotropy =     8.1343

     39  H    Isotropic =    24.1024   Anisotropy =     5.1863

     40  H    Isotropic =    24.1199   Anisotropy =     4.0273

     41  H    Isotropic =    24.2643   Anisotropy =     6.0502

     42  H    Isotropic =    24.0297   Anisotropy =    10.5422

     43  H    Isotropic =    23.6892   Anisotropy =     8.9158

     44  H    Isotropic =    24.1163   Anisotropy =     5.4169

     45  H    Isotropic =    24.2010   Anisotropy =     4.2765

     46  H    Isotropic =    24.2900   Anisotropy =     6.2915

     47  H    Isotropic =    23.9326   Anisotropy =    11.3849

     48  H    Isotropic =    25.0045   Anisotropy =     7.4052

     49  H    Isotropic =    24.7114   Anisotropy =     7.8687

     50  H    Isotropic =    24.6530   Anisotropy =     4.4677

     51  H    Isotropic =    24.4788   Anisotropy =     5.6811

     52  H    Isotropic =    24.5981   Anisotropy =    11.8707

 The electronic state is 1-A.
 Alpha  occ. eigenvalues --  -77.04897 -77.04816 -10.19707 -10.18766 -10.18599
 Alpha  occ. eigenvalues --  -10.18505 -10.18498 -10.18469 -10.18415 -10.18365
 Alpha  occ. eigenvalues --  -10.18258 -10.18257 -10.18227 -10.18208 -10.18123
 Alpha  occ. eigenvalues --  -10.18099 -10.18041 -10.17669 -10.17567 -10.17533
 Alpha  occ. eigenvalues --  -10.17529 -10.17518 -10.17478 -10.17472 -10.17440
 Alpha  occ. eigenvalues --  -10.17267 -10.17244 -10.17208  -6.53454  -6.53384
 Alpha  occ. eigenvalues --   -4.69602  -4.69577  -4.69528  -4.69510  -4.69092
 Alpha  occ. eigenvalues --   -4.69022  -0.86654  -0.86437  -0.85729  -0.85697
 Alpha  occ. eigenvalues --   -0.79232  -0.76623  -0.75647  -0.75524  -0.75421
 Alpha  occ. eigenvalues --   -0.74935  -0.74741  -0.74621  -0.74566  -0.67189
 Alpha  occ. eigenvalues --   -0.64175  -0.61676  -0.61361  -0.61227  -0.60713
 Alpha  occ. eigenvalues --   -0.60289  -0.60178  -0.60096  -0.56335  -0.54998
 Alpha  occ. eigenvalues --   -0.52447  -0.52197  -0.50485  -0.49941  -0.46361
 Alpha  occ. eigenvalues --   -0.46173  -0.46128  -0.46003  -0.45693  -0.45437
 Alpha  occ. eigenvalues --   -0.45254  -0.45060  -0.44107  -0.43204  -0.43010
 Alpha  occ. eigenvalues --   -0.42611  -0.42508  -0.41845  -0.41360  -0.40868
 Alpha  occ. eigenvalues --   -0.40415  -0.38319  -0.38099  -0.37754  -0.37373
 Alpha  occ. eigenvalues --   -0.37348  -0.37067  -0.35485  -0.35344  -0.35255
 Alpha  occ. eigenvalues --   -0.34908  -0.34339  -0.32816  -0.32019  -0.30909
 Alpha  occ. eigenvalues --   -0.27882  -0.27168  -0.26940  -0.26668  -0.26444
 Alpha  occ. eigenvalues --   -0.25996  -0.25711  -0.25594  -0.21822  -0.18549
 Alpha virt. eigenvalues --   -0.03813  -0.03292  -0.02676  -0.02340  -0.02010
 Alpha virt. eigenvalues --   -0.01986  -0.01321  -0.00871   0.02089   0.03423
 Alpha virt. eigenvalues --    0.04423   0.04878   0.05224   0.05820   0.06113

 Mulliken charges:
               1
     1  P    0.161480
     2  P    0.151200
     3  C   -0.176437
     4  C   -0.352645
     5  C    0.089166
     6  C   -0.177696
     7  C   -0.117571
     8  C   -0.112691
     9  C   -0.121794
    10  C   -0.201551
    11  C    0.007723
    12  C   -0.182734
    13  C   -0.088484
    14  C   -0.102803
    15  C   -0.100934
    16  C   -0.164964
    17  C    0.044512
    18  C   -0.192717
    19  C   -0.096121
    20  C   -0.104409
    21  C   -0.104954
    22  C   -0.197326
    23  C    0.064170
    24  C   -0.173181
    25  C   -0.158201
    26  C   -0.102497
    27  C   -0.118152
    28  C   -0.188988
    29  H    0.103789
    30  H    0.116248
    31  H    0.127625
    32  H    0.123326
    33  H    0.129449
    34  H    0.107393
    35  H    0.106378
    36  H    0.105918
    37  H    0.104154
    38  H    0.122994
    39  H    0.113686
    40  H    0.113078
    41  H    0.110480
    42  H    0.128561
    43  H    0.120288
    44  H    0.111651
    45  H    0.112061
    46  H    0.109529
    47  H    0.139347
    48  H    0.159524
    49  H    0.105729
    50  H    0.106076
    51  H    0.107761
    52  H    0.133553
 Sum of Mulliken charges =  -0.00000

 Dipole moment (field-independent basis, Debye):
    X=             -0.0166    Y=              0.2295    Z=              2.2153  Tot=              2.2272
 Quadrupole moment (field-independent basis, Debye-Ang):
   XX=           -168.3234   YY=           -162.4770   ZZ=           -183.8597
   XY=              6.4448   XZ=              0.1772   YZ=             -1.0288

 Summary of Natural Population Analysis:

                                       Natural Population
                Natural  -----------------------------------------------
    Atom  No    Charge         Core      Valence    Rydberg      Total
 -----------------------------------------------------------------------
      P    1    0.83362      9.99805     4.13624    0.03209    14.16638
      P    2    0.83701      9.99807     4.13278    0.03215    14.16299
      C    3   -0.75206      1.99942     4.71876    0.03388     6.75206
      C    4   -0.60901      1.99940     4.59575    0.01386     6.60901
      C    5   -0.31844      1.99900     4.28823    0.03121     6.31844
      C    6   -0.20980      1.99909     4.19101    0.01970     6.20980
      C    7   -0.19443      1.99918     4.17656    0.01868     6.19443
      C    8   -0.21866      1.99918     4.19985    0.01963     6.21866
      C    9   -0.19448      1.99919     4.17653    0.01877     6.19448
      C   10   -0.21812      1.99908     4.19930    0.01974     6.21812
      C   11   -0.34118      1.99900     4.30884    0.03334     6.34118
      C   12   -0.19281      1.99910     4.17294    0.02077     6.19281
      C   13   -0.20846      1.99918     4.18987    0.01941     6.20846
      C   14   -0.19584      1.99919     4.17760    0.01905     6.19584
      C   15   -0.20725      1.99919     4.18900    0.01905     6.20725
      C   16   -0.19192      1.99908     4.17272    0.02012     6.19192
      C   17   -0.33269      1.99901     4.30107    0.03261     6.33269
      C   18   -0.19671      1.99910     4.17704    0.02057     6.19671
      C   19   -0.20454      1.99919     4.18597    0.01939     6.20454
      C   20   -0.19935      1.99919     4.18108    0.01908     6.19935
      C   21   -0.20497      1.99919     4.18670    0.01908     6.20497
      C   22   -0.19954      1.99908     4.18026    0.02020     6.19954
      C   23   -0.32842      1.99899     4.29824    0.03119     6.32842
      C   24   -0.21658      1.99908     4.19730    0.02020     6.21658
      C   25   -0.19623      1.99918     4.17847    0.01858     6.19623
      C   26   -0.21655      1.99919     4.19778    0.01958     6.21655
      C   27   -0.19685      1.99918     4.17903    0.01864     6.19685
      C   28   -0.21011      1.99909     4.19133    0.01968     6.21011
      H   29    0.24660      0.00000     0.75177    0.00163     0.75340
      H   30    0.20983      0.00000     0.78853    0.00163     0.79017
      H   31    0.21151      0.00000     0.78697    0.00152     0.78849
      H   32    0.21179      0.00000     0.78654    0.00167     0.78821
      H   33    0.21246      0.00000     0.78578    0.00176     0.78754
      H   34    0.20788      0.00000     0.79085    0.00127     0.79212
      H   35    0.20746      0.00000     0.79136    0.00117     0.79254
      H   36    0.20705      0.00000     0.79168    0.00127     0.79295
      H   37    0.19845      0.00000     0.79981    0.00174     0.80155
      H   38    0.22273      0.00000     0.77574    0.00154     0.77727
      H   39    0.21154      0.00000     0.78720    0.00126     0.78846
      H   40    0.20945      0.00000     0.78938    0.00117     0.79055
      H   41    0.20924      0.00000     0.78939    0.00137     0.79076
      H   42    0.21284      0.00000     0.78472    0.00244     0.78716
      H   43    0.21844      0.00000     0.77997    0.00159     0.78156
      H   44    0.21014      0.00000     0.78859    0.00126     0.78986
      H   45    0.20893      0.00000     0.78990    0.00117     0.79107
      H   46    0.20819      0.00000     0.79044    0.00137     0.79181
      H   47    0.21273      0.00000     0.78477    0.00250     0.78727
      H   48    0.21012      0.00000     0.78767    0.00222     0.78988
      H   49    0.20794      0.00000     0.79077    0.00129     0.79206
      H   50    0.20731      0.00000     0.79151    0.00118     0.79269
      H   51    0.20787      0.00000     0.79086    0.00127     0.79213
      H   52    0.21386      0.00000     0.78434    0.00180     0.78614
 =======================================================================
   * Total *   -0.00000     71.97389   137.35878    0.66733   210.00000

 Normal termination of Gaussian 16 at Fri Jan 24 05:21:32 2025.
