 Gaussian 16, Revision B.01,
 Gaussian 16:  ES64L-G16RevB.01 20-Dec-2017

 --------------------------------------------
 # nmr=giao b3lyp/def2TZVP pop=nbo scfcyc=200
 --------------------------------------------

 --------------
 MS-11 SPE NoRh
 --------------
 Symbolic Z-matrix:
 Charge =  0 Multiplicity = 1

                         Standard orientation:
 ---------------------------------------------------------------------
 Center     Atomic      Atomic             Coordinates (Angstroms)
 Number     Number       Type             X           Y           Z
 ---------------------------------------------------------------------
      1         15           0       -1.513925   -0.314692   -0.536481
      2          6           0       -3.038822    0.680087   -0.198770
      3          6           0       -3.050361    2.051473   -0.477861
      4          6           0       -4.194638    2.806602   -0.257660
      5          6           0       -5.350807    2.197749    0.225350
      6          6           0       -5.354918    0.832145    0.482609
      7          6           0       -4.206020    0.075289    0.271554
      8          1           0       -4.227853   -0.988135    0.467552
      9          1           0       -6.254509    0.351445    0.847051
     10          1           0       -6.244079    2.785215    0.391377
     11          1           0       -4.189663    3.867975   -0.471110
     12          1           0       -2.165791    2.531018   -0.878883
     13          6           0       -0.175154    0.211089    0.704717
     14         15           0        1.193178    0.364476   -0.607117
     15          6           0        2.128020    1.931871   -0.329634
     16          6           0        3.432420    1.952995    0.171779
     17          6           0        4.097060    3.163279    0.345193
     18          6           0        3.470026    4.362009    0.025034
     19          6           0        2.174176    4.348647   -0.482513
     20          6           0        1.511698    3.142505   -0.668701
     21          1           0        0.513225    3.142046   -1.089883
     22          1           0        1.683049    5.279120   -0.742899
     23          1           0        3.989442    5.301829    0.163042
     24          1           0        5.108928    3.165991    0.731168
     25          1           0        3.940016    1.031450    0.420938
     26          6           0        2.356702   -1.006978   -0.202951
     27          6           0        2.760272   -1.243279    1.116980
     28          6           0        3.637292   -2.280884    1.408156
     29          6           0        4.118625   -3.096158    0.387870
     30          6           0        3.718002   -2.873469   -0.924312
     31          6           0        2.838454   -1.835217   -1.218680
     32          1           0        2.519154   -1.680762   -2.239787
     33          1           0        4.085477   -3.509117   -1.719997
     34          1           0        4.801457   -3.905318    0.616934
     35          1           0        3.945734   -2.451910    2.432933
     36          1           0        2.400735   -0.616242    1.923428
     37          1           0        0.058275   -0.658522    1.318024
     38          7           0       -1.835943   -1.938126   -0.152180
     39          6           0       -2.042599   -2.392353    1.234863
     40          1           0       -3.072676   -2.748512    1.346980
     41          1           0       -1.950973   -1.530854    1.898942
     42          6           0       -2.198715   -2.885271   -1.223491
     43          1           0       -2.865417   -3.629742   -0.781176
     44          1           0       -2.797771   -2.370281   -1.980083
     45          6           0       -1.080645   -3.490310    1.684925
     46          1           0       -0.041226   -3.173159    1.593523
     47          1           0       -1.275596   -3.746065    2.728956
     48          1           0       -1.208134   -4.400521    1.096681
     49          6           0       -1.013336   -3.577864   -1.889536
     50          1           0       -1.364495   -4.262616   -2.665940
     51          1           0       -0.351114   -2.844396   -2.355279
     52          1           0       -0.428324   -4.150027   -1.169440
     53          6           0       -0.440828    1.408333    1.610740
     54          1           0       -1.289450    1.207434    2.265954
     55          1           0        0.430792    1.607997    2.237266
     56          1           0       -0.661847    2.321041    1.058993
 ---------------------------------------------------------------------

 SCF Done:  E(RB3LYP) =  -1669.86446516     A.U. after   14 cycles

      1  P    Isotropic =   156.7788   Anisotropy =   137.0663

      2  C    Isotropic =    30.1507   Anisotropy =   187.2359

      3  C    Isotropic =    48.6369   Anisotropy =   182.6412

      4  C    Isotropic =    50.4332   Anisotropy =   183.4056

      5  C    Isotropic =    52.6470   Anisotropy =   180.7048

      6  C    Isotropic =    50.4203   Anisotropy =   183.1392

      7  C    Isotropic =    50.5739   Anisotropy =   178.8747

      8  H    Isotropic =    24.4127   Anisotropy =    11.3575

      9  H    Isotropic =    24.4060   Anisotropy =     6.1812

     10  H    Isotropic =    24.5342   Anisotropy =     4.3542

     11  H    Isotropic =    24.2722   Anisotropy =     6.1393

     12  H    Isotropic =    24.2119   Anisotropy =     9.8405

     13  C    Isotropic =   138.2893   Anisotropy =    19.1889

     14  P    Isotropic =   234.4099   Anisotropy =   136.5484

     15  C    Isotropic =    34.6757   Anisotropy =   196.3457

     16  C    Isotropic =    47.5383   Anisotropy =   186.6315

     17  C    Isotropic =    49.9169   Anisotropy =   182.5658

     18  C    Isotropic =    51.8030   Anisotropy =   182.5278

     19  C    Isotropic =    50.7998   Anisotropy =   181.2988

     20  C    Isotropic =    44.2116   Anisotropy =   180.4403

     21  H    Isotropic =    23.8965   Anisotropy =     9.9980

     22  H    Isotropic =    24.2238   Anisotropy =     6.0535

     23  H    Isotropic =    24.4923   Anisotropy =     4.3882

     24  H    Isotropic =    24.5310   Anisotropy =     6.7671

     25  H    Isotropic =    24.8300   Anisotropy =    13.5142

     26  C    Isotropic =    32.8471   Anisotropy =   209.0661

     27  C    Isotropic =    39.9748   Anisotropy =   187.9473

     28  C    Isotropic =    48.9852   Anisotropy =   185.0585

     29  C    Isotropic =    48.9829   Anisotropy =   188.8280

     30  C    Isotropic =    49.3807   Anisotropy =   184.7284

     31  C    Isotropic =    40.6147   Anisotropy =   182.9714

     32  H    Isotropic =    23.7172   Anisotropy =     7.7846

     33  H    Isotropic =    24.1712   Anisotropy =     5.1342

     34  H    Isotropic =    24.1832   Anisotropy =     4.0101

     35  H    Isotropic =    24.1069   Anisotropy =     5.7262

     36  H    Isotropic =    23.8066   Anisotropy =    10.4655

     37  H    Isotropic =    29.1605   Anisotropy =     4.6602

     38  N    Isotropic =   200.3215   Anisotropy =    39.6859

     39  C    Isotropic =   127.9686   Anisotropy =    52.5400

     40  H    Isotropic =    28.4152   Anisotropy =     8.2549

     41  H    Isotropic =    28.9479   Anisotropy =     3.4117

     42  C    Isotropic =   130.1048   Anisotropy =    59.1630

     43  H    Isotropic =    29.3381   Anisotropy =     7.5644

     44  H    Isotropic =    28.5827   Anisotropy =     7.2328

     45  C    Isotropic =   164.1685   Anisotropy =    27.2558

     46  H    Isotropic =    31.6213   Anisotropy =     9.5050

     47  H    Isotropic =    31.2137   Anisotropy =    10.8488

     48  H    Isotropic =    30.9683   Anisotropy =     6.1587

     49  C    Isotropic =   162.9726   Anisotropy =    30.7432

     50  H    Isotropic =    31.1455   Anisotropy =    11.2938

     51  H    Isotropic =    30.3376   Anisotropy =     5.6266

     52  H    Isotropic =    31.2859   Anisotropy =     4.2016

     53  C    Isotropic =   168.8800   Anisotropy =    11.2745

     54  H    Isotropic =    31.2433   Anisotropy =     7.3004

     55  H    Isotropic =    31.1391   Anisotropy =     7.4233

     56  H    Isotropic =    30.5496   Anisotropy =     7.2625

 The electronic state is 1-A.
 Alpha  occ. eigenvalues --  -77.05302 -77.04380 -14.30843 -10.20205 -10.19846
 Alpha  occ. eigenvalues --  -10.18879 -10.18541 -10.18364 -10.18353 -10.18280
 Alpha  occ. eigenvalues --  -10.18227 -10.18216 -10.18138 -10.17767 -10.17638
 Alpha  occ. eigenvalues --  -10.17524 -10.17471 -10.17417 -10.17392 -10.17356
 Alpha  occ. eigenvalues --  -10.17322 -10.17275 -10.17150 -10.17137 -10.16895
 Alpha  occ. eigenvalues --  -10.16237 -10.15399  -6.53588  -6.52954  -4.69802
 Alpha  occ. eigenvalues --   -4.69685  -4.69228  -4.69095  -4.69080  -4.68586
 Alpha  occ. eigenvalues --   -0.90720  -0.86536  -0.85743  -0.85409  -0.78563
 Alpha  occ. eigenvalues --   -0.76396  -0.75986  -0.75554  -0.74977  -0.74653
 Alpha  occ. eigenvalues --   -0.74611  -0.74445  -0.72480  -0.66426  -0.63692
 Alpha  occ. eigenvalues --   -0.62990  -0.61436  -0.60835  -0.60416  -0.60309
 Alpha  occ. eigenvalues --   -0.60105  -0.59254  -0.55773  -0.54367  -0.52401
 Alpha  occ. eigenvalues --   -0.51050  -0.50230  -0.48140  -0.46942  -0.46135
 Alpha  occ. eigenvalues --   -0.46008  -0.45700  -0.45403  -0.45245  -0.44921
 Alpha  occ. eigenvalues --   -0.43972  -0.43184  -0.43077  -0.42534  -0.42175
 Alpha  occ. eigenvalues --   -0.42033  -0.41847  -0.41235  -0.40848  -0.39370
 Alpha  occ. eigenvalues --   -0.38853  -0.38344  -0.37735  -0.37615  -0.37216
 Alpha  occ. eigenvalues --   -0.37033  -0.36873  -0.36282  -0.35440  -0.34950
 Alpha  occ. eigenvalues --   -0.34522  -0.34367  -0.33904  -0.33408  -0.32301
 Alpha  occ. eigenvalues --   -0.30660  -0.27273  -0.26645  -0.26550  -0.25872
 Alpha  occ. eigenvalues --   -0.25813  -0.25600  -0.23078  -0.21416  -0.18119
 Alpha virt. eigenvalues --   -0.03735  -0.02513  -0.02237  -0.01534  -0.01254
 Alpha virt. eigenvalues --   -0.01198   0.00742   0.02868   0.03775   0.04180
 Alpha virt. eigenvalues --    0.05003   0.05255   0.05911   0.06048   0.06644

 Mulliken charges:
               1
     1  P    0.167851
     2  C    0.031095
     3  C   -0.178789
     4  C   -0.131253
     5  C   -0.097880
     6  C   -0.132574
     7  C   -0.114454
     8  H    0.118921
     9  H    0.102318
    10  H    0.105536
    11  H    0.103439
    12  H    0.127932
    13  C   -0.220191
    14  P    0.113681
    15  C    0.043215
    16  C   -0.144069
    17  C   -0.133850
    18  C   -0.100034
    19  C   -0.123575
    20  C   -0.193312
    21  H    0.141492
    22  H    0.106150
    23  H    0.107584
    24  H    0.105438
    25  H    0.149086
    26  C    0.088056
    27  C   -0.253819
    28  C   -0.089837
    29  C   -0.102193
    30  C   -0.103753
    31  C   -0.162907
    32  H    0.117830
    33  H    0.111259
    34  H    0.112068
    35  H    0.109149
    36  H    0.131506
    37  H    0.108674
    38  N   -0.201685
    39  C   -0.182479
    40  H    0.093426
    41  H    0.126514
    42  C   -0.114640
    43  H    0.094124
    44  H    0.109145
    45  C   -0.328279
    46  H    0.131107
    47  H    0.104261
    48  H    0.108220
    49  C   -0.317325
    50  H    0.098564
    51  H    0.118437
    52  H    0.104075
    53  C   -0.323415
    54  H    0.124927
    55  H    0.124448
    56  H    0.110784
 Sum of Mulliken charges =  -0.00000

 Dipole moment (field-independent basis, Debye):
    X=              0.3770    Y=             -1.1987    Z=              2.2447  Tot=              2.5725
 Quadrupole moment (field-independent basis, Debye-Ang):
   XX=           -169.6733   YY=           -163.7973   ZZ=           -180.4793
   XY=             -1.7655   XZ=              0.7429   YZ=             -0.5692

 Summary of Natural Population Analysis:

                                       Natural Population
                Natural  -----------------------------------------------
    Atom  No    Charge         Core      Valence    Rydberg      Total
 -----------------------------------------------------------------------
      P    1    1.02952      9.99801     3.93082    0.04164    13.97048
      C    2   -0.35126      1.99899     4.31859    0.03368     6.35126
      C    3   -0.20847      1.99908     4.18871    0.02068     6.20847
      C    4   -0.19999      1.99918     4.18177    0.01904     6.19999
      C    5   -0.21489      1.99919     4.19597    0.01973     6.21489
      C    6   -0.20014      1.99918     4.18173    0.01922     6.20014
      C    7   -0.21118      1.99908     4.19176    0.02034     6.21118
      H    8    0.20516      0.00000     0.79251    0.00233     0.79484
      H    9    0.20519      0.00000     0.79344    0.00137     0.79481
      H   10    0.20676      0.00000     0.79204    0.00120     0.79324
      H   11    0.20667      0.00000     0.79200    0.00133     0.79333
      H   12    0.20110      0.00000     0.79680    0.00210     0.79890
      C   13   -0.76712      1.99944     4.73343    0.03425     6.76712
      P   14    0.81042      9.99810     4.15767    0.03380    14.18958
      C   15   -0.31864      1.99898     4.28896    0.03071     6.31864
      C   16   -0.20803      1.99908     4.18890    0.02005     6.20803
      C   17   -0.19921      1.99919     4.18105    0.01897     6.19921
      C   18   -0.20927      1.99919     4.19064    0.01945     6.20927
      C   19   -0.20103      1.99918     4.18294    0.01891     6.20103
      C   20   -0.20480      1.99908     4.18507    0.02065     6.20480
      H   21    0.20487      0.00000     0.79319    0.00194     0.79513
      H   22    0.20826      0.00000     0.79043    0.00130     0.79174
      H   23    0.20768      0.00000     0.79112    0.00120     0.79232
      H   24    0.20675      0.00000     0.79190    0.00135     0.79325
      H   25    0.21441      0.00000     0.78362    0.00197     0.78559
      C   26   -0.32869      1.99901     4.29619    0.03349     6.32869
      C   27   -0.20701      1.99908     4.18775    0.02018     6.20701
      C   28   -0.20738      1.99918     4.18899    0.01921     6.20738
      C   29   -0.19884      1.99919     4.18056    0.01910     6.19884
      C   30   -0.20381      1.99918     4.18524    0.01939     6.20381
      C   31   -0.18620      1.99910     4.16644    0.02065     6.18620
      H   32    0.21882      0.00000     0.77954    0.00165     0.78118
      H   33    0.21027      0.00000     0.78847    0.00126     0.78973
      H   34    0.20918      0.00000     0.78964    0.00118     0.79082
      H   35    0.20833      0.00000     0.79027    0.00139     0.79167
      H   36    0.20629      0.00000     0.79127    0.00244     0.79371
      H   37    0.24083      0.00000     0.75691    0.00225     0.75917
      N   38   -0.74779      1.99953     5.71548    0.03278     7.74779
      C   39   -0.20586      1.99938     4.18871    0.01777     6.20586
      H   40    0.16935      0.00000     0.82759    0.00306     0.83065
      H   41    0.19143      0.00000     0.80601    0.00255     0.80857
      C   42   -0.19885      1.99937     4.18089    0.01858     6.19885
      H   43    0.17991      0.00000     0.81765    0.00244     0.82009
      H   44    0.19239      0.00000     0.80527    0.00234     0.80761
      C   45   -0.60385      1.99946     4.59350    0.01089     6.60385
      H   46    0.20627      0.00000     0.79240    0.00132     0.79373
      H   47    0.20377      0.00000     0.79516    0.00106     0.79623
      H   48    0.19940      0.00000     0.79937    0.00123     0.80060
      C   49   -0.59941      1.99946     4.58974    0.01021     6.59941
      H   50    0.20030      0.00000     0.79859    0.00111     0.79970
      H   51    0.21110      0.00000     0.78760    0.00130     0.78890
      H   52    0.19899      0.00000     0.79966    0.00135     0.80101
      C   53   -0.60447      1.99941     4.59093    0.01413     6.60447
      H   54    0.21250      0.00000     0.78588    0.00161     0.78750
      H   55    0.21114      0.00000     0.78731    0.00156     0.78886
      H   56    0.20912      0.00000     0.78918    0.00171     0.79088
 =======================================================================
   * Total *    0.00000     69.97634   139.36727    0.65639   210.00000

 Normal termination of Gaussian 16 at Fri Jan 24 05:36:04 2025.
