 Gaussian 16, Revision B.01,
 Gaussian 16:  ES64L-G16RevB.01 20-Dec-2017

 --------------------------------------------
 # nmr=giao b3lyp/def2TZVP pop=nbo scfcyc=200
 --------------------------------------------

 --------------
 MS-24 SPE NoRh
 --------------
 Symbolic Z-matrix:
 Charge =  0 Multiplicity = 1

                         Standard orientation:
 ---------------------------------------------------------------------
 Center     Atomic      Atomic             Coordinates (Angstroms)
 Number     Number       Type             X           Y           Z
 ---------------------------------------------------------------------
      1         15           0        1.223676    0.421792   -1.152898
      2         15           0       -1.565509    0.179215   -1.061589
      3          6           0        1.786856    2.006894   -0.409676
      4          6           0        1.517943    3.196683   -1.093217
      5          1           0        0.977385    3.166816   -2.030960
      6          6           0        1.930240    4.417082   -0.568058
      7          1           0        1.720043    5.333546   -1.106109
      8          6           0        2.612412    4.456940    0.642776
      9          1           0        2.936943    5.406157    1.050874
     10          6           0        2.878802    3.275153    1.330266
     11          1           0        3.408052    3.304191    2.274368
     12          6           0        2.472382    2.049866    0.811930
     13          1           0        2.676761    1.136143    1.356663
     14          6           0        2.684533   -0.695320   -1.248245
     15          6           0        3.988620   -0.203836   -1.160918
     16          1           0        4.167541    0.842765   -0.956106
     17          6           0        5.071894   -1.061595   -1.322397
     18          1           0        6.078590   -0.670930   -1.245061
     19          6           0        4.866762   -2.412815   -1.574399
     20          1           0        5.711991   -3.078831   -1.695112
     21          6           0        3.568512   -2.906901   -1.676530
     22          1           0        3.401083   -3.956972   -1.880389
     23          6           0        2.484740   -2.052837   -1.524596
     24          1           0        1.482114   -2.452593   -1.629532
     25          6           0       -0.076877   -0.373510   -0.022493
     26          1           0       -0.030096   -1.425520   -0.323110
     27          6           0       -0.069302   -0.298380    1.510686
     28          1           0        0.180598    0.705997    1.846425
     29          1           0       -1.070274   -0.515737    1.883006
     30          6           0       -2.440553    1.610430   -0.303916
     31          6           0       -1.800108    2.526374    0.534538
     32          1           0       -0.769143    2.384475    0.825676
     33          6           0       -2.478117    3.650238    0.996598
     34          1           0       -1.970869    4.346038    1.653143
     35          6           0       -3.795491    3.879845    0.618981
     36          1           0       -4.320270    4.754510    0.980716
     37          6           0       -4.436074    2.982218   -0.230852
     38          1           0       -5.460741    3.155826   -0.533860
     39          6           0       -3.764362    1.856828   -0.692831
     40          1           0       -4.281788    1.166433   -1.347583
     41          6           0       -2.739196   -1.239440   -0.942538
     42          6           0       -3.677520   -1.347984    0.090337
     43          1           0       -3.791283   -0.550848    0.813818
     44          6           0       -4.485678   -2.476313    0.185524
     45          1           0       -5.213333   -2.548007    0.984542
     46          6           0       -4.364230   -3.506793   -0.742644
     47          1           0       -4.998417   -4.380412   -0.668595
     48          6           0       -3.430404   -3.408166   -1.768930
     49          1           0       -3.334332   -4.205223   -2.496024
     50          6           0       -2.622930   -2.279945   -1.869907
     51          1           0       -1.898957   -2.205052   -2.672694
     52          7           0        0.630752   -2.452866    2.558901
     53          6           0        1.629781   -3.293559    3.216929
     54          1           0        1.344068   -3.473914    4.257692
     55          1           0        1.706844   -4.254370    2.704984
     56          1           0        2.590277   -2.789163    3.189996
     57          6           0       -0.727623   -2.985085    2.569591
     58          1           0       -1.343032   -2.545441    1.790840
     59          1           0       -0.683002   -4.058848    2.382593
     60          1           0       -1.214063   -2.829635    3.537981
     61          6           0        0.995150   -1.215511    2.124590
     62          8           0        2.153574   -0.813728    2.184151
 ---------------------------------------------------------------------

 SCF Done:  E(RB3LYP) =  -1935.72495648     A.U. after   15 cycles

      1  P    Isotropic =   221.1227   Anisotropy =    92.0446

      2  P    Isotropic =   213.5946   Anisotropy =    96.7131

      3  C    Isotropic =    41.5002   Anisotropy =   195.8714

      4  C    Isotropic =    37.8302   Anisotropy =   184.1611

      5  H    Isotropic =    23.7548   Anisotropy =     8.0879

      6  C    Isotropic =    49.7815   Anisotropy =   184.1932

      7  H    Isotropic =    24.1998   Anisotropy =     5.0677

      8  C    Isotropic =    47.4703   Anisotropy =   190.5412

      9  H    Isotropic =    24.0602   Anisotropy =     3.9471

     10  C    Isotropic =    49.5974   Anisotropy =   184.9841

     11  H    Isotropic =    24.0054   Anisotropy =     6.3577

     12  C    Isotropic =    33.6528   Anisotropy =   209.0881

     13  H    Isotropic =    21.6348   Anisotropy =     8.9016

     14  C    Isotropic =    30.5407   Anisotropy =   198.5217

     15  C    Isotropic =    50.4454   Anisotropy =   182.6930

     16  H    Isotropic =    24.8189   Anisotropy =    13.1468

     17  C    Isotropic =    49.8059   Anisotropy =   183.0425

     18  H    Isotropic =    24.5870   Anisotropy =     6.2584

     19  C    Isotropic =    53.8708   Anisotropy =   178.4240

     20  H    Isotropic =    24.6858   Anisotropy =     4.0319

     21  C    Isotropic =    51.1768   Anisotropy =   181.0551

     22  H    Isotropic =    24.4730   Anisotropy =     6.2266

     23  C    Isotropic =    50.9094   Anisotropy =   182.1967

     24  H    Isotropic =    24.3425   Anisotropy =    10.1643

     25  C    Isotropic =   127.7834   Anisotropy =    20.1878

     26  H    Isotropic =    29.4317   Anisotropy =     3.5402

     27  C    Isotropic =   152.0014   Anisotropy =    24.6201

     28  H    Isotropic =    29.1455   Anisotropy =     4.2972

     29  H    Isotropic =    29.0774   Anisotropy =     4.3522

     30  C    Isotropic =    36.5758   Anisotropy =   186.7851

     31  C    Isotropic =    47.7705   Anisotropy =   182.9955

     32  H    Isotropic =    25.4274   Anisotropy =     7.2118

     33  C    Isotropic =    50.4619   Anisotropy =   183.4302

     34  H    Isotropic =    24.8957   Anisotropy =     8.2427

     35  C    Isotropic =    53.0395   Anisotropy =   181.2869

     36  H    Isotropic =    24.6861   Anisotropy =     4.4618

     37  C    Isotropic =    50.0212   Anisotropy =   183.4077

     38  H    Isotropic =    24.4878   Anisotropy =     5.3700

     39  C    Isotropic =    48.0193   Anisotropy =   184.1609

     40  H    Isotropic =    24.5411   Anisotropy =    11.5237

     41  C    Isotropic =    30.1686   Anisotropy =   211.6149

     42  C    Isotropic =    44.7497   Anisotropy =   187.3436

     43  H    Isotropic =    24.0472   Anisotropy =    11.1339

     44  C    Isotropic =    49.4666   Anisotropy =   184.4607

     45  H    Isotropic =    24.3899   Anisotropy =     6.1487

     46  C    Isotropic =    49.5331   Anisotropy =   187.8113

     47  H    Isotropic =    24.2824   Anisotropy =     4.0212

     48  C    Isotropic =    48.9197   Anisotropy =   185.3750

     49  H    Isotropic =    24.0524   Anisotropy =     5.2564

     50  C    Isotropic =    41.9968   Anisotropy =   181.1064

     51  H    Isotropic =    23.5142   Anisotropy =     9.1169

     52  N    Isotropic =   139.4074   Anisotropy =   120.9156

     53  C    Isotropic =   148.8672   Anisotropy =    52.3827

     54  H    Isotropic =    30.1028   Anisotropy =    10.9099

     55  H    Isotropic =    30.2882   Anisotropy =     8.4766

     56  H    Isotropic =    27.6341   Anisotropy =     5.5541

     57  C    Isotropic =   145.7501   Anisotropy =    53.5880

     58  H    Isotropic =    29.3951   Anisotropy =    10.6334

     59  H    Isotropic =    29.9371   Anisotropy =     6.8581

     60  H    Isotropic =    29.5036   Anisotropy =     8.3626

     61  C    Isotropic =     7.1854   Anisotropy =   118.7067

     62  O    Isotropic =   -78.1911   Anisotropy =   590.2634

 The electronic state is 1-A.
 Alpha  occ. eigenvalues --  -77.05299 -77.04437 -19.08591 -14.35434 -10.27198
 Alpha  occ. eigenvalues --  -10.21573 -10.20330 -10.20135 -10.18959 -10.18868
 Alpha  occ. eigenvalues --  -10.18815 -10.18673 -10.18650 -10.18575 -10.18557
 Alpha  occ. eigenvalues --  -10.18502 -10.17968 -10.17814 -10.17776 -10.17733
 Alpha  occ. eigenvalues --  -10.17712 -10.17693 -10.17682 -10.17614 -10.17473
 Alpha  occ. eigenvalues --  -10.17470 -10.17268 -10.17065 -10.16938 -10.16855
 Alpha  occ. eigenvalues --  -10.16709 -10.16588 -10.16546  -6.53836  -6.52997
 Alpha  occ. eigenvalues --   -4.69988  -4.69956  -4.69473  -4.69158  -4.69107
 Alpha  occ. eigenvalues --   -4.68634  -1.03705  -0.93988  -0.86871  -0.85950
 Alpha  occ. eigenvalues --   -0.85740  -0.84982  -0.80109  -0.76736  -0.75895
 Alpha  occ. eigenvalues --   -0.75810  -0.75073  -0.74863  -0.74673  -0.74258
 Alpha  occ. eigenvalues --   -0.73863  -0.73147  -0.71181  -0.67429  -0.64001
 Alpha  occ. eigenvalues --   -0.61829  -0.61387  -0.60872  -0.60485  -0.60435
 Alpha  occ. eigenvalues --   -0.59906  -0.59396  -0.56283  -0.55307  -0.54975
 Alpha  occ. eigenvalues --   -0.52679  -0.51568  -0.50587  -0.50433  -0.50015
 Alpha  occ. eigenvalues --   -0.48443  -0.48152  -0.46507  -0.46309  -0.45724
 Alpha  occ. eigenvalues --   -0.45484  -0.45397  -0.45234  -0.44654  -0.44516
 Alpha  occ. eigenvalues --   -0.43692  -0.43419  -0.42903  -0.42391  -0.42224
 Alpha  occ. eigenvalues --   -0.41862  -0.41638  -0.41392  -0.41022  -0.40744
 Alpha  occ. eigenvalues --   -0.40218  -0.38731  -0.38528  -0.38383  -0.37691
 Alpha  occ. eigenvalues --   -0.37520  -0.36941  -0.36895  -0.36124  -0.35707
 Alpha  occ. eigenvalues --   -0.35359  -0.34651  -0.34405  -0.34150  -0.32822
 Alpha  occ. eigenvalues --   -0.31702  -0.31321  -0.28185  -0.27107  -0.26959
 Alpha  occ. eigenvalues --   -0.26393  -0.26143  -0.26000  -0.25566  -0.25160
 Alpha  occ. eigenvalues --   -0.25074  -0.24886  -0.21755  -0.18244
 Alpha virt. eigenvalues --   -0.03893  -0.03142  -0.02831  -0.02429  -0.01704
 Alpha virt. eigenvalues --   -0.01242  -0.01026  -0.00457   0.00996   0.01827
 Alpha virt. eigenvalues --    0.02596   0.04016   0.04626   0.05215   0.05438

 Mulliken charges:
               1
     1  P    0.150977
     2  P    0.163905
     3  C   -0.060799
     4  C   -0.128803
     5  H    0.115841
     6  C   -0.112277
     7  H    0.108994
     8  C   -0.093451
     9  H    0.109552
    10  C   -0.114142
    11  H    0.111652
    12  C   -0.195496
    13  H    0.222832
    14  C    0.127479
    15  C   -0.164244
    16  H    0.140176
    17  C   -0.124393
    18  H    0.102903
    19  C   -0.108149
    20  H    0.102605
    21  C   -0.120568
    22  H    0.099873
    23  C   -0.212289
    24  H    0.101993
    25  C   -0.208661
    26  H    0.107659
    27  C   -0.288662
    28  H    0.126177
    29  H    0.140211
    30  C    0.052472
    31  C   -0.136478
    32  H    0.155872
    33  C   -0.158461
    34  H    0.108160
    35  C   -0.105143
    36  H    0.107184
    37  C   -0.109122
    38  H    0.108855
    39  C   -0.200509
    40  H    0.125697
    41  C    0.047161
    42  C   -0.220451
    43  H    0.141825
    44  C   -0.104201
    45  H    0.111242
    46  C   -0.103902
    47  H    0.112971
    48  C   -0.102071
    49  H    0.113012
    50  C   -0.194527
    51  H    0.123166
    52  N   -0.099580
    53  C   -0.272440
    54  H    0.112866
    55  H    0.116462
    56  H    0.168088
    57  C   -0.297147
    58  H    0.167963
    59  H    0.125847
    60  H    0.124530
    61  C    0.308460
    62  O   -0.428695
 Sum of Mulliken charges =  -0.00000

 Dipole moment (field-independent basis, Debye):
    X=             -2.7687    Y=             -2.3078    Z=              2.7622  Tot=              4.5410
 Quadrupole moment (field-independent basis, Debye-Ang):
   XX=           -204.9698   YY=           -184.0596   ZZ=           -211.5682
   XY=              5.4173   XZ=             -2.6289   YZ=              0.0104

 Summary of Natural Population Analysis:

                                       Natural Population
                Natural  -----------------------------------------------
    Atom  No    Charge         Core      Valence    Rydberg      Total
 -----------------------------------------------------------------------
      P    1    0.83573      9.99801     4.13348    0.03278    14.16427
      P    2    0.85485      9.99804     4.11529    0.03182    14.14515
      C    3   -0.35446      1.99899     4.32250    0.03297     6.35446
      C    4   -0.18460      1.99910     4.16504    0.02046     6.18460
      H    5    0.22083      0.00000     0.77762    0.00155     0.77917
      C    6   -0.21258      1.99918     4.19394    0.01946     6.21258
      H    7    0.20993      0.00000     0.78880    0.00127     0.79007
      C    8   -0.19436      1.99919     4.17619    0.01898     6.19436
      H    9    0.20733      0.00000     0.79147    0.00120     0.79267
      C   10   -0.21002      1.99919     4.19208    0.01875     6.21002
      H   11    0.20877      0.00000     0.78983    0.00140     0.79123
      C   12   -0.20663      1.99909     4.18717    0.02037     6.20663
      H   13    0.25562      0.00000     0.74228    0.00210     0.74438
      C   14   -0.31030      1.99898     4.27965    0.03166     6.31030
      C   15   -0.20407      1.99908     4.18560    0.01939     6.20407
      H   16    0.21431      0.00000     0.78389    0.00180     0.78569
      C   17   -0.19220      1.99918     4.17440    0.01861     6.19220
      H   18    0.20613      0.00000     0.79258    0.00129     0.79387
      C   19   -0.21722      1.99919     4.19847    0.01956     6.21722
      H   20    0.20564      0.00000     0.79318    0.00118     0.79436
      C   21   -0.19769      1.99918     4.17980    0.01871     6.19769
      H   22    0.20452      0.00000     0.79419    0.00129     0.79548
      C   23   -0.21165      1.99908     4.19334    0.01923     6.21165
      H   24    0.19564      0.00000     0.80235    0.00201     0.80436
      C   25   -0.74852      1.99937     4.71532    0.03383     6.74852
      H   26    0.24820      0.00000     0.74995    0.00185     0.75180
      C   27   -0.50197      1.99925     4.48341    0.01931     6.50197
      H   28    0.23442      0.00000     0.76315    0.00243     0.76558
      H   29    0.21184      0.00000     0.78545    0.00271     0.78816
      C   30   -0.33443      1.99899     4.30428    0.03116     6.33443
      C   31   -0.21363      1.99908     4.19466    0.01988     6.21363
      H   32    0.21272      0.00000     0.78517    0.00212     0.78728
      C   33   -0.19491      1.99918     4.17718    0.01854     6.19491
      H   34    0.20958      0.00000     0.78914    0.00127     0.79042
      C   35   -0.21415      1.99919     4.19548    0.01948     6.21415
      H   36    0.20775      0.00000     0.79107    0.00118     0.79225
      C   37   -0.19827      1.99918     4.18051    0.01857     6.19827
      H   38    0.20844      0.00000     0.79029    0.00127     0.79156
      C   39   -0.20750      1.99910     4.18878    0.01962     6.20750
      H   40    0.21266      0.00000     0.78557    0.00177     0.78734
      C   41   -0.33216      1.99900     4.30058    0.03258     6.33216
      C   42   -0.20832      1.99908     4.18929    0.01995     6.20832
      H   43    0.21502      0.00000     0.78266    0.00232     0.78498
      C   44   -0.20581      1.99919     4.18758    0.01905     6.20581
      H   45    0.20847      0.00000     0.79016    0.00137     0.79153
      C   46   -0.20316      1.99919     4.18475    0.01921     6.20316
      H   47    0.20942      0.00000     0.78941    0.00117     0.79058
      C   48   -0.20297      1.99918     4.18437    0.01941     6.20297
      H   49    0.21079      0.00000     0.78795    0.00126     0.78921
      C   50   -0.20056      1.99910     4.18104    0.02042     6.20056
      H   51    0.21753      0.00000     0.78092    0.00155     0.78247
      N   52   -0.40219      1.99941     5.38062    0.02217     7.40219
      C   53   -0.40704      1.99935     4.39469    0.01300     6.40704
      H   54    0.18529      0.00000     0.81292    0.00179     0.81471
      H   55    0.18889      0.00000     0.80948    0.00163     0.81111
      H   56    0.24456      0.00000     0.75391    0.00153     0.75544
      C   57   -0.39826      1.99934     4.38824    0.01068     6.39826
      H   58    0.21332      0.00000     0.78464    0.00204     0.78668
      H   59    0.19933      0.00000     0.79868    0.00199     0.80067
      H   60    0.18633      0.00000     0.81116    0.00251     0.81367
      C   61    0.66279      1.99934     3.30563    0.03224     5.33721
      O   62   -0.63700      1.99975     6.61196    0.02529     8.63700
 =======================================================================
   * Total *   -0.00000     81.97076   165.24324    0.78600   248.00000

 1\1\GINC-G4NODEC9\SP\RB3LYP\def2TZVP\C29H29N1O1P2\ROOT\24-Jan-2025\0\\
 # nmr=giao b3lyp/def2TZVP pop=nbo scfcyc=200\\MS-24 SPE NoRh\\0,1\P,0,
 -0.94,-0.93,0.154\P,0,0.938,1.148,0.112\C,0,-1.287,-1.49,1.871\C,0,-0.
 289,-2.186,2.56\H,0,0.665,-2.37,2.082\C,0,-0.512,-2.631,3.859\H,0,0.26
 6,-3.172,4.384\C,0,-1.732,-2.383,4.478\H,0,-1.908,-2.732,5.488\C,0,-2.
 728,-1.686,3.798\H,0,-3.678,-1.49,4.279\C,0,-2.515,-1.239,2.498\H,0,-3
 .292,-0.691,1.979\C,0,-2.298,-1.559,-0.919\C,0,-3.133,-2.6,-0.508\H,0,
 -3.048,-3.01,0.489\C,0,-4.094,-3.11,-1.375\H,0,-4.741,-3.912,-1.043\C,

 Normal termination of Gaussian 16 at Fri Jan 24 06:28:02 2025.
