 Gaussian 16, Revision B.01,
 Gaussian 16:  ES64L-G16RevB.01 20-Dec-2017

 --------------------------------------------
 # nmr=giao b3lyp/def2TZVP pop=nbo scfcyc=200
 --------------------------------------------

 --------------
 MS-21 SPE NoRh
 --------------
 Symbolic Z-matrix:
 Charge =  0 Multiplicity = 1

                         Standard orientation:
 ---------------------------------------------------------------------
 Center     Atomic      Atomic             Coordinates (Angstroms)
 Number     Number       Type             X           Y           Z
 ---------------------------------------------------------------------
      1         15           0        1.168350    0.276521   -1.103767
      2         15           0       -1.617108   -0.041870   -0.952253
      3          6           0        1.715003    1.926871   -0.502429
      4          6           0        1.421108    3.054056   -1.276512
      5          1           0        0.875009    2.938872   -2.203406
      6          6           0        1.815580    4.319452   -0.854717
      7          1           0        1.585491    5.185347   -1.463474
      8          6           0        2.504100    4.469487    0.344015
      9          1           0        2.813545    5.454021    0.671314
     10          6           0        2.796513    3.352567    1.121895
     11          1           0        3.330158    3.465621    2.057585
     12          6           0        2.407943    2.083957    0.706087
     13          1           0        2.643609    1.230086    1.328494
     14          6           0        2.654999   -0.815254   -1.078930
     15          6           0        3.946421   -0.282619   -1.111688
     16          1           0        4.098904    0.787888   -1.070410
     17          6           0        5.051423   -1.125655   -1.185112
     18          1           0        6.046610   -0.699742   -1.203276
     19          6           0        4.880153   -2.503480   -1.231680
     20          1           0        5.741333   -3.157873   -1.285865
     21          6           0        3.595566   -3.041219   -1.214581
     22          1           0        3.454374   -4.113674   -1.257512
     23          6           0        2.489300   -2.203240   -1.147469
     24          1           0        1.499400   -2.643462   -1.154391
     25          6           0       -0.097117   -0.429624    0.115134
     26          1           0       -0.028419   -1.508737   -0.049585
     27          6           0       -0.065591   -0.177956    1.626894
     28          1           0        0.101775    0.868305    1.863808
     29          1           0       -1.029266   -0.474346    2.048482
     30          6           0        1.018128   -0.986940    2.322327
     31          6           0       -2.553090    1.405111   -0.304863
     32          6           0       -1.924312    2.457358    0.367184
     33          1           0       -0.867841    2.419224    0.591404
     34          6           0       -2.649060    3.582153    0.746653
     35          1           0       -2.151040    4.383579    1.276505
     36          6           0       -4.003735    3.678028    0.447183
     37          1           0       -4.565723    4.554254    0.744747
     38          6           0       -4.632698    2.644217   -0.238171
     39          1           0       -5.686370    2.712421   -0.479910
     40          6           0       -3.914373    1.516240   -0.616022
     41          1           0       -4.423246    0.718139   -1.142244
     42          6           0       -2.710022   -1.502850   -0.695631
     43          6           0       -3.565090   -1.603320    0.407886
     44          1           0       -3.666510   -0.777201    1.100450
     45          6           0       -4.302830   -2.762019    0.616435
     46          1           0       -4.963052   -2.829924    1.471526
     47          6           0       -4.195006   -3.831284   -0.268741
     48          1           0       -4.775391   -4.730200   -0.105101
     49          6           0       -3.344222   -3.740783   -1.364366
     50          1           0       -3.258727   -4.569349   -2.055741
     51          6           0       -2.604469   -2.582088   -1.577909
     52          1           0       -1.938991   -2.517011   -2.430678
     53          8           0        0.696256   -2.288041    2.374538
     54          8           0        2.043964   -0.525302    2.761988
     55          6           0        1.655600   -3.162031    3.013871
     56          1           0        1.816882   -2.853180    4.044904
     57          1           0        1.213137   -4.152895    2.974321
     58          1           0        2.602628   -3.138003    2.475698
 ---------------------------------------------------------------------

 SCF Done:  E(RB3LYP) =  -1916.28454036     A.U. after   15 cycles

      1  P    Isotropic =   223.6253   Anisotropy =    90.3188

      2  P    Isotropic =   210.3861   Anisotropy =   100.5073

      3  C    Isotropic =    41.1900   Anisotropy =   194.9697

      4  C    Isotropic =    37.8181   Anisotropy =   184.9440

      5  H    Isotropic =    23.6830   Anisotropy =     8.1594

      6  C    Isotropic =    49.5577   Anisotropy =   184.9141

      7  H    Isotropic =    24.1321   Anisotropy =     5.0785

      8  C    Isotropic =    47.4806   Anisotropy =   191.8099

      9  H    Isotropic =    24.0291   Anisotropy =     3.9892

     10  C    Isotropic =    49.1679   Anisotropy =   185.8645

     11  H    Isotropic =    23.9609   Anisotropy =     6.3041

     12  C    Isotropic =    34.2011   Anisotropy =   200.8994

     13  H    Isotropic =    22.6594   Anisotropy =     8.9344

     14  C    Isotropic =    31.0109   Anisotropy =   197.4297

     15  C    Isotropic =    50.4163   Anisotropy =   182.5718

     16  H    Isotropic =    24.8968   Anisotropy =    13.0657

     17  C    Isotropic =    49.4092   Anisotropy =   183.5882

     18  H    Isotropic =    24.5709   Anisotropy =     6.2446

     19  C    Isotropic =    53.5393   Anisotropy =   179.0252

     20  H    Isotropic =    24.6504   Anisotropy =     4.1096

     21  C    Isotropic =    50.7052   Anisotropy =   182.0828

     22  H    Isotropic =    24.4342   Anisotropy =     6.2943

     23  C    Isotropic =    50.8447   Anisotropy =   184.2923

     24  H    Isotropic =    24.2900   Anisotropy =    10.0022

     25  C    Isotropic =   129.4548   Anisotropy =    13.8271

     26  H    Isotropic =    29.0740   Anisotropy =     3.6450

     27  C    Isotropic =   148.3628   Anisotropy =    34.2549

     28  H    Isotropic =    29.1000   Anisotropy =     3.6861

     29  H    Isotropic =    29.2471   Anisotropy =     4.9518

     30  C    Isotropic =     2.3332   Anisotropy =   101.8960

     31  C    Isotropic =    36.0614   Anisotropy =   187.6218

     32  C    Isotropic =    48.3079   Anisotropy =   181.8428

     33  H    Isotropic =    25.4626   Anisotropy =     7.1772

     34  C    Isotropic =    50.5540   Anisotropy =   183.2385

     35  H    Isotropic =    24.8836   Anisotropy =     8.2991

     36  C    Isotropic =    53.0911   Anisotropy =   180.9481

     37  H    Isotropic =    24.6817   Anisotropy =     4.5340

     38  C    Isotropic =    50.0155   Anisotropy =   183.5086

     39  H    Isotropic =    24.5003   Anisotropy =     5.4845

     40  C    Isotropic =    48.4237   Anisotropy =   183.9048

     41  H    Isotropic =    24.5811   Anisotropy =    11.6760

     42  C    Isotropic =    31.6415   Anisotropy =   209.2492

     43  C    Isotropic =    44.0353   Anisotropy =   186.9688

     44  H    Isotropic =    24.0634   Anisotropy =    11.2372

     45  C    Isotropic =    49.3148   Anisotropy =   184.6723

     46  H    Isotropic =    24.3231   Anisotropy =     6.3056

     47  C    Isotropic =    48.9999   Anisotropy =   188.8005

     48  H    Isotropic =    24.2119   Anisotropy =     4.2047

     49  C    Isotropic =    49.2308   Anisotropy =   184.9302

     50  H    Isotropic =    24.0603   Anisotropy =     5.3526

     51  C    Isotropic =    42.0102   Anisotropy =   180.1108

     52  H    Isotropic =    23.5575   Anisotropy =     8.9949

     53  O    Isotropic =   137.4265   Anisotropy =   150.2706

     54  O    Isotropic =  -102.2351   Anisotropy =   595.6485

     55  C    Isotropic =   128.3373   Anisotropy =    75.1481

     56  H    Isotropic =    28.5299   Anisotropy =     9.9377

     57  H    Isotropic =    28.8382   Anisotropy =     7.8760

     58  H    Isotropic =    28.8059   Anisotropy =     6.4390

 The electronic state is 1-A.
 Alpha  occ. eigenvalues --  -77.05354 -77.04971 -19.17975 -19.11816 -10.30516
 Alpha  occ. eigenvalues --  -10.23037 -10.20482 -10.19481 -10.18855 -10.18710
 Alpha  occ. eigenvalues --  -10.18557 -10.18408 -10.18401 -10.18373 -10.18269
 Alpha  occ. eigenvalues --  -10.18256 -10.18254 -10.18189 -10.18168 -10.17969
 Alpha  occ. eigenvalues --  -10.17815 -10.17793 -10.17756 -10.17708 -10.17691
 Alpha  occ. eigenvalues --  -10.17679 -10.17665 -10.17569 -10.17491 -10.17372
 Alpha  occ. eigenvalues --  -10.17254 -10.17217  -6.53896  -6.53530  -4.70050
 Alpha  occ. eigenvalues --   -4.70013  -4.69683  -4.69646  -4.69534  -4.69168
 Alpha  occ. eigenvalues --   -1.11299  -1.02510  -0.86651  -0.86338  -0.85927
 Alpha  occ. eigenvalues --   -0.85628  -0.81022  -0.76873  -0.76533  -0.75618
 Alpha  occ. eigenvalues --   -0.75274  -0.75111  -0.74902  -0.74781  -0.74476
 Alpha  occ. eigenvalues --   -0.73245  -0.68539  -0.64258  -0.61983  -0.61418
 Alpha  occ. eigenvalues --   -0.61063  -0.60940  -0.60487  -0.60309  -0.59992
 Alpha  occ. eigenvalues --   -0.57503  -0.56425  -0.55383  -0.52605  -0.52115
 Alpha  occ. eigenvalues --   -0.50960  -0.50749  -0.50459  -0.49178  -0.48310
 Alpha  occ. eigenvalues --   -0.46297  -0.46195  -0.45981  -0.45877  -0.45679
 Alpha  occ. eigenvalues --   -0.45458  -0.45194  -0.45099  -0.44331  -0.43212
 Alpha  occ. eigenvalues --   -0.43173  -0.42875  -0.42524  -0.42286  -0.42201
 Alpha  occ. eigenvalues --   -0.40986  -0.40690  -0.39151  -0.38504  -0.38129
 Alpha  occ. eigenvalues --   -0.37885  -0.37670  -0.37450  -0.37201  -0.36860
 Alpha  occ. eigenvalues --   -0.35619  -0.35451  -0.35052  -0.34951  -0.34614
 Alpha  occ. eigenvalues --   -0.32988  -0.32390  -0.31930  -0.31348  -0.28760
 Alpha  occ. eigenvalues --   -0.27856  -0.27105  -0.26805  -0.26692  -0.26363
 Alpha  occ. eigenvalues --   -0.25972  -0.25695  -0.25621  -0.22112  -0.18730
 Alpha virt. eigenvalues --   -0.03863  -0.03490  -0.02833  -0.02517  -0.02012
 Alpha virt. eigenvalues --   -0.01673  -0.01480  -0.00888  -0.00157   0.02136
 Alpha virt. eigenvalues --    0.03119   0.04331   0.04785   0.05212   0.05479

 Mulliken charges:
               1
     1  P    0.158431
     2  P    0.158062
     3  C   -0.034475
     4  C   -0.138041
     5  H    0.118555
     6  C   -0.104913
     7  H    0.111540
     8  C   -0.094884
     9  H    0.112116
    10  C   -0.118056
    11  H    0.114766
    12  C   -0.196956
    13  H    0.197273
    14  C    0.098236
    15  C   -0.171131
    16  H    0.141297
    17  C   -0.119792
    18  H    0.106338
    19  C   -0.107826
    20  H    0.105809
    21  C   -0.126660
    22  H    0.104831
    23  C   -0.213832
    24  H    0.110714
    25  C   -0.244815
    26  H    0.122000
    27  C   -0.168514
    28  H    0.126154
    29  H    0.115574
    30  C    0.335101
    31  C    0.054463
    32  C   -0.144446
    33  H    0.157079
    34  C   -0.163213
    35  H    0.108247
    36  C   -0.102508
    37  H    0.107293
    38  C   -0.113414
    39  H    0.108934
    40  C   -0.194871
    41  H    0.129457
    42  C    0.054739
    43  C   -0.194668
    44  H    0.140873
    45  C   -0.109096
    46  H    0.109837
    47  C   -0.103120
    48  H    0.111962
    49  C   -0.097834
    50  H    0.111526
    51  C   -0.198482
    52  H    0.120357
    53  O   -0.264417
    54  O   -0.341876
    55  C   -0.180649
    56  H    0.128622
    57  H    0.127132
    58  H    0.141174
 Sum of Mulliken charges =  -0.00000

 Dipole moment (field-independent basis, Debye):
    X=             -1.0092    Y=             -1.3294    Z=              1.8189  Tot=              2.4687
 Quadrupole moment (field-independent basis, Debye-Ang):
   XX=           -193.8435   YY=           -176.2796   ZZ=           -207.7682
   XY=              1.6445   XZ=             -2.3110   YZ=             -0.8361

 Summary of Natural Population Analysis:

                                       Natural Population
                Natural  -----------------------------------------------
    Atom  No    Charge         Core      Valence    Rydberg      Total
 -----------------------------------------------------------------------
      P    1    0.83431      9.99803     4.13548    0.03219    14.16569
      P    2    0.85328      9.99805     4.11686    0.03181    14.14672
      C    3   -0.35456      1.99900     4.32265    0.03292     6.35456
      C    4   -0.18562      1.99910     4.16611    0.02041     6.18562
      H    5    0.22171      0.00000     0.77678    0.00151     0.77829
      C    6   -0.21055      1.99918     4.19197    0.01940     6.21055
      H    7    0.21108      0.00000     0.78766    0.00126     0.78892
      C    8   -0.19326      1.99919     4.17515    0.01893     6.19326
      H    9    0.20879      0.00000     0.79003    0.00118     0.79121
      C   10   -0.20780      1.99919     4.18976    0.01885     6.20780
      H   11    0.21122      0.00000     0.78740    0.00138     0.78878
      C   12   -0.20203      1.99909     4.18281    0.02013     6.20203
      H   13    0.24062      0.00000     0.75733    0.00205     0.75938
      C   14   -0.31899      1.99899     4.28846    0.03153     6.31899
      C   15   -0.20810      1.99909     4.18947    0.01954     6.20810
      H   16    0.21511      0.00000     0.78312    0.00177     0.78489
      C   17   -0.19251      1.99918     4.17467    0.01865     6.19251
      H   18    0.20772      0.00000     0.79101    0.00127     0.79228
      C   19   -0.21742      1.99919     4.19861    0.01962     6.21742
      H   20    0.20716      0.00000     0.79167    0.00118     0.79284
      C   21   -0.19854      1.99919     4.18051    0.01885     6.19854
      H   22    0.20644      0.00000     0.79229    0.00127     0.79356
      C   23   -0.21516      1.99908     4.19650    0.01958     6.21516
      H   24    0.20024      0.00000     0.79786    0.00190     0.79976
      C   25   -0.75323      1.99937     4.72033    0.03353     6.75323
      H   26    0.25997      0.00000     0.73825    0.00179     0.74003
      C   27   -0.50778      1.99922     4.48886    0.01969     6.50778
      H   28    0.23088      0.00000     0.76693    0.00220     0.76912
      H   29    0.23151      0.00000     0.76584    0.00265     0.76849
      C   30    0.77918      1.99944     3.18571    0.03567     5.22082
      C   31   -0.33291      1.99899     4.30290    0.03102     6.33291
      C   32   -0.21514      1.99908     4.19623    0.01983     6.21514
      H   33    0.21139      0.00000     0.78656    0.00205     0.78861
      C   34   -0.19480      1.99919     4.17711    0.01851     6.19480
      H   35    0.20934      0.00000     0.78938    0.00127     0.79066
      C   36   -0.21417      1.99919     4.19548    0.01950     6.21417
      H   37    0.20791      0.00000     0.79091    0.00118     0.79209
      C   38   -0.19730      1.99918     4.17950    0.01862     6.19730
      H   39    0.20860      0.00000     0.79013    0.00127     0.79140
      C   40   -0.20781      1.99909     4.18909    0.01962     6.20781
      H   41    0.21366      0.00000     0.78456    0.00178     0.78634
      C   42   -0.33431      1.99900     4.30272    0.03258     6.33431
      C   43   -0.19906      1.99908     4.18003    0.01995     6.19906
      H   44    0.21294      0.00000     0.78476    0.00230     0.78706
      C   45   -0.20293      1.99919     4.18475    0.01900     6.20293
      H   46    0.20841      0.00000     0.79023    0.00136     0.79159
      C   47   -0.19887      1.99919     4.18058    0.01910     6.19887
      H   48    0.20897      0.00000     0.78986    0.00117     0.79103
      C   49   -0.20379      1.99918     4.18524    0.01937     6.20379
      H   50    0.21006      0.00000     0.78868    0.00126     0.78994
      C   51   -0.19740      1.99910     4.17790    0.02040     6.19740
      H   52    0.21693      0.00000     0.78152    0.00156     0.78307
      O   53   -0.48443      1.99973     6.46087    0.02383     8.48443
      O   54   -0.59274      1.99973     6.56651    0.02650     8.59274
      C   55   -0.25801      1.99926     4.24487    0.01388     6.25801
      H   56    0.18832      0.00000     0.80986    0.00182     0.81168
      H   57    0.18938      0.00000     0.80935    0.00128     0.81062
      H   58    0.19413      0.00000     0.80395    0.00192     0.80587
 =======================================================================
   * Total *    0.00000     79.97176   159.25362    0.77462   240.00000

 Normal termination of Gaussian 16 at Fri Jan 24 06:21:15 2025.
