 Gaussian 16, Revision B.01,
 Gaussian 16:  ES64L-G16RevB.01 20-Dec-2017

 --------------------------------------------
 # nmr=giao b3lyp/def2TZVP pop=nbo scfcyc=200
 --------------------------------------------

 --------------
 MS-27 SPE NoRh
 --------------
 Symbolic Z-matrix:
 Charge =  0 Multiplicity = 1

                         Standard orientation:
 ---------------------------------------------------------------------
 Center     Atomic      Atomic             Coordinates (Angstroms)
 Number     Number       Type             X           Y           Z
 ---------------------------------------------------------------------
      1         15           0       -1.405931   -0.250563   -1.139742
      2         15           0        1.401653   -0.280225   -1.135800
      3          7           0       -0.014613   -1.382022    2.351905
      4          6           0       -2.759022   -1.468812   -0.857178
      5          6           0       -3.902364   -1.362522   -1.659112
      6          1           0       -3.992761   -0.559657   -2.382244
      7          6           0       -4.944142   -2.270815   -1.522333
      8          1           0       -5.824793   -2.176128   -2.145427
      9          6           0       -4.855577   -3.297317   -0.586255
     10          1           0       -5.668107   -4.005631   -0.480072
     11          6           0       -3.727459   -3.405101    0.217088
     12          1           0       -3.658162   -4.194383    0.955163
     13          6           0       -2.678823   -2.496683    0.084993
     14          1           0       -1.821626   -2.592060    0.739239
     15          6           0       -2.156544    1.365094   -0.677146
     16          6           0       -3.049196    1.466552    0.395530
     17          1           0       -3.316086    0.588173    0.969426
     18          6           0       -3.609955    2.694835    0.723122
     19          1           0       -4.301462    2.764990    1.552764
     20          6           0       -3.288245    3.830620   -0.016046
     21          1           0       -3.732089    4.785337    0.238651
     22          6           0       -2.407280    3.735943   -1.087164
     23          1           0       -2.164521    4.615032   -1.671219
     24          6           0       -1.846723    2.507240   -1.420213
     25          1           0       -1.171416    2.431683   -2.263135
     26          6           0        2.164941    1.337445   -0.703524
     27          6           0        1.945770    2.444667   -1.525916
     28          1           0        1.326422    2.340498   -2.407959
     29          6           0        2.529671    3.671518   -1.224842
     30          1           0        2.358885    4.522940   -1.870866
     31          6           0        3.342650    3.797592   -0.103886
     32          1           0        3.803010    4.749450    0.126488
     33          6           0        3.574256    2.694538    0.715345
     34          1           0        4.215350    2.788344    1.582906
     35          6           0        2.992180    1.468652    0.417978
     36          1           0        3.192615    0.614797    1.052467
     37          6           0        2.747222   -1.500234   -0.819938
     38          6           0        2.632943   -2.545105    0.099377
     39          1           0        1.753304   -2.652734    0.719104
     40          6           0        3.676860   -3.454599    0.252983
     41          1           0        3.581327   -4.256733    0.973569
     42          6           0        4.835426   -3.331608   -0.504824
     43          1           0        5.643601   -4.041046   -0.381167
     44          6           0        4.956216   -2.287330   -1.418286
     45          1           0        5.859823   -2.180742   -2.005834
     46          6           0        3.919363   -1.378228   -1.576887
     47          1           0        4.036137   -0.560237   -2.279685
     48          6           0       -0.007981   -0.690580    0.060859
     49          1           0       -0.018128   -1.782108    0.011883
     50          6           0       -0.009985   -0.329528    1.517770
     51          6           0       -0.008783    0.986086    1.983029
     52          1           0       -0.006367    1.816006    1.292143
     53          6           0       -0.011844    1.210517    3.354643
     54          1           0       -0.012440    2.222564    3.741229
     55          6           0       -0.016077    0.123139    4.217096
     56          1           0       -0.018122    0.254640    5.291092
     57          6           0       -0.017018   -1.153434    3.665457
     58          1           0       -0.020810   -2.032279    4.300967
 ---------------------------------------------------------------------

 SCF Done:  E(RB3LYP) =  -1896.17123795     A.U. after   15 cycles

      1  P    Isotropic =   221.5401   Anisotropy =   108.3012

      2  P    Isotropic =   220.8300   Anisotropy =   108.9451

      3  N    Isotropic =   -93.1302   Anisotropy =   512.7189

      4  C    Isotropic =    32.3443   Anisotropy =   193.4929

      5  C    Isotropic =    47.4398   Anisotropy =   183.6586

      6  H    Isotropic =    24.6349   Anisotropy =    11.6277

      7  C    Isotropic =    50.0198   Anisotropy =   183.3785

      8  H    Isotropic =    24.5021   Anisotropy =     5.6201

      9  C    Isotropic =    52.4803   Anisotropy =   181.3066

     10  H    Isotropic =    24.5688   Anisotropy =     4.2659

     11  C    Isotropic =    49.8396   Anisotropy =   182.9409

     12  H    Isotropic =    24.2913   Anisotropy =     6.9634

     13  C    Isotropic =    47.6323   Anisotropy =   187.1777

     14  H    Isotropic =    23.1953   Anisotropy =    11.3904

     15  C    Isotropic =    37.0461   Anisotropy =   201.9789

     16  C    Isotropic =    38.0336   Anisotropy =   194.7012

     17  H    Isotropic =    25.1706   Anisotropy =     9.9610

     18  C    Isotropic =    49.7273   Anisotropy =   184.6861

     19  H    Isotropic =    24.7944   Anisotropy =     6.2789

     20  C    Isotropic =    48.9728   Anisotropy =   188.8027

     21  H    Isotropic =    24.4719   Anisotropy =     3.9905

     22  C    Isotropic =    51.1391   Anisotropy =   182.4112

     23  H    Isotropic =    24.2997   Anisotropy =     5.7793

     24  C    Isotropic =    40.3306   Anisotropy =   182.4477

     25  H    Isotropic =    23.3351   Anisotropy =     8.2337

     26  C    Isotropic =    37.2045   Anisotropy =   201.8723

     27  C    Isotropic =    39.8358   Anisotropy =   181.9622

     28  H    Isotropic =    23.2434   Anisotropy =     8.3130

     29  C    Isotropic =    51.1150   Anisotropy =   182.5079

     30  H    Isotropic =    24.2241   Anisotropy =     5.5486

     31  C    Isotropic =    48.7295   Anisotropy =   189.7370

     32  H    Isotropic =    24.4305   Anisotropy =     3.9894

     33  C    Isotropic =    49.7091   Anisotropy =   184.7575

     34  H    Isotropic =    24.7669   Anisotropy =     6.3592

     35  C    Isotropic =    37.1445   Anisotropy =   194.9726

     36  H    Isotropic =    25.1518   Anisotropy =     9.7153

     37  C    Isotropic =    31.5975   Anisotropy =   193.5557

     38  C    Isotropic =    48.3164   Anisotropy =   186.6848

     39  H    Isotropic =    23.2267   Anisotropy =    11.3778

     40  C    Isotropic =    49.9412   Anisotropy =   182.8097

     41  H    Isotropic =    24.3206   Anisotropy =     6.9465

     42  C    Isotropic =    52.6481   Anisotropy =   180.9415

     43  H    Isotropic =    24.6060   Anisotropy =     4.2575

     44  C    Isotropic =    50.0338   Anisotropy =   183.2801

     45  H    Isotropic =    24.5418   Anisotropy =     5.7075

     46  C    Isotropic =    47.9505   Anisotropy =   183.5080

     47  H    Isotropic =    24.7292   Anisotropy =    11.8597

     48  C    Isotropic =   132.6098   Anisotropy =    33.3894

     49  H    Isotropic =    26.6064   Anisotropy =     7.0009

     50  C    Isotropic =    17.6187   Anisotropy =   181.4940

     51  C    Isotropic =    52.9213   Anisotropy =   184.0701

     52  H    Isotropic =    26.9299   Anisotropy =     4.6447

     53  C    Isotropic =    43.7837   Anisotropy =   201.0832

     54  H    Isotropic =    24.8727   Anisotropy =     7.2547

     55  C    Isotropic =    58.9484   Anisotropy =   172.2703

     56  H    Isotropic =    24.8382   Anisotropy =     4.4089

     57  C    Isotropic =    27.7096   Anisotropy =   168.9539

     58  H    Isotropic =    22.9030   Anisotropy =     5.6669

 The electronic state is 1-A.
 Alpha  occ. eigenvalues --  -77.05168 -77.05156 -14.31667 -10.22414 -10.21170
 Alpha  occ. eigenvalues --  -10.19696 -10.19565 -10.18700 -10.18675 -10.18524
 Alpha  occ. eigenvalues --  -10.18444 -10.18431 -10.18422 -10.18385 -10.18371
 Alpha  occ. eigenvalues --  -10.18226 -10.18198 -10.18181 -10.18142 -10.18133
 Alpha  occ. eigenvalues --  -10.18092 -10.18089 -10.18039 -10.17446 -10.17369
 Alpha  occ. eigenvalues --  -10.17351 -10.17283 -10.17281 -10.17210 -10.17204
 Alpha  occ. eigenvalues --  -10.17174 -10.17121 -10.17098  -6.53705  -6.53691
 Alpha  occ. eigenvalues --   -4.69866  -4.69853  -4.69808  -4.69794  -4.69348
 Alpha  occ. eigenvalues --   -4.69334  -0.95196  -0.86579  -0.86475  -0.85536
 Alpha  occ. eigenvalues --   -0.85463  -0.81047  -0.79983  -0.76569  -0.76560
 Alpha  occ. eigenvalues --   -0.75579  -0.75477  -0.74731  -0.74614  -0.74530
 Alpha  occ. eigenvalues --   -0.74474  -0.71930  -0.64501  -0.64133  -0.63522
 Alpha  occ. eigenvalues --   -0.61449  -0.61302  -0.61234  -0.60473  -0.60156
 Alpha  occ. eigenvalues --   -0.60021  -0.59820  -0.56232  -0.55587  -0.52895
 Alpha  occ. eigenvalues --   -0.52198  -0.52073  -0.50397  -0.49881  -0.49221
 Alpha  occ. eigenvalues --   -0.47168  -0.46223  -0.46157  -0.45898  -0.45743
 Alpha  occ. eigenvalues --   -0.45430  -0.45065  -0.44763  -0.44580  -0.43671
 Alpha  occ. eigenvalues --   -0.43228  -0.42928  -0.42426  -0.42331  -0.41857
 Alpha  occ. eigenvalues --   -0.41233  -0.41026  -0.40901  -0.39237  -0.38571
 Alpha  occ. eigenvalues --   -0.38173  -0.37427  -0.37382  -0.37042  -0.36978
 Alpha  occ. eigenvalues --   -0.35542  -0.35220  -0.35155  -0.34706  -0.34344
 Alpha  occ. eigenvalues --   -0.33530  -0.32482  -0.32318  -0.29654  -0.27794
 Alpha  occ. eigenvalues --   -0.27163  -0.27059  -0.26824  -0.26650  -0.26503
 Alpha  occ. eigenvalues --   -0.26062  -0.25539  -0.25472  -0.25420  -0.22130
 Alpha  occ. eigenvalues --   -0.18801
 Alpha virt. eigenvalues --   -0.04132  -0.03960  -0.03592  -0.02860  -0.02314
 Alpha virt. eigenvalues --   -0.02266  -0.01739  -0.01416  -0.01074  -0.00413
 Alpha virt. eigenvalues --    0.02405   0.03729   0.04389   0.05117   0.05228

 Mulliken charges:
               1
     1  P    0.120053
     2  P    0.121175
     3  N   -0.312758
     4  C    0.057216
     5  C   -0.168166
     6  H    0.109705
     7  C   -0.113741
     8  H    0.106904
     9  C   -0.101118
    10  H    0.106281
    11  C   -0.146624
    12  H    0.106264
    13  C   -0.167999
    14  H    0.146036
    15  C   -0.037469
    16  C   -0.107791
    17  H    0.139281
    18  C   -0.129537
    19  H    0.109386
    20  C   -0.083495
    21  H    0.111022
    22  C   -0.133922
    23  H    0.107457
    24  C   -0.114744
    25  H    0.117387
    26  C   -0.024738
    27  C   -0.138046
    28  H    0.129599
    29  C   -0.126869
    30  H    0.108501
    31  C   -0.086629
    32  H    0.111463
    33  C   -0.121876
    34  H    0.109542
    35  C   -0.120905
    36  H    0.138464
    37  C    0.065735
    38  C   -0.172106
    39  H    0.141839
    40  C   -0.143626
    41  H    0.105911
    42  C   -0.103460
    43  H    0.106053
    44  C   -0.114873
    45  H    0.106309
    46  C   -0.170381
    47  H    0.111596
    48  C   -0.162486
    49  H    0.133680
    50  C    0.244921
    51  C   -0.233471
    52  H    0.165473
    53  C   -0.074321
    54  H    0.121477
    55  C   -0.114845
    56  H    0.114023
    57  C   -0.060795
    58  H    0.114039
 Sum of Mulliken charges =  -0.00000

 Dipole moment (field-independent basis, Debye):
    X=             -0.0204    Y=              2.8794    Z=              2.7988  Tot=              4.0156
 Quadrupole moment (field-independent basis, Debye-Ang):
   XX=           -197.9822   YY=           -192.1994   ZZ=           -200.2845
   XY=              0.7892   XZ=             -0.1594   YZ=             -4.9728

 Summary of Natural Population Analysis:

                                       Natural Population
                Natural  -----------------------------------------------
    Atom  No    Charge         Core      Valence    Rydberg      Total
 -----------------------------------------------------------------------
      P    1    0.85054      9.99803     4.12014    0.03129    14.14946
      P    2    0.85016      9.99804     4.12051    0.03129    14.14984
      N    3   -0.44584      1.99940     5.41298    0.03346     7.44584
      C    4   -0.32580      1.99900     4.29555    0.03125     6.32580
      C    5   -0.20063      1.99909     4.18186    0.01969     6.20063
      H    6    0.21024      0.00000     0.78802    0.00174     0.78976
      C    7   -0.19809      1.99918     4.18029    0.01861     6.19809
      H    8    0.20806      0.00000     0.79068    0.00127     0.79194
      C    9   -0.21215      1.99918     4.19357    0.01939     6.21215
      H   10    0.20712      0.00000     0.79170    0.00118     0.79288
      C   11   -0.19612      1.99919     4.17827    0.01867     6.19612
      H   12    0.20738      0.00000     0.79134    0.00128     0.79262
      C   13   -0.21905      1.99908     4.20038    0.01959     6.21905
      H   14    0.21904      0.00000     0.77875    0.00221     0.78096
      C   15   -0.34008      1.99898     4.30895    0.03214     6.34008
      C   16   -0.18489      1.99908     4.16622    0.01959     6.18489
      H   17    0.21687      0.00000     0.78090    0.00222     0.78313
      C   18   -0.20528      1.99919     4.18741    0.01869     6.20528
      H   19    0.20906      0.00000     0.78961    0.00132     0.79094
      C   20   -0.19634      1.99919     4.17813    0.01902     6.19634
      H   21    0.20867      0.00000     0.79016    0.00117     0.79133
      C   22   -0.20757      1.99918     4.18971    0.01868     6.20757
      H   23    0.20959      0.00000     0.78913    0.00127     0.79041
      C   24   -0.19033      1.99909     4.17131    0.01993     6.19033
      H   25    0.21334      0.00000     0.78475    0.00191     0.78666
      C   26   -0.34117      1.99898     4.30997    0.03222     6.34117
      C   27   -0.18986      1.99909     4.17070    0.02008     6.18986
      H   28    0.21358      0.00000     0.78455    0.00187     0.78642
      C   29   -0.20816      1.99918     4.19030    0.01868     6.20816
      H   30    0.20954      0.00000     0.78919    0.00127     0.79046
      C   31   -0.19511      1.99919     4.17696    0.01896     6.19511
      H   32    0.20875      0.00000     0.79008    0.00117     0.79125
      C   33   -0.20591      1.99919     4.18806    0.01867     6.20591
      H   34    0.20917      0.00000     0.78951    0.00133     0.79083
      C   35   -0.18353      1.99908     4.16482    0.01962     6.18353
      H   36    0.21687      0.00000     0.78091    0.00222     0.78313
      C   37   -0.32430      1.99900     4.29403    0.03127     6.32430
      C   38   -0.21942      1.99908     4.20076    0.01958     6.21942
      H   39    0.21842      0.00000     0.77940    0.00218     0.78158
      C   40   -0.19555      1.99919     4.17771    0.01865     6.19555
      H   41    0.20705      0.00000     0.79167    0.00128     0.79295
      C   42   -0.21304      1.99919     4.19447    0.01938     6.21304
      H   43    0.20699      0.00000     0.79184    0.00117     0.79301
      C   44   -0.19779      1.99918     4.17999    0.01862     6.19779
      H   45    0.20776      0.00000     0.79097    0.00127     0.79224
      C   46   -0.20201      1.99908     4.18324    0.01969     6.20201
      H   47    0.20996      0.00000     0.78829    0.00175     0.79004
      C   48   -0.80447      1.99926     4.76838    0.03683     6.80447
      H   49    0.27566      0.00000     0.72173    0.00261     0.72434
      C   50    0.17892      1.99904     3.79329    0.02875     5.82108
      C   51   -0.23575      1.99902     4.21651    0.02023     6.23575
      H   52    0.22758      0.00000     0.77018    0.00224     0.77242
      C   53   -0.15941      1.99919     4.14113    0.01909     6.15941
      H   54    0.21286      0.00000     0.78587    0.00126     0.78714
      C   55   -0.25917      1.99915     4.24044    0.01958     6.25917
      H   56    0.21402      0.00000     0.78481    0.00118     0.78598
      C   57    0.04036      1.99924     3.93574    0.02466     5.95964
      H   58    0.18927      0.00000     0.80939    0.00134     0.81073
 =======================================================================
   * Total *    0.00000     81.96922   159.23523    0.79554   242.00000

 Normal termination of Gaussian 16 at Fri Jan 24 06:54:07 2025.
