 Gaussian 16, Revision B.01,
 Gaussian 16:  ES64L-G16RevB.01 20-Dec-2017

 --------------------------------------------
 # nmr=giao b3lyp/def2TZVP pop=nbo scfcyc=200
 --------------------------------------------

 --------------
 MS-26 SPE NoRh
 --------------
 Symbolic Z-matrix:
 Charge =  0 Multiplicity = 1

                         Standard orientation:
 ---------------------------------------------------------------------
 Center     Atomic      Atomic             Coordinates (Angstroms)
 Number     Number       Type             X           Y           Z
 ---------------------------------------------------------------------
      1         15           0       -1.346764    0.137694   -0.907305
      2         15           0        1.489215    0.170550   -1.014486
      3          6           0        0.115668    0.479585    0.267813
      4          1           0        0.118734    1.571612    0.266049
      5          6           0       -2.673776    1.405008   -0.462854
      6          1           0       -2.907416    1.218539    0.591164
      7          6           0       -2.178697    2.856045   -0.596687
      8          1           0       -1.300759    3.028593    0.030332
      9          1           0       -1.864931    3.043379   -1.628320
     10          6           0       -3.271613    3.861839   -0.205568
     11          1           0       -2.894989    4.877711   -0.346202
     12          1           0       -3.491353    3.757001    0.862772
     13          6           0       -4.555856    3.650227   -1.009339
     14          1           0       -5.330197    4.343048   -0.672465
     15          1           0       -4.368731    3.884928   -2.063611
     16          6           0       -5.047924    2.207203   -0.889674
     17          1           0       -5.931686    2.050494   -1.513349
     18          1           0       -5.357764    2.011907    0.143443
     19          6           0       -3.960062    1.199629   -1.287743
     20          1           0       -3.737145    1.320216   -2.352784
     21          1           0       -4.342744    0.186838   -1.165076
     22          6           0       -2.037633   -1.555900   -0.436797
     23          1           0       -1.133873   -2.111013   -0.170205
     24          6           0       -2.678142   -2.298516   -1.625201
     25          1           0       -3.565452   -1.758293   -1.972029
     26          1           0       -1.978575   -2.327292   -2.463164
     27          6           0       -3.081675   -3.726117   -1.230686
     28          1           0       -3.574857   -4.211995   -2.076093
     29          1           0       -2.177496   -4.309766   -1.022562
     30          6           0       -3.990767   -3.744865    0.001570
     31          1           0       -4.949288   -3.274141   -0.245332
     32          1           0       -4.217808   -4.774709    0.285227
     33          6           0       -3.348321   -3.001821    1.176370
     34          1           0       -2.454101   -3.542582    1.506081
     35          1           0       -4.028854   -2.977824    2.030638
     36          6           0       -2.960626   -1.565345    0.796566
     37          1           0       -3.874048   -1.003057    0.583220
     38          1           0       -2.477419   -1.077800    1.643619
     39          6           0        2.705874    1.590099   -0.777406
     40          1           0        3.488066    1.375120   -1.513534
     41          6           0        3.349424    1.641851    0.620599
     42          1           0        3.807045    0.685605    0.878847
     43          1           0        2.573983    1.825637    1.370306
     44          6           0        4.404184    2.756229    0.698971
     45          1           0        4.814663    2.795741    1.710281
     46          1           0        5.239417    2.509658    0.034382
     47          6           0        3.825989    4.118247    0.304517
     48          1           0        4.610789    4.877718    0.314044
     49          1           0        3.085820    4.428198    1.052112
     50          6           0        3.159514    4.064003   -1.073160
     51          1           0        3.920919    3.885270   -1.840143
     52          1           0        2.699039    5.025475   -1.312684
     53          6           0        2.099836    2.955644   -1.147339
     54          1           0        1.289776    3.204197   -0.452493
     55          1           0        1.654435    2.916659   -2.143609
     56          6           0        2.482353   -1.391353   -0.631275
     57          1           0        2.625711   -1.398213    0.453314
     58          6           0        1.729279   -2.668106   -1.047288
     59          1           0        1.537225   -2.634895   -2.123793
     60          1           0        0.750083   -2.719345   -0.569568
     61          6           0        2.528167   -3.934404   -0.711176
     62          1           0        2.630728   -4.021208    0.376633
     63          1           0        1.970554   -4.814537   -1.041762
     64          6           0        3.917311   -3.909175   -1.351810
     65          1           0        4.488899   -4.790753   -1.053233
     66          1           0        3.815352   -3.958975   -2.442211
     67          6           0        4.673186   -2.635928   -0.968734
     68          1           0        5.638108   -2.595617   -1.478747
     69          1           0        4.891417   -2.650725    0.105608
     70          6           0        3.874372   -1.365584   -1.298166
     71          1           0        3.763749   -1.285348   -2.385050
     72          1           0        4.446844   -0.495647   -0.975342
     73          6           0        0.139527    0.050171    1.711626
     74          6           0       -0.104787    1.012454    2.700932
     75          6           0        0.381287   -1.264347    2.127163
     76          6           0       -0.115447    0.677608    4.049376
     77          1           0       -0.288805    2.041475    2.412323
     78          6           0        0.375606   -1.601460    3.475876
     79          1           0        0.572800   -2.040454    1.400822
     80          6           0        0.126227   -0.634804    4.443429
     81          1           0       -0.308000    1.441869    4.791735
     82          1           0        0.567709   -2.625570    3.771451
     83          1           0        0.122783   -0.899473    5.492400
 ---------------------------------------------------------------------

 SCF Done:  E(RB3LYP) =  -1894.61900372     A.U. after   14 cycles

      1  P    Isotropic =   199.9781   Anisotropy =   138.1517

      2  P    Isotropic =   202.1112   Anisotropy =   109.1354

      3  C    Isotropic =   141.2698   Anisotropy =    30.4988

      4  H    Isotropic =    28.7286   Anisotropy =     4.6771

      5  C    Isotropic =   143.7971   Anisotropy =    20.6571

      6  H    Isotropic =    30.0629   Anisotropy =     5.2448

      7  C    Isotropic =   149.5647   Anisotropy =     9.2308

      8  H    Isotropic =    29.8987   Anisotropy =     9.0408

      9  H    Isotropic =    30.5907   Anisotropy =     5.2615

     10  C    Isotropic =   151.5249   Anisotropy =     8.2211

     11  H    Isotropic =    30.0252   Anisotropy =     9.3198

     12  H    Isotropic =    30.4935   Anisotropy =     7.1544

     13  C    Isotropic =   152.8559   Anisotropy =     3.5788

     14  H    Isotropic =    30.2202   Anisotropy =    10.9280

     15  H    Isotropic =    30.5959   Anisotropy =     8.6214

     16  C    Isotropic =   152.1863   Anisotropy =     6.8708

     17  H    Isotropic =    30.2273   Anisotropy =    10.3545

     18  H    Isotropic =    30.6405   Anisotropy =     7.1248

     19  C    Isotropic =   149.7046   Anisotropy =    12.6702

     20  H    Isotropic =    30.8651   Anisotropy =     5.2414

     21  H    Isotropic =    30.4865   Anisotropy =     8.9368

     22  C    Isotropic =   145.1416   Anisotropy =    11.5119

     23  H    Isotropic =    30.0934   Anisotropy =     8.8227

     24  C    Isotropic =   145.8331   Anisotropy =    19.8630

     25  H    Isotropic =    30.7118   Anisotropy =     5.9193

     26  H    Isotropic =    29.9780   Anisotropy =     5.7440

     27  C    Isotropic =   150.3666   Anisotropy =     7.1726

     28  H    Isotropic =    30.1836   Anisotropy =    10.4525

     29  H    Isotropic =    30.6008   Anisotropy =     6.8076

     30  C    Isotropic =   153.0750   Anisotropy =     2.7007

     31  H    Isotropic =    30.8800   Anisotropy =     8.9643

     32  H    Isotropic =    30.3782   Anisotropy =    10.8799

     33  C    Isotropic =   151.0169   Anisotropy =     8.8892

     34  H    Isotropic =    30.9406   Anisotropy =     5.9534

     35  H    Isotropic =    30.5662   Anisotropy =     9.4387

     36  C    Isotropic =   152.0987   Anisotropy =     9.7086

     37  H    Isotropic =    31.0282   Anisotropy =     6.5567

     38  H    Isotropic =    31.3410   Anisotropy =     9.7438

     39  C    Isotropic =   137.2731   Anisotropy =    29.3773

     40  H    Isotropic =    30.5889   Anisotropy =     5.1278

     41  C    Isotropic =   150.5433   Anisotropy =    11.4570

     42  H    Isotropic =    30.5509   Anisotropy =     6.4749

     43  H    Isotropic =    31.0407   Anisotropy =     9.2962

     44  C    Isotropic =   151.5387   Anisotropy =     8.6642

     45  H    Isotropic =    30.4715   Anisotropy =     9.4306

     46  H    Isotropic =    30.9698   Anisotropy =     8.4086

     47  C    Isotropic =   152.3097   Anisotropy =     3.0649

     48  H    Isotropic =    30.2984   Anisotropy =    11.0715

     49  H    Isotropic =    30.7188   Anisotropy =     7.2138

     50  C    Isotropic =   151.1535   Anisotropy =     7.3276

     51  H    Isotropic =    30.6138   Anisotropy =     8.7354

     52  H    Isotropic =    30.0925   Anisotropy =     9.7005

     53  C    Isotropic =   148.3827   Anisotropy =     9.5687

     54  H    Isotropic =    30.5433   Anisotropy =     7.9427

     55  H    Isotropic =    29.9557   Anisotropy =     6.1751

     56  C    Isotropic =   145.4735   Anisotropy =    13.8465

     57  H    Isotropic =    29.8478   Anisotropy =     4.4382

     58  C    Isotropic =   147.2475   Anisotropy =    15.6477

     59  H    Isotropic =    30.3329   Anisotropy =     4.6942

     60  H    Isotropic =    29.6731   Anisotropy =    10.7778

     61  C    Isotropic =   152.0193   Anisotropy =     7.5956

     62  H    Isotropic =    30.3805   Anisotropy =     6.7685

     63  H    Isotropic =    30.0172   Anisotropy =     9.0338

     64  C    Isotropic =   153.0929   Anisotropy =     3.1367

     65  H    Isotropic =    30.1693   Anisotropy =    10.8620

     66  H    Isotropic =    30.5334   Anisotropy =     8.6849

     67  C    Isotropic =   151.2014   Anisotropy =     7.8801

     68  H    Isotropic =    30.1356   Anisotropy =    10.4691

     69  H    Isotropic =    30.5686   Anisotropy =     7.2077

     70  C    Isotropic =   152.1066   Anisotropy =     9.1499

     71  H    Isotropic =    30.8160   Anisotropy =     6.0640

     72  H    Isotropic =    30.5026   Anisotropy =     8.5693

     73  C    Isotropic =    33.4198   Anisotropy =   197.2249

     74  C    Isotropic =    48.2197   Anisotropy =   156.2282

     75  C    Isotropic =    50.1802   Anisotropy =   176.7076

     76  C    Isotropic =    49.1981   Anisotropy =   183.1351

     77  H    Isotropic =    24.5758   Anisotropy =     8.5965

     78  C    Isotropic =    49.8201   Anisotropy =   183.8643

     79  H    Isotropic =    24.6492   Anisotropy =     6.1982

     80  C    Isotropic =    53.8506   Anisotropy =   180.7482

     81  H    Isotropic =    24.3726   Anisotropy =     5.6565

     82  H    Isotropic =    24.3451   Anisotropy =     6.7102

     83  H    Isotropic =    24.5580   Anisotropy =     3.7819

 The electronic state is 1-A.
 Alpha  occ. eigenvalues --  -77.03117 -77.03095 -10.19072 -10.18668 -10.17705
 Alpha  occ. eigenvalues --  -10.17698 -10.17528 -10.17425 -10.17418 -10.17411
 Alpha  occ. eigenvalues --  -10.17179 -10.17063 -10.16934 -10.16711 -10.16631
 Alpha  occ. eigenvalues --  -10.16570 -10.16482 -10.16454 -10.16403 -10.16363
 Alpha  occ. eigenvalues --  -10.16309 -10.16300 -10.16263 -10.16203 -10.16166
 Alpha  occ. eigenvalues --  -10.16139 -10.16120 -10.16070 -10.16068 -10.16037
 Alpha  occ. eigenvalues --  -10.15986 -10.15925 -10.15882  -6.51668  -6.51630
 Alpha  occ. eigenvalues --   -4.67839  -4.67795  -4.67752  -4.67711  -4.67298
 Alpha  occ. eigenvalues --   -4.67270  -0.86294  -0.83506  -0.83266  -0.82860
 Alpha  occ. eigenvalues --   -0.82639  -0.78333  -0.75326  -0.75116  -0.74974
 Alpha  occ. eigenvalues --   -0.74318  -0.74172  -0.74033  -0.73831  -0.73533
 Alpha  occ. eigenvalues --   -0.73362  -0.69937  -0.63220  -0.62544  -0.61408
 Alpha  occ. eigenvalues --   -0.61049  -0.60838  -0.60752  -0.60698  -0.60075
 Alpha  occ. eigenvalues --   -0.59963  -0.59183  -0.55814  -0.55679  -0.55355
 Alpha  occ. eigenvalues --   -0.55250  -0.53382  -0.52817  -0.50388  -0.47950
 Alpha  occ. eigenvalues --   -0.47498  -0.47223  -0.46651  -0.46490  -0.45702
 Alpha  occ. eigenvalues --   -0.44569  -0.44218  -0.44161  -0.44079  -0.43949
 Alpha  occ. eigenvalues --   -0.43829  -0.43666  -0.43579  -0.43282  -0.42974
 Alpha  occ. eigenvalues --   -0.42612  -0.42284  -0.41597  -0.40823  -0.38970
 Alpha  occ. eigenvalues --   -0.38391  -0.38231  -0.38108  -0.37867  -0.37806
 Alpha  occ. eigenvalues --   -0.37726  -0.37691  -0.37365  -0.37005  -0.35782
 Alpha  occ. eigenvalues --   -0.35734  -0.35469  -0.35143  -0.34824  -0.34683
 Alpha  occ. eigenvalues --   -0.34579  -0.34489  -0.34359  -0.34103  -0.34052
 Alpha  occ. eigenvalues --   -0.33954  -0.33204  -0.32167  -0.32036  -0.31825
 Alpha  occ. eigenvalues --   -0.31758  -0.30939  -0.30404  -0.30264  -0.30084
 Alpha  occ. eigenvalues --   -0.29950  -0.29615  -0.27522  -0.27316  -0.25983
 Alpha  occ. eigenvalues --   -0.23952  -0.21525  -0.17358
 Alpha virt. eigenvalues --   -0.01894  -0.01715   0.01333   0.01978   0.02470
 Alpha virt. eigenvalues --    0.03203   0.03657   0.04187   0.04377   0.04517
 Alpha virt. eigenvalues --    0.05079   0.05517   0.05820   0.06153   0.06350

 Mulliken charges:
               1
     1  P    0.135592
     2  P    0.125683
     3  C   -0.153630
     4  H    0.040468
     5  C   -0.055853
     6  H    0.075638
     7  C   -0.221182
     8  H    0.078975
     9  H    0.095714
    10  C   -0.156529
    11  H    0.091439
    12  H    0.077618
    13  C   -0.155641
    14  H    0.090595
    15  H    0.078222
    16  C   -0.157998
    17  H    0.091735
    18  H    0.079367
    19  C   -0.207403
    20  H    0.090214
    21  H    0.093369
    22  C   -0.009051
    23  H    0.000012
    24  C   -0.197019
    25  H    0.088523
    26  H    0.103793
    27  C   -0.169083
    28  H    0.092035
    29  H    0.080093
    30  C   -0.149458
    31  H    0.073697
    32  H    0.090664
    33  C   -0.174135
    34  H    0.082019
    35  H    0.088230
    36  C   -0.253705
    37  H    0.088473
    38  H    0.135460
    39  C   -0.082374
    40  H    0.076135
    41  C   -0.225426
    42  H    0.102971
    43  H    0.104377
    44  C   -0.158769
    45  H    0.090245
    46  H    0.078910
    47  C   -0.158219
    48  H    0.091245
    49  H    0.073171
    50  C   -0.156612
    51  H    0.080615
    52  H    0.091646
    53  C   -0.207898
    54  H    0.071448
    55  H    0.110281
    56  C   -0.078829
    57  H    0.094186
    58  C   -0.215452
    59  H    0.097221
    60  H    0.093327
    61  C   -0.168035
    62  H    0.079161
    63  H    0.093744
    64  C   -0.149682
    65  H    0.091150
    66  H    0.078270
    67  C   -0.153173
    68  H    0.092897
    69  H    0.078637
    70  C   -0.243195
    71  H    0.092748
    72  H    0.105965
    73  C    0.146258
    74  C   -0.187440
    75  C   -0.233312
    76  C   -0.106698
    77  H    0.106224
    78  C   -0.111642
    79  H    0.117088
    80  C   -0.123900
    81  H    0.105865
    82  H    0.104189
    83  H    0.105742
 Sum of Mulliken charges =  -0.00000

 Dipole moment (field-independent basis, Debye):
    X=              0.2384    Y=             -0.0289    Z=              1.5049  Tot=              1.5239
 Quadrupole moment (field-independent basis, Debye-Ang):
   XX=           -220.5496   YY=           -217.4265   ZZ=           -226.4487
   XY=             -2.1673   XZ=             -1.1364   YZ=              0.6796

 Summary of Natural Population Analysis:

                                       Natural Population
                Natural  -----------------------------------------------
    Atom  No    Charge         Core      Valence    Rydberg      Total
 -----------------------------------------------------------------------
      P    1    0.83694      9.99843     4.13306    0.03157    14.16306
      P    2    0.82686      9.99844     4.14290    0.03180    14.17314
      C    3   -0.80270      1.99929     4.76993    0.03348     6.80270
      H    4    0.24942      0.00000     0.74732    0.00326     0.75058
      C    5   -0.49406      1.99938     4.47002    0.02467     6.49406
      H    6    0.19746      0.00000     0.79822    0.00431     0.80254
      C    7   -0.38655      1.99938     4.37290    0.01428     6.38655
      H    8    0.19117      0.00000     0.80709    0.00173     0.80883
      H    9    0.19512      0.00000     0.80229    0.00259     0.80488
      C   10   -0.37935      1.99942     4.36652    0.01342     6.37935
      H   11    0.20061      0.00000     0.79801    0.00138     0.79939
      H   12    0.18702      0.00000     0.81117    0.00181     0.81298
      C   13   -0.38554      1.99942     4.37295    0.01317     6.38554
      H   14    0.20086      0.00000     0.79778    0.00136     0.79914
      H   15    0.18835      0.00000     0.80981    0.00184     0.81165
      C   16   -0.38018      1.99942     4.36735    0.01340     6.38018
      H   17    0.20101      0.00000     0.79760    0.00139     0.79899
      H   18    0.18697      0.00000     0.81121    0.00182     0.81303
      C   19   -0.39103      1.99938     4.37672    0.01493     6.39103
      H   20    0.19442      0.00000     0.80306    0.00253     0.80558
      H   21    0.19953      0.00000     0.79849    0.00198     0.80047
      C   22   -0.48883      1.99937     4.46464    0.02482     6.48883
      H   23    0.20895      0.00000     0.78854    0.00251     0.79105
      C   24   -0.38952      1.99938     4.37533    0.01481     6.38952
      H   25    0.18829      0.00000     0.80963    0.00208     0.81171
      H   26    0.21281      0.00000     0.78547    0.00171     0.78719
      C   27   -0.38235      1.99942     4.36953    0.01340     6.38235
      H   28    0.20183      0.00000     0.79681    0.00136     0.79817
      H   29    0.18579      0.00000     0.81249    0.00172     0.81421
      C   30   -0.38624      1.99943     4.37353    0.01328     6.38624
      H   31    0.18637      0.00000     0.81187    0.00176     0.81363
      H   32    0.20038      0.00000     0.79827    0.00135     0.79962
      C   33   -0.37980      1.99942     4.36721    0.01316     6.37980
      H   34    0.18360      0.00000     0.81447    0.00192     0.81640
      H   35    0.19993      0.00000     0.79859    0.00148     0.80007
      C   36   -0.39747      1.99938     4.38425    0.01384     6.39747
      H   37    0.18615      0.00000     0.81154    0.00231     0.81385
      H   38    0.21176      0.00000     0.78619    0.00204     0.78824
      C   39   -0.48188      1.99938     4.45799    0.02451     6.48188
      H   40    0.21257      0.00000     0.78495    0.00248     0.78743
      C   41   -0.39937      1.99938     4.38565    0.01433     6.39937
      H   42    0.19835      0.00000     0.79970    0.00195     0.80165
      H   43    0.19336      0.00000     0.80433    0.00231     0.80664
      C   44   -0.38302      1.99943     4.37023    0.01337     6.38302
      H   45    0.20020      0.00000     0.79834    0.00147     0.79980
      H   46    0.18521      0.00000     0.81298    0.00182     0.81479
      C   47   -0.38559      1.99943     4.37286    0.01331     6.38559
      H   48    0.20124      0.00000     0.79742    0.00135     0.79876
      H   49    0.18599      0.00000     0.81217    0.00184     0.81401
      C   50   -0.38056      1.99942     4.36760    0.01353     6.38056
      H   51    0.18784      0.00000     0.81036    0.00181     0.81216
      H   52    0.20133      0.00000     0.79731    0.00136     0.79867
      C   53   -0.38953      1.99938     4.37549    0.01466     6.38953
      H   54    0.17935      0.00000     0.81841    0.00223     0.82065
      H   55    0.21449      0.00000     0.78375    0.00176     0.78551
      C   56   -0.49197      1.99937     4.46815    0.02445     6.49197
      H   57    0.20353      0.00000     0.79237    0.00411     0.79647
      C   58   -0.38990      1.99937     4.37565    0.01487     6.38990
      H   59    0.19944      0.00000     0.79805    0.00251     0.80056
      H   60    0.19253      0.00000     0.80548    0.00199     0.80747
      C   61   -0.38224      1.99942     4.36951    0.01330     6.38224
      H   62    0.18659      0.00000     0.81161    0.00179     0.81341
      H   63    0.20192      0.00000     0.79670    0.00138     0.79808
      C   64   -0.38521      1.99942     4.37266    0.01312     6.38521
      H   65    0.20126      0.00000     0.79738    0.00136     0.79874
      H   66    0.18875      0.00000     0.80943    0.00182     0.81125
      C   67   -0.37939      1.99942     4.36652    0.01345     6.37939
      H   68    0.20142      0.00000     0.79719    0.00139     0.79858
      H   69    0.18750      0.00000     0.81071    0.00179     0.81250
      C   70   -0.38907      1.99938     4.37495    0.01475     6.38907
      H   71    0.19265      0.00000     0.80489    0.00246     0.80735
      H   72    0.20126      0.00000     0.79684    0.00191     0.79874
      C   73   -0.03924      1.99902     4.01430    0.02592     6.03924
      C   74   -0.21272      1.99908     4.19481    0.01883     6.21272
      C   75   -0.22132      1.99905     4.20270    0.01957     6.22132
      C   76   -0.19637      1.99919     4.17873    0.01845     6.19637
      H   77    0.20013      0.00000     0.79816    0.00171     0.79987
      C   78   -0.19582      1.99919     4.17760    0.01902     6.19582
      H   79    0.20421      0.00000     0.79315    0.00264     0.79579
      C   80   -0.21891      1.99919     4.20032    0.01941     6.21891
      H   81    0.20781      0.00000     0.79095    0.00125     0.79219
      H   82    0.20715      0.00000     0.79158    0.00127     0.79285
      H   83    0.20805      0.00000     0.79080    0.00115     0.79195
 =======================================================================
   * Total *    0.00000     81.97648   183.33347    0.69006   266.00000

 Normal termination of Gaussian 16 at Fri Jan 24 06:49:36 2025.
