 Gaussian 16, Revision B.01,
 Gaussian 16:  ES64L-G16RevB.01 20-Dec-2017

 --------------------------------------------
 # nmr=giao b3lyp/def2TZVP pop=nbo scfcyc=200
 --------------------------------------------

 --------------
 MS-22 SPE NoRh
 --------------
 Symbolic Z-matrix:
 Charge =  0 Multiplicity = 1

                         Standard orientation:
 ---------------------------------------------------------------------
 Center     Atomic      Atomic             Coordinates (Angstroms)
 Number     Number       Type             X           Y           Z
 ---------------------------------------------------------------------
      1         15           0        1.248298    0.303608   -1.066946
      2         15           0       -1.546940    0.095060   -1.010883
      3          6           0        1.984339    1.867390   -0.435313
      4          6           0        1.776735    3.056692   -1.139666
      5          1           0        1.189033    3.045330   -2.048403
      6          6           0        2.316741    4.252837   -0.675911
      7          1           0        2.153952    5.168314   -1.230468
      8          6           0        3.066840    4.268286    0.495151
      9          1           0        3.491227    5.198349    0.854264
     10          6           0        3.273776    3.088590    1.204915
     11          1           0        3.856565    3.099443    2.116907
     12          6           0        2.735581    1.891150    0.746454
     13          1           0        2.891597    0.978195    1.307156
     14          6           0        2.608128   -0.940475   -1.088288
     15          6           0        3.941439   -0.543188   -1.222652
     16          1           0        4.203040    0.506119   -1.216808
     17          6           0        4.948682   -1.494950   -1.355945
     18          1           0        5.977648   -1.172970   -1.451836
     19          6           0        4.636157   -2.849099   -1.362263
     20          1           0        5.421231   -3.588270   -1.463699
     21          6           0        3.308792   -3.251387   -1.243053
     22          1           0        3.057135   -4.305203   -1.250568
     23          6           0        2.299440   -2.305097   -1.114720
     24          1           0        1.273968   -2.642555   -1.032873
     25          6           0       -0.090963   -0.250778    0.147644
     26          1           0       -0.041621   -1.343326    0.153093
     27          6           0       -0.108396    0.186795    1.609863
     28          1           0        0.080185    1.255578    1.708518
     29          1           0       -1.118091    0.006663    2.006155
     30          6           0       -2.526071    1.547331   -0.437368
     31          6           0       -1.890845    2.682962    0.076462
     32          1           0       -0.818284    2.700375    0.218630
     33          6           0       -2.627717    3.816397    0.400207
     34          1           0       -2.122380    4.684000    0.808134
     35          6           0       -4.003524    3.840919    0.197339
     36          1           0       -4.575058    4.724762    0.449575
     37          6           0       -4.639615    2.725200   -0.335875
     38          1           0       -5.709225    2.737537   -0.504258
     39          6           0       -3.907995    1.586304   -0.655193
     40          1           0       -4.422931    0.728214   -1.067519
     41          6           0       -2.640854   -1.375253   -0.815544
     42          6           0       -3.475265   -1.533614    0.298093
     43          1           0       -3.556776   -0.747468    1.038086
     44          6           0       -4.217656   -2.696736    0.455870
     45          1           0       -4.864033   -2.807295    1.317089
     46          6           0       -4.134264   -3.716411   -0.489544
     47          1           0       -4.716877   -4.619950   -0.363919
     48          6           0       -3.301377   -3.570614   -1.592702
     49          1           0       -3.231863   -4.360527   -2.329890
     50          6           0       -2.557224   -2.405931   -1.756176
     51          1           0       -1.903625   -2.298551   -2.612523
     52          7           0        0.658946   -1.887327    2.553926
     53          6           0       -0.264289   -2.134542    3.662431
     54          1           0       -0.479067   -3.201234    3.722997
     55          1           0        0.150380   -1.808423    4.629896
     56          1           0       -1.206961   -1.614767    3.493515
     57          6           0        1.918227   -2.604544    2.734523
     58          1           0        2.566443   -2.416232    1.881491
     59          1           0        2.446209   -2.302049    3.653677
     60          1           0        1.713349   -3.673955    2.796704
     61          7           0        0.932039   -0.498949    2.369091
     62          1           0        1.064609   -0.035586    3.270779
 ---------------------------------------------------------------------

 SCF Done:  E(RB3LYP) =  -1877.66895043     A.U. after   15 cycles

      1  P    Isotropic =   219.4895   Anisotropy =    93.9300

      2  P    Isotropic =   217.5152   Anisotropy =   107.5100

      3  C    Isotropic =    39.7495   Anisotropy =   199.8008

      4  C    Isotropic =    37.7483   Anisotropy =   184.5279

      5  H    Isotropic =    23.5507   Anisotropy =     8.4495

      6  C    Isotropic =    49.6474   Anisotropy =   184.0715

      7  H    Isotropic =    24.0697   Anisotropy =     5.1095

      8  C    Isotropic =    47.8855   Anisotropy =   189.8442

      9  H    Isotropic =    24.0837   Anisotropy =     4.0413

     10  C    Isotropic =    49.8604   Anisotropy =   183.4722

     11  H    Isotropic =    24.1978   Anisotropy =     6.6418

     12  C    Isotropic =    35.9897   Anisotropy =   195.5216

     13  H    Isotropic =    23.1827   Anisotropy =     9.8983

     14  C    Isotropic =    28.5605   Anisotropy =   200.5042

     15  C    Isotropic =    51.4847   Anisotropy =   179.6106

     16  H    Isotropic =    24.8836   Anisotropy =    12.9850

     17  C    Isotropic =    50.0240   Anisotropy =   182.6371

     18  H    Isotropic =    24.5911   Anisotropy =     6.0446

     19  C    Isotropic =    54.5523   Anisotropy =   177.9504

     20  H    Isotropic =    24.6796   Anisotropy =     3.9854

     21  C    Isotropic =    50.4614   Anisotropy =   182.2284

     22  H    Isotropic =    24.4216   Anisotropy =     6.5115

     23  C    Isotropic =    50.2297   Anisotropy =   185.0050

     24  H    Isotropic =    24.2283   Anisotropy =     9.8067

     25  C    Isotropic =   132.2124   Anisotropy =    27.4047

     26  H    Isotropic =    28.6354   Anisotropy =     2.9409

     27  C    Isotropic =   134.6884   Anisotropy =    41.6390

     28  H    Isotropic =    29.1335   Anisotropy =     4.5813

     29  H    Isotropic =    28.6486   Anisotropy =     5.5379

     30  C    Isotropic =    34.6120   Anisotropy =   191.1871

     31  C    Isotropic =    48.9583   Anisotropy =   179.8427

     32  H    Isotropic =    24.9761   Anisotropy =     8.1241

     33  C    Isotropic =    50.8612   Anisotropy =   182.0506

     34  H    Isotropic =    24.7561   Anisotropy =     8.0030

     35  C    Isotropic =    53.8090   Anisotropy =   179.2812

     36  H    Isotropic =    24.6925   Anisotropy =     4.4149

     37  C    Isotropic =    49.7822   Anisotropy =   183.2302

     38  H    Isotropic =    24.5140   Anisotropy =     5.7391

     39  C    Isotropic =    49.3349   Anisotropy =   182.5159

     40  H    Isotropic =    24.5970   Anisotropy =    12.1402

     41  C    Isotropic =    32.0604   Anisotropy =   210.3846

     42  C    Isotropic =    42.8710   Anisotropy =   186.3056

     43  H    Isotropic =    23.8688   Anisotropy =    10.6051

     44  C    Isotropic =    49.5037   Anisotropy =   184.4553

     45  H    Isotropic =    24.2840   Anisotropy =     6.2031

     46  C    Isotropic =    49.0636   Anisotropy =   188.6718

     47  H    Isotropic =    24.2085   Anisotropy =     4.1537

     48  C    Isotropic =    49.3812   Anisotropy =   184.6410

     49  H    Isotropic =    24.0755   Anisotropy =     5.2424

     50  C    Isotropic =    41.0432   Anisotropy =   180.2265

     51  H    Isotropic =    23.5681   Anisotropy =     8.8483

     52  N    Isotropic =   172.4847   Anisotropy =    98.5262

     53  C    Isotropic =   139.0244   Anisotropy =    68.0554

     54  H    Isotropic =    29.9134   Anisotropy =     9.5303

     55  H    Isotropic =    30.7673   Anisotropy =     9.2267

     56  H    Isotropic =    29.2035   Anisotropy =     6.8365

     57  C    Isotropic =   133.5123   Anisotropy =    71.2860

     58  H    Isotropic =    30.0666   Anisotropy =     8.7110

     59  H    Isotropic =    30.3768   Anisotropy =     8.4922

     60  H    Isotropic =    30.0681   Anisotropy =     9.2444

     61  N    Isotropic =   129.7013   Anisotropy =    99.7430

     62  H    Isotropic =    30.6841   Anisotropy =     7.1849

 The electronic state is 1-A.
 Alpha  occ. eigenvalues --  -77.04643 -77.04276 -14.34056 -14.33283 -10.20401
 Alpha  occ. eigenvalues --  -10.19397 -10.18804 -10.18516 -10.18486 -10.18328
 Alpha  occ. eigenvalues --  -10.18315 -10.18251 -10.18118 -10.18109 -10.18042
 Alpha  occ. eigenvalues --  -10.17992 -10.17984 -10.17966 -10.17942 -10.17909
 Alpha  occ. eigenvalues --  -10.17906 -10.17767 -10.17464 -10.17417 -10.17407
 Alpha  occ. eigenvalues --  -10.17344 -10.17161 -10.17159 -10.17100 -10.17050
 Alpha  occ. eigenvalues --  -10.16897 -10.16812  -6.53199  -6.52854  -4.69347
 Alpha  occ. eigenvalues --   -4.69321  -4.69006  -4.68972  -4.68836  -4.68490
 Alpha  occ. eigenvalues --   -0.98521  -0.86337  -0.86240  -0.85596  -0.85250
 Alpha  occ. eigenvalues --   -0.83667  -0.77641  -0.76323  -0.75310  -0.75267
 Alpha  occ. eigenvalues --   -0.74844  -0.74571  -0.74441  -0.74185  -0.73540
 Alpha  occ. eigenvalues --   -0.71232  -0.66204  -0.63856  -0.62256  -0.61188
 Alpha  occ. eigenvalues --   -0.61045  -0.60607  -0.60452  -0.59981  -0.59753
 Alpha  occ. eigenvalues --   -0.59269  -0.56068  -0.54748  -0.52335  -0.51871
 Alpha  occ. eigenvalues --   -0.51585  -0.50101  -0.49364  -0.48835  -0.47175
 Alpha  occ. eigenvalues --   -0.45948  -0.45852  -0.45789  -0.45618  -0.45270
 Alpha  occ. eigenvalues --   -0.45070  -0.44899  -0.44585  -0.43966  -0.43230
 Alpha  occ. eigenvalues --   -0.42841  -0.42743  -0.42201  -0.42092  -0.40959
 Alpha  occ. eigenvalues --   -0.40685  -0.40294  -0.40005  -0.39147  -0.38137
 Alpha  occ. eigenvalues --   -0.37775  -0.37622  -0.37335  -0.37103  -0.36781
 Alpha  occ. eigenvalues --   -0.36577  -0.35212  -0.35130  -0.35074  -0.34574
 Alpha  occ. eigenvalues --   -0.34241  -0.32531  -0.31881  -0.31045  -0.27693
 Alpha  occ. eigenvalues --   -0.26715  -0.26634  -0.26410  -0.26246  -0.25702
 Alpha  occ. eigenvalues --   -0.25499  -0.25290  -0.24927  -0.23610  -0.21303
 Alpha  occ. eigenvalues --   -0.18041
 Alpha virt. eigenvalues --   -0.03535  -0.03150  -0.02259  -0.02181  -0.01788
 Alpha virt. eigenvalues --   -0.01412  -0.01128  -0.00687   0.01873   0.02721
 Alpha virt. eigenvalues --    0.04117   0.04741   0.04818   0.05017   0.06073

 Mulliken charges:
               1
     1  P    0.165898
     2  P    0.161486
     3  C   -0.018279
     4  C   -0.175230
     5  H    0.120331
     6  C   -0.091599
     7  H    0.112204
     8  C   -0.103056
     9  H    0.111282
    10  C   -0.084688
    11  H    0.108152
    12  C   -0.183193
    13  H    0.156457
    14  C    0.117226
    15  C   -0.189001
    16  H    0.137119
    17  C   -0.116793
    18  H    0.104582
    19  C   -0.118190
    20  H    0.103917
    21  C   -0.106138
    22  H    0.103232
    23  C   -0.241668
    24  H    0.114313
    25  C   -0.152680
    26  H    0.113940
    27  C   -0.172404
    28  H    0.122961
    29  H    0.106939
    30  C    0.040934
    31  C   -0.156873
    32  H    0.161414
    33  C   -0.162001
    34  H    0.105529
    35  C   -0.102572
    36  H    0.105432
    37  C   -0.120014
    38  H    0.107096
    39  C   -0.191104
    40  H    0.136636
    41  C    0.058624
    42  C   -0.204931
    43  H    0.137591
    44  C   -0.096572
    45  H    0.107409
    46  C   -0.107150
    47  H    0.110839
    48  C   -0.095065
    49  H    0.110814
    50  C   -0.199083
    51  H    0.121892
    52  N   -0.129138
    53  C   -0.254374
    54  H    0.115098
    55  H    0.084253
    56  H    0.117504
    57  C   -0.247722
    58  H    0.159520
    59  H    0.077278
    60  H    0.106613
    61  N   -0.268791
    62  H    0.163796
 Sum of Mulliken charges =  -0.00000

 Dipole moment (field-independent basis, Debye):
    X=             -0.3479    Y=             -0.4316    Z=              3.6797  Tot=              3.7212
 Quadrupole moment (field-independent basis, Debye-Ang):
   XX=           -197.0556   YY=           -186.3844   ZZ=           -204.6825
   XY=              6.3165   XZ=              0.8751   YZ=              2.0372

 Summary of Natural Population Analysis:

                                       Natural Population
                Natural  -----------------------------------------------
    Atom  No    Charge         Core      Valence    Rydberg      Total
 -----------------------------------------------------------------------
      P    1    0.83290      9.99802     4.13699    0.03210    14.16710
      P    2    0.84400      9.99805     4.12611    0.03184    14.15600
      C    3   -0.34570      1.99900     4.31367    0.03304     6.34570
      C    4   -0.19033      1.99910     4.17067    0.02055     6.19033
      H    5    0.22205      0.00000     0.77639    0.00156     0.77795
      C    6   -0.21072      1.99918     4.19217    0.01937     6.21072
      H    7    0.21077      0.00000     0.78797    0.00126     0.78923
      C    8   -0.19572      1.99919     4.17749    0.01904     6.19572
      H    9    0.20841      0.00000     0.79040    0.00119     0.79159
      C   10   -0.21159      1.99918     4.19348    0.01892     6.21159
      H   11    0.20742      0.00000     0.79118    0.00140     0.79258
      C   12   -0.19771      1.99909     4.17792    0.02070     6.19771
      H   13    0.22921      0.00000     0.76784    0.00295     0.77079
      C   14   -0.31391      1.99899     4.28346    0.03146     6.31391
      C   15   -0.21396      1.99909     4.19535    0.01953     6.21396
      H   16    0.21309      0.00000     0.78512    0.00178     0.78691
      C   17   -0.19557      1.99919     4.17766    0.01872     6.19557
      H   18    0.20645      0.00000     0.79227    0.00128     0.79355
      C   19   -0.22212      1.99918     4.20318    0.01975     6.22212
      H   20    0.20637      0.00000     0.79244    0.00118     0.79363
      C   21   -0.19801      1.99918     4.18001    0.01882     6.19801
      H   22    0.20647      0.00000     0.79225    0.00128     0.79353
      C   23   -0.21449      1.99908     4.19572    0.01968     6.21449
      H   24    0.20359      0.00000     0.79443    0.00198     0.79641
      C   25   -0.77530      1.99937     4.73868    0.03726     6.77530
      H   26    0.27459      0.00000     0.72284    0.00257     0.72541
      C   27   -0.22942      1.99927     4.21100    0.01915     6.22942
      H   28    0.20478      0.00000     0.79250    0.00271     0.79522
      H   29    0.17158      0.00000     0.82458    0.00384     0.82842
      C   30   -0.32683      1.99899     4.29653    0.03131     6.32683
      C   31   -0.21806      1.99908     4.19925    0.01972     6.21806
      H   32    0.20925      0.00000     0.78873    0.00202     0.79075
      C   33   -0.19611      1.99918     4.17836    0.01857     6.19611
      H   34    0.20769      0.00000     0.79103    0.00128     0.79231
      C   35   -0.21817      1.99918     4.19939    0.01959     6.21817
      H   36    0.20706      0.00000     0.79176    0.00118     0.79294
      C   37   -0.19624      1.99918     4.17842    0.01863     6.19624
      H   38    0.20751      0.00000     0.79123    0.00127     0.79249
      C   39   -0.21231      1.99909     4.19361    0.01961     6.21231
      H   40    0.21420      0.00000     0.78403    0.00178     0.78580
      C   41   -0.33179      1.99901     4.29998    0.03280     6.33179
      C   42   -0.19865      1.99908     4.17943    0.02014     6.19865
      H   43    0.21039      0.00000     0.78723    0.00237     0.78961
      C   44   -0.20577      1.99919     4.18754    0.01904     6.20577
      H   45    0.20698      0.00000     0.79165    0.00137     0.79302
      C   46   -0.19935      1.99919     4.18108    0.01908     6.19935
      H   47    0.20838      0.00000     0.79044    0.00118     0.79162
      C   48   -0.20463      1.99918     4.18609    0.01936     6.20463
      H   49    0.20975      0.00000     0.78899    0.00126     0.79025
      C   50   -0.19440      1.99910     4.17502    0.02028     6.19440
      H   51    0.21841      0.00000     0.78005    0.00154     0.78159
      N   52   -0.27594      1.99957     5.24778    0.02859     7.27594
      C   53   -0.41880      1.99936     4.40897    0.01046     6.41880
      H   54    0.20115      0.00000     0.79726    0.00159     0.79885
      H   55    0.15484      0.00000     0.84028    0.00488     0.84516
      H   56    0.19631      0.00000     0.80219    0.00150     0.80369
      C   57   -0.40047      1.99937     4.38961    0.01149     6.40047
      H   58    0.21804      0.00000     0.78039    0.00157     0.78196
      H   59    0.15410      0.00000     0.84171    0.00419     0.84590
      H   60    0.19127      0.00000     0.80729    0.00144     0.80873
      N   61   -0.46775      1.99953     5.43933    0.02889     7.46775
      H   62    0.32279      0.00000     0.67032    0.00689     0.67721
 =======================================================================
   * Total *   -0.00000     79.97146   161.24872    0.77982   242.00000

 Normal termination of Gaussian 16 at Fri Jan 24 06:22:37 2025.
