 Gaussian 16, Revision B.01,
 Gaussian 16:  ES64L-G16RevB.01 20-Dec-2017

 --------------------------------------------
 # nmr=giao b3lyp/def2TZVP pop=nbo scfcyc=200
 --------------------------------------------

 --------------
 MS-20 SPE NoRh
 --------------
 Symbolic Z-matrix:
 Charge =  0 Multiplicity = 1

                         Standard orientation:
 ---------------------------------------------------------------------
 Center     Atomic      Atomic             Coordinates (Angstroms)
 Number     Number       Type             X           Y           Z
 ---------------------------------------------------------------------
      1         15           0        1.400248   -0.181804   -1.038842
      2         15           0       -1.419908   -0.176503   -1.045226
      3          6           0       -0.001727   -0.651268    0.135422
      4          6           0        2.758591   -1.392202   -0.752970
      5          6           0        3.935039   -1.234128   -1.497156
      6          6           0        4.977976   -2.142358   -1.365434
      7          6           0        4.859317   -3.220472   -0.492834
      8          6           0        3.695815   -3.382962    0.249963
      9          6           0        2.646862   -2.476186    0.121511
     10          6           0        2.118856    1.448483   -0.594870
     11          6           0        1.741204    2.576217   -1.326999
     12          6           0        2.274936    3.822932   -1.019639
     13          6           0        3.196392    3.948110    0.014839
     14          6           0        3.582099    2.824921    0.744236
     15          6           0        3.046386    1.579280    0.443798
     16          6           0       -2.700729   -1.465164   -0.748509
     17          6           0       -2.631095   -2.658930   -1.472094
     18          6           0       -3.535674   -3.685187   -1.222198
     19          6           0       -4.518959   -3.523107   -0.251915
     20          6           0       -4.592690   -2.337200    0.472871
     21          6           0       -3.688104   -1.310885    0.230045
     22          6           0       -2.213787    1.425119   -0.619149
     23          6           0       -1.601001    2.402094    0.170837
     24          6           0       -2.222637    3.634600    0.350955
     25          6           0       -3.443833    3.907975   -0.253559
     26          6           0       -4.053516    2.939561   -1.046874
     27          6           0       -3.441895    1.706280   -1.232916
     28          1           0       -0.051264   -1.736312    0.019729
     29          1           0        4.048944   -0.391444   -2.168216
     30          1           0        5.883266   -2.006250   -1.942729
     31          1           0        5.672698   -3.928099   -0.390878
     32          1           0        3.600048   -4.215563    0.935629
     33          1           0        1.758455   -2.623350    0.720664
     34          1           0        1.029255    2.476211   -2.138285
     35          1           0        1.978225    4.692751   -1.591554
     36          1           0        3.618610    4.916411    0.251388
     37          1           0        4.300986    2.920527    1.547067
     38          1           0        3.356153    0.714093    1.013965
     39          1           0       -1.866244   -2.787930   -2.228336
     40          1           0       -3.476533   -4.606073   -1.787836
     41          1           0       -5.227716   -4.318911   -0.060710
     42          1           0       -5.356565   -2.210191    1.229411
     43          1           0       -3.756264   -0.391565    0.797967
     44          1           0       -0.662965    2.205161    0.669462
     45          1           0       -1.746845    4.381602    0.973858
     46          1           0       -3.921854    4.868554   -0.107486
     47          1           0       -5.006466    3.141712   -1.518941
     48          1           0       -3.935666    0.960310   -1.843790
     49          6           0        0.011866   -0.376009    1.599683
     50          8           0       -0.316968   -1.459936    2.363483
     51          6           0        0.187988    0.469304    3.628517
     52          1           0       -0.528051    1.168933    4.062545
     53          1           0        1.153717    0.652714    4.102839
     54          6           0       -0.270197   -1.003867    3.748689
     55          1           0       -1.266381   -1.120775    4.171609
     56          1           0        0.429398   -1.641066    4.286314
     57          7           0        0.299832    0.711847    2.180569
 ---------------------------------------------------------------------

 SCF Done:  E(RB3LYP) =  -1895.17103040     A.U. after   15 cycles

      1  P    Isotropic =   216.5566   Anisotropy =   104.0901

      2  P    Isotropic =   219.5679   Anisotropy =    83.7521

      3  C    Isotropic =   135.3535   Anisotropy =    17.9532

      4  C    Isotropic =    31.9694   Anisotropy =   196.6724

      5  C    Isotropic =    47.6943   Anisotropy =   185.9037

      6  C    Isotropic =    49.7038   Anisotropy =   184.8740

      7  C    Isotropic =    52.8619   Anisotropy =   181.1442

      8  C    Isotropic =    50.1725   Anisotropy =   182.7419

      9  C    Isotropic =    49.7069   Anisotropy =   182.1486

     10  C    Isotropic =    37.2226   Anisotropy =   198.9262

     11  C    Isotropic =    39.4037   Anisotropy =   186.4142

     12  C    Isotropic =    51.1774   Anisotropy =   182.8170

     13  C    Isotropic =    48.2130   Anisotropy =   189.1986

     14  C    Isotropic =    50.5084   Anisotropy =   182.2467

     15  C    Isotropic =    37.2911   Anisotropy =   194.7550

     16  C    Isotropic =    31.5198   Anisotropy =   207.1989

     17  C    Isotropic =    43.0311   Anisotropy =   181.2754

     18  C    Isotropic =    49.4127   Anisotropy =   184.0647

     19  C    Isotropic =    49.0366   Anisotropy =   187.9093

     20  C    Isotropic =    49.9292   Anisotropy =   183.2541

     21  C    Isotropic =    42.8866   Anisotropy =   189.0974

     22  C    Isotropic =    37.6544   Anisotropy =   182.3014

     23  C    Isotropic =    44.6368   Anisotropy =   199.8036

     24  C    Isotropic =    50.5928   Anisotropy =   184.5436

     25  C    Isotropic =    52.5807   Anisotropy =   181.6092

     26  C    Isotropic =    51.0268   Anisotropy =   182.4800

     27  C    Isotropic =    48.1480   Anisotropy =   184.4548

     28  H    Isotropic =    28.5164   Anisotropy =     3.0252

     29  H    Isotropic =    24.5902   Anisotropy =    11.7352

     30  H    Isotropic =    24.4522   Anisotropy =     5.4874

     31  H    Isotropic =    24.5649   Anisotropy =     3.9577

     32  H    Isotropic =    24.4110   Anisotropy =     6.7199

     33  H    Isotropic =    24.1511   Anisotropy =    11.0077

     34  H    Isotropic =    23.8190   Anisotropy =     7.8142

     35  H    Isotropic =    24.3881   Anisotropy =     5.3149

     36  H    Isotropic =    24.2857   Anisotropy =     3.9512

     37  H    Isotropic =    24.4830   Anisotropy =     6.2341

     38  H    Isotropic =    24.4384   Anisotropy =    10.7152

     39  H    Isotropic =    23.7449   Anisotropy =     9.1203

     40  H    Isotropic =    24.2043   Anisotropy =     5.4542

     41  H    Isotropic =    24.3103   Anisotropy =     4.1292

     42  H    Isotropic =    24.4608   Anisotropy =     6.4273

     43  H    Isotropic =    24.2242   Anisotropy =    11.6682

     44  H    Isotropic =    23.7679   Anisotropy =     7.2820

     45  H    Isotropic =    24.6967   Anisotropy =     7.5720

     46  H    Isotropic =    24.5813   Anisotropy =     4.2799

     47  H    Isotropic =    24.4725   Anisotropy =     5.2602

     48  H    Isotropic =    24.5355   Anisotropy =    11.3467

     49  C    Isotropic =    12.5760   Anisotropy =    73.4079

     50  O    Isotropic =   126.4961   Anisotropy =   210.3179

     51  C    Isotropic =   123.1691   Anisotropy =    65.7231

     52  H    Isotropic =    28.0933   Anisotropy =     7.4261

     53  H    Isotropic =    28.0889   Anisotropy =     7.4822

     54  C    Isotropic =   112.3234   Anisotropy =    83.3989

     55  H    Isotropic =    28.0167   Anisotropy =     8.0272

     56  H    Isotropic =    27.8608   Anisotropy =     8.4671

     57  N    Isotropic =     8.9178   Anisotropy =   270.9628

 The electronic state is 1-A.
 Alpha  occ. eigenvalues --  -77.05713 -77.05268 -19.16680 -14.29797 -10.26740
 Alpha  occ. eigenvalues --  -10.23539 -10.20752 -10.20615 -10.18457 -10.18406
 Alpha  occ. eigenvalues --  -10.18374 -10.18138 -10.18137 -10.18084 -10.17963
 Alpha  occ. eigenvalues --  -10.17933 -10.17853 -10.17723 -10.17683 -10.17664
 Alpha  occ. eigenvalues --  -10.17616 -10.17584 -10.17556 -10.17536 -10.17439
 Alpha  occ. eigenvalues --  -10.17431 -10.17398 -10.17354 -10.17262 -10.17082
 Alpha  occ. eigenvalues --  -10.17000 -10.16703  -6.54217  -6.53801  -4.70399
 Alpha  occ. eigenvalues --   -4.70307  -4.69980  -4.69894  -4.69853  -4.69438
 Alpha  occ. eigenvalues --   -1.08994  -0.90771  -0.86330  -0.86049  -0.85558
 Alpha  occ. eigenvalues --   -0.85401  -0.80217  -0.76595  -0.76382  -0.75325
 Alpha  occ. eigenvalues --   -0.74952  -0.74853  -0.74477  -0.74383  -0.74358
 Alpha  occ. eigenvalues --   -0.72403  -0.64618  -0.64072  -0.63284  -0.61172
 Alpha  occ. eigenvalues --   -0.60738  -0.60706  -0.60301  -0.59909  -0.59863
 Alpha  occ. eigenvalues --   -0.58046  -0.56183  -0.53972  -0.52314  -0.51935
 Alpha  occ. eigenvalues --   -0.51407  -0.50810  -0.50007  -0.48748  -0.46418
 Alpha  occ. eigenvalues --   -0.45935  -0.45795  -0.45607  -0.45493  -0.45318
 Alpha  occ. eigenvalues --   -0.45056  -0.44675  -0.44535  -0.42875  -0.42628
 Alpha  occ. eigenvalues --   -0.42420  -0.42178  -0.41771  -0.41468  -0.40992
 Alpha  occ. eigenvalues --   -0.40637  -0.39874  -0.39179  -0.37831  -0.37648
 Alpha  occ. eigenvalues --   -0.37259  -0.37095  -0.36824  -0.36534  -0.35460
 Alpha  occ. eigenvalues --   -0.35174  -0.34889  -0.34701  -0.34439  -0.32818
 Alpha  occ. eigenvalues --   -0.32165  -0.31763  -0.28500  -0.27785  -0.27059
 Alpha  occ. eigenvalues --   -0.26781  -0.26345  -0.26048  -0.26019  -0.25619
 Alpha  occ. eigenvalues --   -0.25372  -0.24807  -0.22075  -0.18841
 Alpha virt. eigenvalues --   -0.03563  -0.03222  -0.02548  -0.02165  -0.01987
 Alpha virt. eigenvalues --   -0.01767  -0.01157  -0.00330   0.00653   0.02443
 Alpha virt. eigenvalues --    0.03278   0.04812   0.04881   0.05138   0.05417

 Mulliken charges:
               1
     1  P    0.133851
     2  P    0.150719
     3  C   -0.125794
     4  C    0.076509
     5  C   -0.174003
     6  C   -0.111175
     7  C   -0.104574
     8  C   -0.143083
     9  C   -0.179647
    10  C    0.036611
    11  C   -0.159258
    12  C   -0.114065
    13  C   -0.090935
    14  C   -0.123886
    15  C   -0.119276
    16  C    0.047559
    17  C   -0.194770
    18  C   -0.097200
    19  C   -0.099724
    20  C   -0.113062
    21  C   -0.172693
    22  C    0.049559
    23  C   -0.169994
    24  C   -0.144329
    25  C   -0.108367
    26  C   -0.108591
    27  C   -0.199664
    28  H    0.129068
    29  H    0.115884
    30  H    0.108258
    31  H    0.107092
    32  H    0.105919
    33  H    0.128048
    34  H    0.122041
    35  H    0.108998
    36  H    0.108593
    37  H    0.103946
    38  H    0.122408
    39  H    0.119154
    40  H    0.110997
    41  H    0.110796
    42  H    0.107597
    43  H    0.136328
    44  H    0.196803
    45  H    0.106936
    46  H    0.105098
    47  H    0.107017
    48  H    0.119589
    49  C    0.201733
    50  O   -0.305106
    51  C   -0.095504
    52  H    0.100733
    53  H    0.098401
    54  C   -0.024078
    55  H    0.099301
    56  H    0.099800
    57  N   -0.296566
 Sum of Mulliken charges =  -0.00000

 Dipole moment (field-independent basis, Debye):
    X=             -0.2722    Y=             -0.5271    Z=              3.2386  Tot=              3.2925
 Quadrupole moment (field-independent basis, Debye-Ang):
   XX=           -188.9864   YY=           -188.8387   ZZ=           -193.6107
   XY=              2.0166   XZ=              0.3364   YZ=             -1.3181

 Summary of Natural Population Analysis:

                                       Natural Population
                Natural  -----------------------------------------------
    Atom  No    Charge         Core      Valence    Rydberg      Total
 -----------------------------------------------------------------------
      P    1    0.86010      9.99805     4.10961    0.03224    14.13990
      P    2    0.87074      9.99807     4.09929    0.03190    14.12926
      C    3   -0.82769      1.99918     4.79297    0.03554     6.82769
      C    4   -0.32460      1.99901     4.29431    0.03128     6.32460
      C    5   -0.20100      1.99909     4.18229    0.01962     6.20100
      C    6   -0.19597      1.99919     4.17818    0.01860     6.19597
      C    7   -0.21433      1.99919     4.19570    0.01945     6.21433
      C    8   -0.19660      1.99919     4.17862    0.01880     6.19660
      C    9   -0.22024      1.99908     4.20174    0.01942     6.22024
      C   10   -0.33959      1.99898     4.30783    0.03278     6.33959
      C   11   -0.18564      1.99909     4.16659    0.01996     6.18564
      C   12   -0.20843      1.99918     4.19055    0.01870     6.20843
      C   13   -0.19360      1.99919     4.17544    0.01896     6.19360
      C   14   -0.20670      1.99919     4.18879    0.01872     6.20670
      C   15   -0.16980      1.99908     4.15071    0.02001     6.16980
      C   16   -0.33572      1.99899     4.30527    0.03146     6.33572
      C   17   -0.19656      1.99910     4.17729    0.02017     6.19656
      C   18   -0.20352      1.99918     4.18488    0.01946     6.20352
      C   19   -0.19831      1.99919     4.18000    0.01912     6.19831
      C   20   -0.20301      1.99919     4.18478    0.01904     6.20301
      C   21   -0.19145      1.99908     4.17231    0.02007     6.19145
      C   22   -0.34210      1.99899     4.31198    0.03114     6.34210
      C   23   -0.21543      1.99908     4.19602    0.02033     6.21543
      C   24   -0.19732      1.99919     4.17973    0.01841     6.19732
      C   25   -0.21275      1.99919     4.19412    0.01945     6.21275
      C   26   -0.20234      1.99918     4.18449    0.01868     6.20234
      C   27   -0.20619      1.99909     4.18743    0.01967     6.20619
      H   28    0.27554      0.00000     0.72217    0.00229     0.72446
      H   29    0.21221      0.00000     0.78606    0.00173     0.78779
      H   30    0.20859      0.00000     0.79015    0.00126     0.79141
      H   31    0.20759      0.00000     0.79124    0.00117     0.79241
      H   32    0.20699      0.00000     0.79174    0.00127     0.79301
      H   33    0.20710      0.00000     0.79102    0.00188     0.79290
      H   34    0.21840      0.00000     0.77977    0.00183     0.78160
      H   35    0.21001      0.00000     0.78873    0.00126     0.78999
      H   36    0.20708      0.00000     0.79175    0.00118     0.79292
      H   37    0.20653      0.00000     0.79214    0.00133     0.79347
      H   38    0.21236      0.00000     0.78538    0.00225     0.78764
      H   39    0.21631      0.00000     0.78214    0.00155     0.78369
      H   40    0.20995      0.00000     0.78876    0.00129     0.79005
      H   41    0.20830      0.00000     0.79051    0.00119     0.79170
      H   42    0.20747      0.00000     0.79113    0.00140     0.79253
      H   43    0.21461      0.00000     0.78317    0.00222     0.78539
      H   44    0.24364      0.00000     0.75412    0.00224     0.75636
      H   45    0.20766      0.00000     0.79105    0.00129     0.79234
      H   46    0.20631      0.00000     0.79251    0.00119     0.79369
      H   47    0.20772      0.00000     0.79101    0.00127     0.79228
      H   48    0.21151      0.00000     0.78655    0.00194     0.78849
      C   49    0.51245      1.99908     3.45633    0.03215     5.48755
      O   50   -0.48043      1.99977     6.45910    0.02155     8.48043
      C   51   -0.26357      1.99943     4.24888    0.01526     6.26357
      H   52    0.19796      0.00000     0.80051    0.00153     0.80204
      H   53    0.19566      0.00000     0.80275    0.00159     0.80434
      C   54   -0.09742      1.99933     4.08282    0.01526     6.09742
      H   55    0.18207      0.00000     0.81646    0.00147     0.81793
      H   56    0.18288      0.00000     0.81570    0.00142     0.81712
      N   57   -0.47740      1.99926     5.44399    0.03415     7.47740
 =======================================================================
   * Total *   -0.00000     79.97104   157.25855    0.77040   238.00000

 1\1\GINC-G2NODEC3\SP\RB3LYP\def2TZVP\C28H25N1O1P2\ROOT\24-Jan-2025\0\\
 # nmr=giao b3lyp/def2TZVP pop=nbo scfcyc=200\\MS-20 SPE NoRh\\0,1\P,0,
 -1.402,-0.215,0.126\P,0,1.418,-0.202,0.154\C,0,-0.005,-1.302,0.783\C,0
 ,-2.775,-0.32,1.349\C,0,-3.95,0.389,1.067\C,0,-5.004,0.392,1.972\C,0,-
 4.898,-0.309,3.17\C,0,-3.736,-1.016,3.456\C,0,-2.676,-1.022,2.553\C,0,
 -2.1,-0.9,-1.428\C,0,-1.709,-0.344,-2.648\C,0,-2.227,-0.836,-3.841\C,0
 ,-3.146,-1.88,-3.821\C,0,-3.545,-2.434,-2.606\C,0,-3.025,-1.949,-1.413
 \C,0,2.683,-0.299,1.488\C,0,2.598,0.595,2.559\C,0,3.49,0.504,3.622\C,0

 Normal termination of Gaussian 16 at Fri Jan 24 06:16:41 2025.
