 Gaussian 16, Revision B.01,
 Gaussian 16:  ES64L-G16RevB.01 20-Dec-2017

 --------------------------------------------
 # nmr=giao b3lyp/def2TZVP pop=nbo scfcyc=200
 --------------------------------------------

 -------------
 MS-3 SPE NoRh
 -------------
 Symbolic Z-matrix:
 Charge =  0 Multiplicity = 1

                         Standard orientation:
 ---------------------------------------------------------------------
 Center     Atomic      Atomic             Coordinates (Angstroms)
 Number     Number       Type             X           Y           Z
 ---------------------------------------------------------------------
      1         15           0       -1.359108    0.130707   -0.554725
      2         15           0        1.358860    0.121234   -0.554126
      3          6           0       -2.356288   -1.471722   -0.182610
      4          6           0        2.368040   -1.466028   -0.151818
      5          6           0       -0.001116    0.283979    0.747370
      6          1           0        0.002269    1.350911    1.001717
      7          6           0        2.626680    1.494895   -0.104704
      8          6           0       -2.636860    1.485541   -0.078202
      9          9           0       -3.035733    1.395056    1.193291
     10          9           0       -3.707803    1.411678   -0.877160
     11          9           0       -2.052375    2.681954   -0.252051
     12          9           0        2.018732    2.682436   -0.259199
     13          9           0        3.058300    1.406806    1.156108
     14          9           0        3.676779    1.439410   -0.930299
     15          9           0        3.332127   -1.615462   -1.070604
     16          9           0        2.931405   -1.443948    1.057023
     17          9           0        1.544823   -2.522836   -0.220982
     18          9           0       -1.517866   -2.516887   -0.238980
     19          9           0       -2.945996   -1.462239    1.013667
     20          9           0       -3.296586   -1.626807   -1.123681
     21          6           0       -0.005541   -0.551276    2.026267
     22          1           0        0.873397   -0.312565    2.624796
     23          1           0       -0.888351   -0.311290    2.618034
     24          1           0       -0.005349   -1.620946    1.826213
 ---------------------------------------------------------------------

 SCF Done:  E(RB3LYP) =  -2112.51348426     A.U. after   12 cycles

      1  P    Isotropic =   206.4124   Anisotropy =   212.1274

      2  P    Isotropic =   206.9126   Anisotropy =   212.6634

      3  C    Isotropic =    41.1835   Anisotropy =     6.3872

      4  C    Isotropic =    41.0891   Anisotropy =     6.2601

      5  C    Isotropic =   147.5597   Anisotropy =    10.3162

      6  H    Isotropic =    29.0406   Anisotropy =     4.5439

      7  C    Isotropic =    40.9282   Anisotropy =     6.3480

      8  C    Isotropic =    40.8478   Anisotropy =     6.2938

      9  F    Isotropic =   238.3187   Anisotropy =   123.2235

     10  F    Isotropic =   235.2908   Anisotropy =   121.7223

     11  F    Isotropic =   235.2065   Anisotropy =   135.6755

     12  F    Isotropic =   235.4739   Anisotropy =   134.9803

     13  F    Isotropic =   237.9483   Anisotropy =   122.8952

     14  F    Isotropic =   235.1299   Anisotropy =   121.2716

     15  F    Isotropic =   224.5689   Anisotropy =   138.7491

     16  F    Isotropic =   230.4326   Anisotropy =   116.4513

     17  F    Isotropic =   228.5861   Anisotropy =   132.5283

     18  F    Isotropic =   229.1502   Anisotropy =   131.8385

     19  F    Isotropic =   230.1942   Anisotropy =   116.9077

     20  F    Isotropic =   224.3428   Anisotropy =   138.7198

     21  C    Isotropic =   169.6904   Anisotropy =    17.8056

     22  H    Isotropic =    30.1008   Anisotropy =     8.6127

     23  H    Isotropic =    30.1062   Anisotropy =     8.5842

     24  H    Isotropic =    30.1450   Anisotropy =     5.2782

 The electronic state is 1-A.
 Alpha  occ. eigenvalues --  -77.11677 -77.11653 -24.74724 -24.74692 -24.74672
 Alpha  occ. eigenvalues --  -24.74636 -24.74484 -24.74426 -24.74388 -24.74372
 Alpha  occ. eigenvalues --  -24.74359 -24.74345 -24.74271 -24.74260 -10.45283
 Alpha  occ. eigenvalues --  -10.45256 -10.45081 -10.45035 -10.25700 -10.20849
 Alpha  occ. eigenvalues --   -6.60291  -6.60269  -4.76433  -4.76412  -4.76408
 Alpha  occ. eigenvalues --   -4.76385  -4.75870  -4.75848  -1.34741  -1.34722
 Alpha  occ. eigenvalues --   -1.34519  -1.34496  -1.26181  -1.26122  -1.26057
 Alpha  occ. eigenvalues --   -1.26015  -1.25962  -1.25941  -1.25831  -1.25822
 Alpha  occ. eigenvalues --   -0.84178  -0.77076  -0.76326  -0.73467  -0.73362
 Alpha  occ. eigenvalues --   -0.70704  -0.67914  -0.64827  -0.62903  -0.62816
 Alpha  occ. eigenvalues --   -0.62680  -0.62581  -0.62472  -0.62437  -0.62324
 Alpha  occ. eigenvalues --   -0.62256  -0.60637  -0.60205  -0.53794  -0.51928
 Alpha  occ. eigenvalues --   -0.50774  -0.50717  -0.50459  -0.50417  -0.50173
 Alpha  occ. eigenvalues --   -0.50080  -0.50056  -0.49967  -0.47989  -0.47964
 Alpha  occ. eigenvalues --   -0.47753  -0.47247  -0.47204  -0.46304  -0.46218
 Alpha  occ. eigenvalues --   -0.46034  -0.45977  -0.45039  -0.44737  -0.44415
 Alpha  occ. eigenvalues --   -0.44354  -0.44247  -0.43695  -0.40804  -0.37727
 Alpha  occ. eigenvalues --   -0.37005  -0.35447  -0.30859  -0.26836
 Alpha virt. eigenvalues --   -0.06920  -0.03000  -0.00106   0.00461   0.01333
 Alpha virt. eigenvalues --    0.02602   0.04419   0.05685   0.05911   0.06277
 Alpha virt. eigenvalues --    0.08396   0.09075   0.09696   0.10096   0.12086

 Mulliken charges:
               1
     1  P    0.073585
     2  P    0.073974
     3  C    0.453605
     4  C    0.453712
     5  C   -0.190945
     6  H    0.146452
     7  C    0.436572
     8  C    0.436560
     9  F   -0.162734
    10  F   -0.157402
    11  F   -0.166752
    12  F   -0.167142
    13  F   -0.162303
    14  F   -0.156164
    15  F   -0.156983
    16  F   -0.161939
    17  F   -0.166961
    18  F   -0.166989
    19  F   -0.161847
    20  F   -0.156162
    21  C   -0.372418
    22  H    0.144672
    23  H    0.144901
    24  H    0.142709
 Sum of Mulliken charges =  -0.00000

 Dipole moment (field-independent basis, Debye):
    X=              0.0061    Y=              0.1676    Z=              1.7267  Tot=              1.7348
 Quadrupole moment (field-independent basis, Debye-Ang):
   XX=           -133.8461   YY=           -127.1323   ZZ=           -122.7105
   XY=              0.0825   XZ=             -0.0151   YZ=              0.0392

 Summary of Natural Population Analysis:

                                       Natural Population
                Natural  -----------------------------------------------
    Atom  No    Charge         Core      Valence    Rydberg      Total
 -----------------------------------------------------------------------
      P    1    0.59272      9.99857     4.37198    0.03672    14.40728
      P    2    0.59214      9.99858     4.37258    0.03670    14.40786
      C    3    0.75077      1.99972     3.18354    0.06598     5.24923
      C    4    0.75010      1.99972     3.18428    0.06591     5.24990
      C    5   -0.76319      1.99944     4.72969    0.03407     6.76319
      H    6    0.27543      0.00000     0.72315    0.00142     0.72457
      C    7    0.74822      1.99972     3.18640    0.06566     5.25178
      C    8    0.74742      1.99972     3.18728    0.06558     5.25258
      F    9   -0.31737      1.99991     7.30644    0.01101     9.31737
      F   10   -0.30674      1.99991     7.29608    0.01075     9.30674
      F   11   -0.31796      1.99992     7.30704    0.01100     9.31796
      F   12   -0.31833      1.99992     7.30740    0.01101     9.31833
      F   13   -0.31697      1.99991     7.30605    0.01100     9.31697
      F   14   -0.30584      1.99991     7.29514    0.01078     9.30584
      F   15   -0.30698      1.99992     7.29637    0.01069     9.30698
      F   16   -0.31433      1.99991     7.30323    0.01119     9.31433
      F   17   -0.31618      1.99992     7.30526    0.01100     9.31618
      F   18   -0.31628      1.99992     7.30535    0.01101     9.31628
      F   19   -0.31413      1.99991     7.30303    0.01119     9.31413
      F   20   -0.30635      1.99991     7.29572    0.01072     9.30635
      C   21   -0.61374      1.99941     4.59871    0.01562     6.61374
      H   22    0.22735      0.00000     0.77127    0.00138     0.77265
      H   23    0.22742      0.00000     0.77120    0.00138     0.77258
      H   24    0.22283      0.00000     0.77569    0.00148     0.77717
 =======================================================================
   * Total *    0.00000     55.99384   121.48289    0.52327   178.00000

 Normal termination of Gaussian 16 at Fri Jan 24 04:23:21 2025.
