 Gaussian 16, Revision B.01,
 Gaussian 16:  ES64L-G16RevB.01 20-Dec-2017

 --------------------------------------------
 # nmr=giao b3lyp/def2TZVP pop=nbo scfcyc=200
 --------------------------------------------

 --------------
 MS-33 SPE NoRh
 --------------
 Symbolic Z-matrix:
 Charge =  0 Multiplicity = 1

                         Standard orientation:
 ---------------------------------------------------------------------
 Center     Atomic      Atomic             Coordinates (Angstroms)
 Number     Number       Type             X           Y           Z
 ---------------------------------------------------------------------
      1         15           0        0.941362    0.615930   -1.258043
      2         15           0       -1.775447   -0.005502   -1.008467
      3          6           0       -0.167206   -0.347780   -0.060335
      4          6           0       -0.089777   -0.261189    1.474935
      5          6           0        2.523230   -0.299821   -1.490938
      6          6           0        3.738896    0.380126   -1.589720
      7          6           0        4.911945   -0.315628   -1.868569
      8          6           0        4.882979   -1.692970   -2.054957
      9          6           0        3.672289   -2.374686   -1.969962
     10          6           0        2.498960   -1.683400   -1.699418
     11          6           0        1.369045    2.235539   -0.501832
     12          6           0        0.902794    3.408106   -1.104630
     13          6           0        1.209729    4.649684   -0.557096
     14          6           0        1.983168    4.728000    0.595323
     15          6           0        2.446349    3.563371    1.203827
     16          6           0        2.145693    2.318131    0.661786
     17          6           0       -2.713394   -1.588012   -0.873239
     18          6           0       -2.526763   -2.561084   -1.860486
     19          6           0       -3.144427   -3.801973   -1.750598
     20          6           0       -3.954910   -4.082688   -0.654623
     21          6           0       -4.142213   -3.120778    0.333596
     22          6           0       -3.525273   -1.879178    0.228288
     23          6           0       -2.809976    1.260468   -0.162764
     24          6           0       -2.257197    2.263940    0.637933
     25          6           0       -3.065173    3.263729    1.169683
     26          6           0       -4.428782    3.281974    0.900592
     27          6           0       -4.984808    2.296668    0.090228
     28          6           0       -4.183524    1.293548   -0.441189
     29          1           0        0.001295   -1.388117   -0.354311
     30          1           0        0.118370    0.759527    1.791327
     31          1           0       -1.068708   -0.525900    1.879248
     32          1           0        3.781349    1.451013   -1.441179
     33          1           0        5.848440    0.222663   -1.938174
     34          1           0        5.797303   -2.232839   -2.268549
     35          1           0        3.641486   -3.447241   -2.117276
     36          1           0        1.566373   -2.233250   -1.654915
     37          1           0        0.293009    3.346357   -1.997031
     38          1           0        0.847184    5.552245   -1.031689
     39          1           0        2.226042    5.694074    1.021120
     40          1           0        3.045822    3.623142    2.103422
     41          1           0        2.500629    1.414813    1.144028
     42          1           0       -1.896740   -2.345719   -2.714326
     43          1           0       -2.997877   -4.547003   -2.523224
     44          1           0       -4.440757   -5.046574   -0.571932
     45          1           0       -4.773855   -3.334762    1.186747
     46          1           0       -3.689202   -1.137786    0.999604
     47          1           0       -1.197636    2.283226    0.847227
     48          1           0       -2.624240    4.028461    1.796509
     49          1           0       -5.055302    4.060639    1.317613
     50          1           0       -6.045315    2.305480   -0.127292
     51          1           0       -4.635418    0.531527   -1.062963
     52          6           0        0.952005   -1.181914    2.074152
     53          6           0        0.592256   -2.408453    2.634878
     54          6           0        1.582793   -3.223820    3.167924
     55          1           0       -0.446752   -2.712692    2.661103
     56          1           0        1.327241   -4.175739    3.614911
     57          6           0        2.901535   -2.791878    3.122422
     58          1           0        3.706276   -3.391278    3.529009
     59          6           0        3.168566   -1.556721    2.544170
     60          1           0        4.184206   -1.180491    2.492154
     61          7           0        2.223599   -0.765436    2.031459
 ---------------------------------------------------------------------

 SCF Done:  E(RB3LYP) =  -1935.49185480     A.U. after   15 cycles

      1  P    Isotropic =   224.6062   Anisotropy =    85.4125

      2  P    Isotropic =   209.8234   Anisotropy =   102.0981

      3  C    Isotropic =   125.6112   Anisotropy =    19.0876

      4  C    Isotropic =   145.1838   Anisotropy =    30.6207

      5  C    Isotropic =    29.2247   Anisotropy =   200.0398

      6  C    Isotropic =    51.2368   Anisotropy =   180.9845

      7  C    Isotropic =    49.9784   Anisotropy =   182.9284

      8  C    Isotropic =    54.7561   Anisotropy =   178.4391

      9  C    Isotropic =    51.1899   Anisotropy =   182.6151

     10  C    Isotropic =    51.4089   Anisotropy =   184.5975

     11  C    Isotropic =    40.1570   Anisotropy =   198.4002

     12  C    Isotropic =    37.4672   Anisotropy =   184.8541

     13  C    Isotropic =    49.8486   Anisotropy =   184.3664

     14  C    Isotropic =    47.6114   Anisotropy =   190.5870

     15  C    Isotropic =    49.6903   Anisotropy =   184.4470

     16  C    Isotropic =    33.7830   Anisotropy =   206.6792

     17  C    Isotropic =    30.4024   Anisotropy =   211.2575

     18  C    Isotropic =    42.2720   Anisotropy =   180.8943

     19  C    Isotropic =    48.9616   Anisotropy =   184.8307

     20  C    Isotropic =    49.0291   Anisotropy =   187.4785

     21  C    Isotropic =    49.3576   Anisotropy =   183.7037

     22  C    Isotropic =    44.6210   Anisotropy =   186.8760

     23  C    Isotropic =    35.7073   Anisotropy =   188.3356

     24  C    Isotropic =    47.8245   Anisotropy =   181.9175

     25  C    Isotropic =    50.6350   Anisotropy =   183.0100

     26  C    Isotropic =    53.2581   Anisotropy =   180.5853

     27  C    Isotropic =    50.0363   Anisotropy =   183.5034

     28  C    Isotropic =    48.0963   Anisotropy =   184.2639

     29  H    Isotropic =    29.4388   Anisotropy =     4.4503

     30  H    Isotropic =    28.2927   Anisotropy =     4.6634

     31  H    Isotropic =    28.8495   Anisotropy =     5.4701

     32  H    Isotropic =    24.8726   Anisotropy =    13.3070

     33  H    Isotropic =    24.6144   Anisotropy =     6.2110

     34  H    Isotropic =    24.8176   Anisotropy =     3.6293

     35  H    Isotropic =    24.7852   Anisotropy =     6.1068

     36  H    Isotropic =    24.7949   Anisotropy =     9.9898

     37  H    Isotropic =    23.6409   Anisotropy =     8.0403

     38  H    Isotropic =    24.1302   Anisotropy =     5.0427

     39  H    Isotropic =    24.0252   Anisotropy =     3.9787

     40  H    Isotropic =    23.9947   Anisotropy =     6.5382

     41  H    Isotropic =    21.5802   Anisotropy =     8.3289

     42  H    Isotropic =    23.6066   Anisotropy =     9.2085

     43  H    Isotropic =    24.0914   Anisotropy =     5.3402

     44  H    Isotropic =    24.2210   Anisotropy =     4.0752

     45  H    Isotropic =    24.2652   Anisotropy =     6.3705

     46  H    Isotropic =    23.9189   Anisotropy =    11.5727

     47  H    Isotropic =    25.2162   Anisotropy =     7.3123

     48  H    Isotropic =    24.8344   Anisotropy =     8.2241

     49  H    Isotropic =    24.6542   Anisotropy =     4.4661

     50  H    Isotropic =    24.4666   Anisotropy =     5.3633

     51  H    Isotropic =    24.5157   Anisotropy =    11.5289

     52  C    Isotropic =    11.5069   Anisotropy =   194.0588

     53  C    Isotropic =    56.6113   Anisotropy =   159.8319

     54  C    Isotropic =    42.0568   Anisotropy =   201.5481

     55  H    Isotropic =    25.0533   Anisotropy =     9.8029

     56  H    Isotropic =    24.4402   Anisotropy =     5.9746

     57  C    Isotropic =    58.6915   Anisotropy =   174.6131

     58  H    Isotropic =    24.9847   Anisotropy =     4.1052

     59  C    Isotropic =    27.9780   Anisotropy =   173.8957

     60  H    Isotropic =    23.6117   Anisotropy =     7.3064

     61  N    Isotropic =   -93.7060   Anisotropy =   553.4191

 The electronic state is 1-A.
 Alpha  occ. eigenvalues --  -77.04954 -77.04409 -14.31582 -10.22049 -10.21230
 Alpha  occ. eigenvalues --  -10.19860 -10.19802 -10.18700 -10.18659 -10.18582
 Alpha  occ. eigenvalues --  -10.18545 -10.18377 -10.18278 -10.18241 -10.18161
 Alpha  occ. eigenvalues --  -10.18144 -10.18088 -10.18072 -10.17928 -10.17869
 Alpha  occ. eigenvalues --  -10.17810 -10.17606 -10.17574 -10.17494 -10.17490
 Alpha  occ. eigenvalues --  -10.17484 -10.17427 -10.17274 -10.17127 -10.17115
 Alpha  occ. eigenvalues --  -10.17036 -10.16930 -10.16742 -10.16724  -6.53499
 Alpha  occ. eigenvalues --   -6.52973  -4.69648  -4.69620  -4.69137  -4.69128
 Alpha  occ. eigenvalues --   -4.69088  -4.68612  -0.95161  -0.86486  -0.85923
 Alpha  occ. eigenvalues --   -0.85689  -0.85131  -0.81258  -0.80778  -0.77273
 Alpha  occ. eigenvalues --   -0.76244  -0.75503  -0.74935  -0.74844  -0.74578
 Alpha  occ. eigenvalues --   -0.74488  -0.74042  -0.73970  -0.68145  -0.64064
 Alpha  occ. eigenvalues --   -0.63786  -0.62254  -0.61364  -0.60816  -0.60687
 Alpha  occ. eigenvalues --   -0.60362  -0.60126  -0.59729  -0.59554  -0.56074
 Alpha  occ. eigenvalues --   -0.54886  -0.52674  -0.52221  -0.51692  -0.50251
 Alpha  occ. eigenvalues --   -0.49976  -0.49617  -0.47339  -0.46167  -0.46009
 Alpha  occ. eigenvalues --   -0.45556  -0.45526  -0.45414  -0.45217  -0.44797
 Alpha  occ. eigenvalues --   -0.44579  -0.43766  -0.43064  -0.42889  -0.42565
 Alpha  occ. eigenvalues --   -0.42359  -0.42153  -0.41929  -0.41459  -0.40552
 Alpha  occ. eigenvalues --   -0.40061  -0.39606  -0.38241  -0.38020  -0.37603
 Alpha  occ. eigenvalues --   -0.37478  -0.37024  -0.36940  -0.36604  -0.35332
 Alpha  occ. eigenvalues --   -0.35128  -0.34698  -0.34530  -0.34171  -0.32579
 Alpha  occ. eigenvalues --   -0.31738  -0.30969  -0.29676  -0.28100  -0.26992
 Alpha  occ. eigenvalues --   -0.26809  -0.26567  -0.26557  -0.26280  -0.26014
 Alpha  occ. eigenvalues --   -0.25585  -0.25325  -0.25145  -0.21515  -0.18109
 Alpha virt. eigenvalues --   -0.04047  -0.03606  -0.03186  -0.02646  -0.02319
 Alpha virt. eigenvalues --   -0.02128  -0.01644  -0.01210  -0.01071  -0.00506
 Alpha virt. eigenvalues --    0.02542   0.03429   0.04502   0.04803   0.05143

 Mulliken charges:
               1
     1  P    0.155769
     2  P    0.160876
     3  C   -0.226282
     4  C   -0.205562
     5  C    0.119564
     6  C   -0.174075
     7  C   -0.128846
     8  C   -0.112623
     9  C   -0.119461
    10  C   -0.205949
    11  C   -0.092444
    12  C   -0.121662
    13  C   -0.115012
    14  C   -0.088042
    15  C   -0.127948
    16  C   -0.144639
    17  C    0.055814
    18  C   -0.200681
    19  C   -0.097824
    20  C   -0.103793
    21  C   -0.108473
    22  C   -0.205195
    23  C    0.049034
    24  C   -0.137928
    25  C   -0.156503
    26  C   -0.105308
    27  C   -0.110303
    28  C   -0.201250
    29  H    0.115999
    30  H    0.122087
    31  H    0.112258
    32  H    0.138085
    33  H    0.103633
    34  H    0.102985
    35  H    0.101441
    36  H    0.105235
    37  H    0.116717
    38  H    0.109970
    39  H    0.109700
    40  H    0.107410
    41  H    0.204505
    42  H    0.121405
    43  H    0.111402
    44  H    0.111417
    45  H    0.109417
    46  H    0.141373
    47  H    0.157524
    48  H    0.107020
    49  H    0.106332
    50  H    0.107989
    51  H    0.126691
    52  C    0.223680
    53  C   -0.175293
    54  C   -0.099480
    55  H    0.124584
    56  H    0.120377
    57  C   -0.088755
    58  H    0.114642
    59  C   -0.050301
    60  H    0.113945
    61  N   -0.285254
 Sum of Mulliken charges =  -0.00000

 Dipole moment (field-independent basis, Debye):
    X=             -0.1711    Y=             -2.0141    Z=              3.1441  Tot=              3.7378
 Quadrupole moment (field-independent basis, Debye-Ang):
   XX=           -202.1227   YY=           -190.2461   ZZ=           -216.1288
   XY=              1.0681   XZ=              2.1818   YZ=             -0.0987

 Summary of Natural Population Analysis:

                                       Natural Population
                Natural  -----------------------------------------------
    Atom  No    Charge         Core      Valence    Rydberg      Total
 -----------------------------------------------------------------------
      P    1    0.83735      9.99799     4.13208    0.03257    14.16265
      P    2    0.85195      9.99805     4.11819    0.03181    14.14805
      C    3   -0.74643      1.99937     4.71380    0.03325     6.74643
      C    4   -0.44357      1.99928     4.42533    0.01895     6.44357
      C    5   -0.30982      1.99898     4.27909    0.03175     6.30982
      C    6   -0.21107      1.99908     4.19250    0.01950     6.21107
      C    7   -0.19531      1.99919     4.17747    0.01865     6.19531
      C    8   -0.22129      1.99919     4.20246    0.01964     6.22129
      C    9   -0.19621      1.99918     4.17835    0.01868     6.19621
      C   10   -0.21139      1.99908     4.19296    0.01935     6.21139
      C   11   -0.35240      1.99899     4.32039    0.03302     6.35240
      C   12   -0.18486      1.99910     4.16530    0.02046     6.18486
      C   13   -0.21194      1.99918     4.19336    0.01940     6.21194
      C   14   -0.19449      1.99919     4.17630    0.01900     6.19449
      C   15   -0.21052      1.99918     4.19260    0.01874     6.21052
      C   16   -0.20553      1.99908     4.18606    0.02039     6.20553
      C   17   -0.33119      1.99900     4.29948    0.03270     6.33119
      C   18   -0.19889      1.99910     4.17940    0.02038     6.19889
      C   19   -0.20337      1.99918     4.18481    0.01937     6.20337
      C   20   -0.20168      1.99919     4.18331    0.01918     6.20168
      C   21   -0.20532      1.99919     4.18703    0.01910     6.20532
      C   22   -0.20304      1.99908     4.18393    0.02003     6.20304
      C   23   -0.33266      1.99899     4.30263    0.03104     6.33266
      C   24   -0.21462      1.99908     4.19577    0.01977     6.21462
      C   25   -0.19543      1.99918     4.17769    0.01855     6.19543
      C   26   -0.21526      1.99919     4.19654    0.01953     6.21526
      C   27   -0.19820      1.99918     4.18042    0.01859     6.19820
      C   28   -0.20761      1.99910     4.18892    0.01960     6.20761
      H   29    0.25143      0.00000     0.74673    0.00184     0.74857
      H   30    0.22674      0.00000     0.77080    0.00246     0.77326
      H   31    0.21224      0.00000     0.78495    0.00281     0.78776
      H   32    0.21383      0.00000     0.78437    0.00179     0.78617
      H   33    0.20587      0.00000     0.79284    0.00129     0.79413
      H   34    0.20574      0.00000     0.79308    0.00118     0.79426
      H   35    0.20566      0.00000     0.79306    0.00128     0.79434
      H   36    0.19796      0.00000     0.80012    0.00192     0.80204
      H   37    0.22125      0.00000     0.77720    0.00155     0.77875
      H   38    0.21026      0.00000     0.78847    0.00126     0.78974
      H   39    0.20757      0.00000     0.79123    0.00120     0.79243
      H   40    0.20754      0.00000     0.79105    0.00142     0.79246
      H   41    0.24770      0.00000     0.74992    0.00238     0.75230
      H   42    0.21724      0.00000     0.78121    0.00155     0.78276
      H   43    0.21005      0.00000     0.78870    0.00126     0.78995
      H   44    0.20870      0.00000     0.79013    0.00117     0.79130
      H   45    0.20770      0.00000     0.79093    0.00137     0.79230
      H   46    0.21325      0.00000     0.78444    0.00231     0.78675
      H   47    0.21207      0.00000     0.78588    0.00205     0.78793
      H   48    0.20878      0.00000     0.78994    0.00128     0.79122
      H   49    0.20739      0.00000     0.79143    0.00118     0.79261
      H   50    0.20806      0.00000     0.79067    0.00127     0.79194
      H   51    0.21294      0.00000     0.78528    0.00178     0.78706
      C   52    0.21280      1.99915     3.76231    0.02574     5.78720
      C   53   -0.24802      1.99905     4.22989    0.01907     6.24802
      C   54   -0.16027      1.99919     4.14176    0.01933     6.16027
      H   55    0.21521      0.00000     0.78343    0.00136     0.78479
      H   56    0.21176      0.00000     0.78702    0.00122     0.78824
      C   57   -0.25647      1.99915     4.23776    0.01957     6.25647
      H   58    0.21469      0.00000     0.78409    0.00122     0.78531
      C   59    0.04909      1.99924     3.92754    0.02413     5.95091
      H   60    0.19064      0.00000     0.80799    0.00137     0.80936
      N   61   -0.43663      1.99935     5.40244    0.03483     7.43663
 =======================================================================
   * Total *   -0.00000     83.96873   165.21282    0.81845   250.00000

 Normal termination of Gaussian 16 at Fri Jan 24 16:01:45 2025.
