 Gaussian 16, Revision B.01,
 Gaussian 16:  ES64L-G16RevB.01 20-Dec-2017

 --------------------------------------------
 # nmr=giao b3lyp/def2TZVP pop=nbo scfcyc=200
 --------------------------------------------

 --------------
 MS-30 SPE NoRh
 --------------
 Symbolic Z-matrix:
 Charge =  0 Multiplicity = 1

                         Standard orientation:
 ---------------------------------------------------------------------
 Center     Atomic      Atomic             Coordinates (Angstroms)
 Number     Number       Type             X           Y           Z
 ---------------------------------------------------------------------
      1         15           0       -1.412549   -0.188821   -1.148811
      2         15           0        1.410754   -0.208555   -1.151724
      3          7           0       -0.007317   -1.612365    2.192145
      4          6           0       -2.711700   -1.478651   -0.919396
      5          6           0       -3.869562   -1.368447   -1.702029
      6          1           0       -4.006405   -0.520220   -2.362559
      7          6           0       -4.866692   -2.331366   -1.622124
      8          1           0       -5.757885   -2.232357   -2.229480
      9          6           0       -4.720742   -3.418342   -0.763528
     10          1           0       -5.498565   -4.168569   -0.701750
     11          6           0       -3.578337   -3.529633    0.017723
     12          1           0       -3.464392   -4.365527    0.697425
     13          6           0       -2.573879   -2.567589   -0.055894
     14          1           0       -1.705852   -2.670221    0.582562
     15          6           0       -2.278485    1.373430   -0.709041
     16          6           0       -3.205994    1.415256    0.337710
     17          1           0       -3.431343    0.521523    0.904753
     18          6           0       -3.855310    2.604229    0.645730
     19          1           0       -4.574133    2.628974    1.454588
     20          6           0       -3.589928    3.758575   -0.088522
     21          1           0       -4.103228    4.681994    0.151160
     22          6           0       -2.675358    3.720926   -1.135678
     23          1           0       -2.475471    4.613646   -1.714538
     24          6           0       -2.024612    2.532175   -1.447559
     25          1           0       -1.317392    2.501320   -2.267282
     26          6           0        2.275255    1.362683   -0.742564
     27          6           0        2.053850    2.494096   -1.532509
     28          1           0        1.374227    2.434018   -2.373507
     29          6           0        2.707637    3.688296   -1.247005
     30          1           0        2.533387    4.559750   -1.865651
     31          6           0        3.589963    3.758515   -0.174701
     32          1           0        4.104320    4.686184    0.044279
     33          6           0        3.823973    2.630876    0.609510
     34          1           0        4.519580    2.681073    1.437984
     35          6           0        3.173205    1.436304    0.327434
     36          1           0        3.373252    0.563199    0.934557
     37          6           0        2.713017   -1.489892   -0.891267
     38          6           0        2.553616   -2.588156   -0.043562
     39          1           0        1.667062   -2.700966    0.567284
     40          6           0        3.560858   -3.545207    0.054406
     41          1           0        3.429675   -4.388424    0.721658
     42          6           0        4.726918   -3.420470   -0.691061
     43          1           0        5.506522   -4.167840   -0.610863
     44          6           0        4.893392   -2.325477   -1.534265
     45          1           0        5.802896   -2.215424   -2.111648
     46          6           0        3.893572   -1.366085   -1.635306
     47          1           0        4.046797   -0.511142   -2.283358
     48          6           0       -0.002332   -0.603672    0.053090
     49          1           0       -0.008972   -1.689999   -0.073321
     50          6           0       -0.002263   -0.422419    1.556261
     51          6           0        0.002713    0.794999    2.257642
     52          6           0        0.002690    0.714290    3.655494
     53          1           0        0.007567    1.632149    4.232025
     54          6           0       -0.002352   -0.507132    4.302254
     55          1           0       -0.001901   -0.574371    5.381963
     56          6           0       -0.007631   -1.655383    3.518771
     57          1           0       -0.012355   -2.642027    3.968652
     58          6           0        0.004322    2.165282    1.635574
     59          1           0       -0.890275    2.716741    1.932457
     60          1           0        0.869576    2.735729    1.978845
     61          1           0        0.032652    2.145903    0.553224
 ---------------------------------------------------------------------

 SCF Done:  E(RB3LYP) =  -1935.49093555     A.U. after   15 cycles

      1  P    Isotropic =   213.7480   Anisotropy =   112.5159

      2  P    Isotropic =   212.7549   Anisotropy =   112.4662

      3  N    Isotropic =   -99.6503   Anisotropy =   507.5772

      4  C    Isotropic =    31.4741   Anisotropy =   192.2610

      5  C    Isotropic =    47.6782   Anisotropy =   183.5259

      6  H    Isotropic =    24.7230   Anisotropy =    11.9105

      7  C    Isotropic =    50.1405   Anisotropy =   183.0494

      8  H    Isotropic =    24.5330   Anisotropy =     5.6697

      9  C    Isotropic =    52.9195   Anisotropy =   180.2330

     10  H    Isotropic =    24.6044   Anisotropy =     4.2248

     11  C    Isotropic =    50.1889   Anisotropy =   182.3884

     12  H    Isotropic =    24.2926   Anisotropy =     7.0088

     13  C    Isotropic =    47.8229   Anisotropy =   188.3295

     14  H    Isotropic =    22.9660   Anisotropy =    11.1772

     15  C    Isotropic =    34.2897   Anisotropy =   206.1889

     16  C    Isotropic =    38.7033   Anisotropy =   192.7453

     17  H    Isotropic =    24.8155   Anisotropy =    10.0477

     18  C    Isotropic =    49.4920   Anisotropy =   184.9556

     19  H    Isotropic =    24.7493   Anisotropy =     6.1536

     20  C    Isotropic =    48.8215   Anisotropy =   189.1548

     21  H    Isotropic =    24.4182   Anisotropy =     3.7994

     22  C    Isotropic =    50.7902   Anisotropy =   183.0408

     23  H    Isotropic =    24.2690   Anisotropy =     5.5567

     24  C    Isotropic =    40.1327   Anisotropy =   182.5129

     25  H    Isotropic =    23.2985   Anisotropy =     8.1983

     26  C    Isotropic =    34.2880   Anisotropy =   206.1974

     27  C    Isotropic =    39.9230   Anisotropy =   182.1789

     28  H    Isotropic =    23.2455   Anisotropy =     8.2359

     29  C    Isotropic =    50.7853   Anisotropy =   182.9803

     30  H    Isotropic =    24.2180   Anisotropy =     5.4438

     31  C    Isotropic =    48.7693   Anisotropy =   189.4366

     32  H    Isotropic =    24.3924   Anisotropy =     3.8076

     33  C    Isotropic =    49.3216   Anisotropy =   185.2725

     34  H    Isotropic =    24.7147   Anisotropy =     6.1720

     35  C    Isotropic =    38.4103   Anisotropy =   192.8125

     36  H    Isotropic =    24.7838   Anisotropy =     9.9061

     37  C    Isotropic =    31.1849   Anisotropy =   192.1180

     38  C    Isotropic =    48.0437   Anisotropy =   188.1513

     39  H    Isotropic =    22.9925   Anisotropy =    11.1769

     40  C    Isotropic =    50.1310   Anisotropy =   182.2495

     41  H    Isotropic =    24.3055   Anisotropy =     7.0145

     42  C    Isotropic =    53.0146   Anisotropy =   179.9674

     43  H    Isotropic =    24.6180   Anisotropy =     4.2168

     44  C    Isotropic =    50.1767   Anisotropy =   182.9164

     45  H    Isotropic =    24.5565   Anisotropy =     5.7380

     46  C    Isotropic =    48.0240   Anisotropy =   183.6063

     47  H    Isotropic =    24.7921   Anisotropy =    12.0781

     48  C    Isotropic =   128.8683   Anisotropy =    39.1734

     49  H    Isotropic =    26.2046   Anisotropy =     7.1985

     50  C    Isotropic =    18.6336   Anisotropy =   164.8918

     51  C    Isotropic =    41.8742   Anisotropy =   193.3425

     52  C    Isotropic =    38.8568   Anisotropy =   186.4780

     53  H    Isotropic =    24.7019   Anisotropy =     8.9452

     54  C    Isotropic =    58.6522   Anisotropy =   167.8303

     55  H    Isotropic =    24.8523   Anisotropy =     4.2448

     56  C    Isotropic =    31.2961   Anisotropy =   163.8735

     57  H    Isotropic =    23.0323   Anisotropy =     5.4838

     58  C    Isotropic =   165.0383   Anisotropy =    26.6834

     59  H    Isotropic =    31.7164   Anisotropy =     7.1551

     60  H    Isotropic =    31.6044   Anisotropy =     6.7120

     61  H    Isotropic =    31.7428   Anisotropy =     4.1163

 The electronic state is 1-A.
 Alpha  occ. eigenvalues --  -77.05118 -77.05114 -14.31455 -10.22419 -10.20827
 Alpha  occ. eigenvalues --  -10.19788 -10.19586 -10.19089 -10.18685 -10.18667
 Alpha  occ. eigenvalues --  -10.18488 -10.18460 -10.18445 -10.18404 -10.18367
 Alpha  occ. eigenvalues --  -10.18289 -10.18255 -10.18194 -10.18162 -10.18135
 Alpha  occ. eigenvalues --  -10.18103 -10.18038 -10.17991 -10.17272 -10.17222
 Alpha  occ. eigenvalues --  -10.17188 -10.17146 -10.17089 -10.17057 -10.16990
 Alpha  occ. eigenvalues --  -10.16946 -10.16942 -10.16901 -10.16586  -6.53641
 Alpha  occ. eigenvalues --   -6.53635  -4.69800  -4.69794  -4.69747  -4.69741
 Alpha  occ. eigenvalues --   -4.69285  -4.69279  -0.95001  -0.86606  -0.86523
 Alpha  occ. eigenvalues --   -0.85374  -0.85313  -0.81864  -0.80149  -0.76880
 Alpha  occ. eigenvalues --   -0.76560  -0.75620  -0.75559  -0.74747  -0.74456
 Alpha  occ. eigenvalues --   -0.74386  -0.74343  -0.72860  -0.69560  -0.64080
 Alpha  occ. eigenvalues --   -0.63860  -0.62375  -0.61423  -0.61305  -0.60807
 Alpha  occ. eigenvalues --   -0.60317  -0.60039  -0.59949  -0.59593  -0.56159
 Alpha  occ. eigenvalues --   -0.55304  -0.52480  -0.52171  -0.51904  -0.50423
 Alpha  occ. eigenvalues --   -0.49824  -0.49200  -0.46392  -0.46226  -0.46186
 Alpha  occ. eigenvalues --   -0.45793  -0.45591  -0.45316  -0.44906  -0.44670
 Alpha  occ. eigenvalues --   -0.44213  -0.43480  -0.43238  -0.42984  -0.42739
 Alpha  occ. eigenvalues --   -0.42181  -0.42019  -0.41767  -0.40895  -0.40739
 Alpha  occ. eigenvalues --   -0.39945  -0.39567  -0.38591  -0.38501  -0.37961
 Alpha  occ. eigenvalues --   -0.37201  -0.37089  -0.36907  -0.36224  -0.35536
 Alpha  occ. eigenvalues --   -0.35312  -0.34970  -0.34563  -0.34153  -0.33446
 Alpha  occ. eigenvalues --   -0.32347  -0.32083  -0.28758  -0.27697  -0.27100
 Alpha  occ. eigenvalues --   -0.26939  -0.26735  -0.26568  -0.26356  -0.26106
 Alpha  occ. eigenvalues --   -0.25408  -0.25356  -0.25062  -0.21902  -0.18515
 Alpha virt. eigenvalues --   -0.04208  -0.03896  -0.03630  -0.02878  -0.02179
 Alpha virt. eigenvalues --   -0.02058  -0.01918  -0.01313  -0.00943  -0.00331
 Alpha virt. eigenvalues --    0.02406   0.03700   0.04564   0.04924   0.05126

 Mulliken charges:
               1
     1  P    0.130432
     2  P    0.134232
     3  N   -0.323949
     4  C    0.048756
     5  C   -0.164536
     6  H    0.112676
     7  C   -0.117297
     8  H    0.105940
     9  C   -0.101416
    10  H    0.105339
    11  C   -0.151705
    12  H    0.104598
    13  C   -0.159078
    14  H    0.151458
    15  C   -0.026997
    16  C   -0.119176
    17  H    0.139602
    18  C   -0.140112
    19  H    0.109737
    20  C   -0.086781
    21  H    0.111809
    22  C   -0.118209
    23  H    0.108901
    24  C   -0.129523
    25  H    0.118536
    26  C   -0.043649
    27  C   -0.130501
    28  H    0.124380
    29  C   -0.120397
    30  H    0.109313
    31  C   -0.081907
    32  H    0.112018
    33  C   -0.142686
    34  H    0.109933
    35  C   -0.109669
    36  H    0.138827
    37  C    0.055424
    38  C   -0.162129
    39  H    0.148124
    40  C   -0.151207
    41  H    0.104594
    42  C   -0.102026
    43  H    0.104934
    44  C   -0.118830
    45  H    0.105638
    46  C   -0.166104
    47  H    0.114548
    48  C   -0.179583
    49  H    0.125117
    50  C    0.265483
    51  C   -0.037450
    52  C   -0.113234
    53  H    0.115582
    54  C   -0.121285
    55  H    0.112890
    56  C   -0.059893
    57  H    0.112191
    58  C   -0.391990
    59  H    0.138362
    60  H    0.135076
    61  H    0.156868
 Sum of Mulliken charges =  -0.00000

 Dipole moment (field-independent basis, Debye):
    X=             -0.0151    Y=              2.9835    Z=              3.0516  Tot=              4.2678
 Quadrupole moment (field-independent basis, Debye-Ang):
   XX=           -204.3949   YY=           -198.2494   ZZ=           -207.5732
   XY=              0.5210   XZ=             -0.0049   YZ=             -5.9277

 Summary of Natural Population Analysis:

                                       Natural Population
                Natural  -----------------------------------------------
    Atom  No    Charge         Core      Valence    Rydberg      Total
 -----------------------------------------------------------------------
      P    1    0.85333      9.99799     4.11724    0.03144    14.14667
      P    2    0.85383      9.99799     4.11659    0.03159    14.14617
      N    3   -0.44760      1.99939     5.41495    0.03326     7.44760
      C    4   -0.32434      1.99900     4.29408    0.03126     6.32434
      C    5   -0.20295      1.99909     4.18421    0.01965     6.20295
      H    6    0.21009      0.00000     0.78819    0.00172     0.78991
      C    7   -0.19830      1.99918     4.18051    0.01860     6.19830
      H    8    0.20752      0.00000     0.79121    0.00127     0.79248
      C    9   -0.21374      1.99918     4.19512    0.01944     6.21374
      H   10    0.20677      0.00000     0.79205    0.00118     0.79323
      C   11   -0.19558      1.99919     4.17773    0.01867     6.19558
      H   12    0.20664      0.00000     0.79208    0.00128     0.79336
      C   13   -0.22206      1.99907     4.20333    0.01965     6.22206
      H   14    0.22251      0.00000     0.77528    0.00221     0.77749
      C   15   -0.33815      1.99899     4.30727    0.03190     6.33815
      C   16   -0.18933      1.99907     4.17014    0.02012     6.18933
      H   17    0.21702      0.00000     0.78051    0.00246     0.78298
      C   18   -0.20637      1.99919     4.18826    0.01892     6.20637
      H   19    0.20936      0.00000     0.78931    0.00132     0.79064
      C   20   -0.19756      1.99919     4.17936    0.01900     6.19756
      H   21    0.20911      0.00000     0.78973    0.00117     0.79089
      C   22   -0.20663      1.99918     4.18879    0.01867     6.20663
      H   23    0.20995      0.00000     0.78877    0.00128     0.79005
      C   24   -0.19299      1.99908     4.17409    0.01982     6.19299
      H   25    0.21334      0.00000     0.78444    0.00223     0.78666
      C   26   -0.34024      1.99899     4.30878    0.03247     6.34024
      C   27   -0.19255      1.99909     4.17362    0.01984     6.19255
      H   28    0.21625      0.00000     0.78224    0.00152     0.78375
      C   29   -0.20753      1.99918     4.18914    0.01922     6.20753
      H   30    0.21001      0.00000     0.78873    0.00127     0.78999
      C   31   -0.19696      1.99919     4.17878    0.01899     6.19696
      H   32    0.20913      0.00000     0.78969    0.00117     0.79087
      C   33   -0.20619      1.99919     4.18801    0.01899     6.20619
      H   34    0.20935      0.00000     0.78929    0.00136     0.79065
      C   35   -0.18874      1.99907     4.16943    0.02024     6.18874
      H   36    0.21696      0.00000     0.78057    0.00248     0.78304
      C   37   -0.32452      1.99900     4.29415    0.03136     6.32452
      C   38   -0.22169      1.99907     4.20295    0.01966     6.22169
      H   39    0.22200      0.00000     0.77581    0.00219     0.77800
      C   40   -0.19528      1.99919     4.17746    0.01863     6.19528
      H   41    0.20659      0.00000     0.79212    0.00128     0.79341
      C   42   -0.21443      1.99918     4.19579    0.01946     6.21443
      H   43    0.20664      0.00000     0.79218    0.00118     0.79336
      C   44   -0.19831      1.99918     4.18051    0.01861     6.19831
      H   45    0.20739      0.00000     0.79134    0.00127     0.79261
      C   46   -0.20369      1.99909     4.18496    0.01964     6.20369
      H   47    0.20991      0.00000     0.78837    0.00172     0.79009
      C   48   -0.81191      1.99923     4.77575    0.03694     6.81191
      H   49    0.28122      0.00000     0.71608    0.00271     0.71878
      C   50    0.17723      1.99895     3.79552    0.02830     5.82277
      C   51   -0.03736      1.99897     4.01960    0.01880     6.03736
      C   52   -0.15740      1.99911     4.13973    0.01856     6.15740
      H   53    0.20702      0.00000     0.79163    0.00136     0.79298
      C   54   -0.24897      1.99914     4.23019    0.01965     6.24897
      H   55    0.21362      0.00000     0.78516    0.00122     0.78638
      C   56    0.03567      1.99924     3.94016    0.02493     5.96433
      H   57    0.18880      0.00000     0.80983    0.00136     0.81120
      C   58   -0.62072      1.99941     4.60829    0.01303     6.62072
      H   59    0.22062      0.00000     0.77732    0.00206     0.77938
      H   60    0.21933      0.00000     0.77866    0.00201     0.78067
      H   61    0.22489      0.00000     0.77332    0.00179     0.77511
 =======================================================================
   * Total *    0.00000     83.96826   165.21839    0.81335   250.00000

 Normal termination of Gaussian 16 at Fri Jan 24 16:02:41 2025.
