 Gaussian 16, Revision B.01,
 Gaussian 16:  ES64L-G16RevB.01 20-Dec-2017

 --------------------------------------------
 # nmr=giao b3lyp/def2TZVP pop=nbo scfcyc=200
 --------------------------------------------

 --------------
 MS-44 SPE NoRh
 --------------
 Symbolic Z-matrix:
 Charge =  0 Multiplicity = 1

                         Standard orientation:
 ---------------------------------------------------------------------
 Center     Atomic      Atomic             Coordinates (Angstroms)
 Number     Number       Type             X           Y           Z
 ---------------------------------------------------------------------
      1         15           0        1.837686   -0.022567   -1.096149
      2         15           0       -0.586633    1.390627   -1.271936
      3          6           0        0.094925   -0.143600   -0.365801
      4          6           0        2.430038   -1.746873   -1.362577
      5          6           0        3.706022   -1.911969   -1.917253
      6          6           0        4.199519   -3.182659   -2.180687
      7          6           0        3.425612   -4.304868   -1.899994
      8          6           0        2.160268   -4.150219   -1.346939
      9          6           0        1.660801   -2.877973   -1.081522
     10          6           0        3.028229    0.697007    0.105009
     11          6           0        3.380708    2.042843   -0.016882
     12          6           0        4.288121    2.611798    0.871028
     13          6           0        4.854490    1.837590    1.876342
     14          6           0        4.512640    0.492881    1.996569
     15          6           0        3.603136   -0.078375    1.117788
     16          6           0       -2.305920    0.918779   -1.737415
     17          6           0       -2.507437    0.234681   -2.941174
     18          6           0       -3.780790   -0.195891   -3.299602
     19          6           0       -4.862611    0.057168   -2.461275
     20          6           0       -4.667806    0.734419   -1.261766
     21          6           0       -3.396425    1.161991   -0.896331
     22          6           0       -0.752821    2.873052   -0.196604
     23          6           0       -0.022208    3.056379    0.981037
     24          6           0       -0.115982    4.260015    1.674141
     25          6           0       -0.920258    5.289710    1.199423
     26          6           0       -1.640181    5.116239    0.021018
     27          6           0       -1.555255    3.918022   -0.676251
     28          1           0       -0.358421   -0.921540   -0.981242
     29          1           0        4.327654   -1.048728   -2.124918
     30          1           0        5.189301   -3.295998   -2.603383
     31          1           0        3.811931   -5.295644   -2.104146
     32          1           0        1.557107   -5.018885   -1.115707
     33          1           0        0.678857   -2.789343   -0.637517
     34          1           0        2.942384    2.642431   -0.805210
     35          1           0        4.556263    3.656136    0.771133
     36          1           0        5.566397    2.277420    2.564343
     37          1           0        4.952755   -0.111736    2.779110
     38          1           0        3.344855   -1.123551    1.221811
     39          1           0       -1.667813    0.040864   -3.597545
     40          1           0       -3.928469   -0.721128   -4.234409
     41          1           0       -5.854515   -0.270213   -2.744130
     42          1           0       -5.506743    0.930480   -0.606096
     43          1           0       -3.258529    1.687224    0.040289
     44          1           0        0.601538    2.267310    1.374406
     45          1           0        0.442356    4.386333    2.593108
     46          1           0       -0.989314    6.222013    1.745649
     47          1           0       -2.270728    5.911754   -0.355523
     48          1           0       -2.130018    3.797591   -1.586760
     49          6           0       -1.175282   -1.413398    1.521016
     50          6           0       -2.072087   -2.022675    0.635668
     51          6           0       -1.261792   -1.739922    2.884593
     52          6           0       -3.017521   -2.928779    1.097743
     53          1           0       -2.066105   -1.785651   -0.420015
     54          6           0       -2.201372   -2.646319    3.335776
     55          1           0       -0.577187   -1.265644    3.574808
     56          6           0       -3.098516   -3.262506    2.450798
     57          1           0       -3.706203   -3.381509    0.395486
     58          1           0       -2.248256   -2.884763    4.392469
     59          6           0       -0.134871   -0.429588    1.115510
     60          8           0        0.550851    0.140139    1.945504
     61          6           0       -4.104760   -4.261400    2.951358
     62          1           0       -4.851929   -4.493761    2.192566
     63          1           0       -3.612727   -5.196484    3.233166
     64          1           0       -4.620733   -3.890353    3.839033
 ---------------------------------------------------------------------

 SCF Done:  E(RB3LYP) =  -2032.82792858     A.U. after   16 cycles

      1  P    Isotropic =   209.1255   Anisotropy =   120.8988

      2  P    Isotropic =   215.4840   Anisotropy =    89.0383

      3  C    Isotropic =   127.7083   Anisotropy =    22.2590

      4  C    Isotropic =    31.5946   Anisotropy =   196.2675

      5  C    Isotropic =    47.5548   Anisotropy =   185.4972

      6  C    Isotropic =    49.7013   Anisotropy =   184.2344

      7  C    Isotropic =    52.9800   Anisotropy =   181.2778

      8  C    Isotropic =    50.5591   Anisotropy =   182.2363

      9  C    Isotropic =    50.0408   Anisotropy =   178.6597

     10  C    Isotropic =    35.7721   Anisotropy =   198.9564

     11  C    Isotropic =    40.1641   Anisotropy =   184.5145

     12  C    Isotropic =    51.2045   Anisotropy =   181.7627

     13  C    Isotropic =    48.6204   Anisotropy =   188.6338

     14  C    Isotropic =    50.1285   Anisotropy =   182.8555

     15  C    Isotropic =    37.7776   Anisotropy =   194.0043

     16  C    Isotropic =    31.2917   Anisotropy =   208.3279

     17  C    Isotropic =    42.6218   Anisotropy =   181.6779

     18  C    Isotropic =    49.2999   Anisotropy =   184.9627

     19  C    Isotropic =    49.1546   Anisotropy =   189.1317

     20  C    Isotropic =    49.4287   Anisotropy =   186.1646

     21  C    Isotropic =    41.6827   Anisotropy =   192.8948

     22  C    Isotropic =    37.7748   Anisotropy =   181.7687

     23  C    Isotropic =    44.9157   Anisotropy =   199.3334

     24  C    Isotropic =    49.8101   Anisotropy =   185.4757

     25  C    Isotropic =    52.4697   Anisotropy =   181.9874

     26  C    Isotropic =    51.2991   Anisotropy =   182.2579

     27  C    Isotropic =    48.7630   Anisotropy =   183.2150

     28  H    Isotropic =    27.1961   Anisotropy =     4.9971

     29  H    Isotropic =    24.5774   Anisotropy =    11.5335

     30  H    Isotropic =    24.4938   Anisotropy =     5.3343

     31  H    Isotropic =    24.6594   Anisotropy =     4.1953

     32  H    Isotropic =    24.6968   Anisotropy =     7.6813

     33  H    Isotropic =    24.4061   Anisotropy =     9.2933

     34  H    Isotropic =    23.7170   Anisotropy =     7.9655

     35  H    Isotropic =    24.3344   Anisotropy =     5.4158

     36  H    Isotropic =    24.2354   Anisotropy =     3.9583

     37  H    Isotropic =    24.4245   Anisotropy =     6.2595

     38  H    Isotropic =    24.4977   Anisotropy =    11.2795

     39  H    Isotropic =    23.5534   Anisotropy =     8.9298

     40  H    Isotropic =    24.0716   Anisotropy =     5.3391

     41  H    Isotropic =    24.2822   Anisotropy =     3.5599

     42  H    Isotropic =    24.5900   Anisotropy =     5.7405

     43  H    Isotropic =    24.3710   Anisotropy =    10.6347

     44  H    Isotropic =    24.0360   Anisotropy =     7.7029

     45  H    Isotropic =    24.6196   Anisotropy =     7.4522

     46  H    Isotropic =    24.6052   Anisotropy =     4.2330

     47  H    Isotropic =    24.5246   Anisotropy =     5.4572

     48  H    Isotropic =    24.5599   Anisotropy =    11.8134

     49  C    Isotropic =    42.5837   Anisotropy =   173.3949

     50  C    Isotropic =    47.5114   Anisotropy =   184.7257

     51  C    Isotropic =    47.9257   Anisotropy =   198.7067

     52  C    Isotropic =    50.0907   Anisotropy =   158.7335

     53  H    Isotropic =    24.9870   Anisotropy =     7.7926

     54  C    Isotropic =    48.7632   Anisotropy =   168.3583

     55  H    Isotropic =    23.4739   Anisotropy =     9.3323

     56  C    Isotropic =    30.8430   Anisotropy =   208.7014

     57  H    Isotropic =    24.9103   Anisotropy =     9.4638

     58  H    Isotropic =    24.4352   Anisotropy =     7.3945

     59  C    Isotropic =   -15.4983   Anisotropy =   151.8140

     60  O    Isotropic =  -274.8709   Anisotropy =   945.4849

     61  C    Isotropic =   160.2142   Anisotropy =    41.2018

     62  H    Isotropic =    29.8577   Anisotropy =     6.6728

     63  H    Isotropic =    29.3476   Anisotropy =     8.8667

     64  H    Isotropic =    29.4740   Anisotropy =     8.0954

 The electronic state is 1-A.
 Alpha  occ. eigenvalues --  -77.06020 -77.05172 -19.11075 -10.26640 -10.20196
 Alpha  occ. eigenvalues --  -10.20131 -10.19250 -10.19171 -10.18864 -10.18596
 Alpha  occ. eigenvalues --  -10.18535 -10.18534 -10.18464 -10.18464 -10.18443
 Alpha  occ. eigenvalues --  -10.18378 -10.18343 -10.18311 -10.18250 -10.18055
 Alpha  occ. eigenvalues --  -10.17977 -10.17688 -10.17585 -10.17581 -10.17524
 Alpha  occ. eigenvalues --  -10.17467 -10.17462 -10.17461 -10.17379 -10.17266
 Alpha  occ. eigenvalues --  -10.17255 -10.17221 -10.17085 -10.17044 -10.16957
 Alpha  occ. eigenvalues --  -10.16712  -6.54506  -6.53704  -4.70682  -4.70595
 Alpha  occ. eigenvalues --   -4.70150  -4.69880  -4.69795  -4.69345  -1.04345
 Alpha  occ. eigenvalues --   -0.87482  -0.86719  -0.85986  -0.85449  -0.85395
 Alpha  occ. eigenvalues --   -0.79973  -0.78163  -0.76507  -0.76102  -0.75730
 Alpha  occ. eigenvalues --   -0.75013  -0.74718  -0.74567  -0.74420  -0.74249
 Alpha  occ. eigenvalues --   -0.74084  -0.70760  -0.64245  -0.63988  -0.62254
 Alpha  occ. eigenvalues --   -0.61610  -0.61233  -0.60658  -0.60455  -0.60227
 Alpha  occ. eigenvalues --   -0.60072  -0.59739  -0.57407  -0.56200  -0.54378
 Alpha  occ. eigenvalues --   -0.52487  -0.52072  -0.51699  -0.49979  -0.49817
 Alpha  occ. eigenvalues --   -0.48123  -0.46640  -0.46250  -0.46156  -0.45693
 Alpha  occ. eigenvalues --   -0.45569  -0.45459  -0.45127  -0.44935  -0.44700
 Alpha  occ. eigenvalues --   -0.44327  -0.43711  -0.43509  -0.43243  -0.43026
 Alpha  occ. eigenvalues --   -0.42743  -0.42331  -0.42094  -0.41567  -0.41095
 Alpha  occ. eigenvalues --   -0.40735  -0.39862  -0.39240  -0.38462  -0.37865
 Alpha  occ. eigenvalues --   -0.37317  -0.37185  -0.36852  -0.36749  -0.36235
 Alpha  occ. eigenvalues --   -0.35552  -0.35461  -0.35100  -0.34871  -0.34490
 Alpha  occ. eigenvalues --   -0.34292  -0.32680  -0.32233  -0.31611  -0.28353
 Alpha  occ. eigenvalues --   -0.27231  -0.27199  -0.26911  -0.26637  -0.26149
 Alpha  occ. eigenvalues --   -0.26122  -0.25975  -0.25802  -0.25268  -0.25016
 Alpha  occ. eigenvalues --   -0.21650  -0.18861
 Alpha virt. eigenvalues --   -0.07143  -0.03686  -0.02970  -0.02860  -0.02386
 Alpha virt. eigenvalues --   -0.02084  -0.01925  -0.01797  -0.00976  -0.00225
 Alpha virt. eigenvalues --    0.01820   0.03063   0.03313   0.04134   0.04898

 Mulliken charges:
               1
     1  P    0.116758
     2  P    0.157449
     3  C   -0.164621
     4  C    0.030442
     5  C   -0.145991
     6  C   -0.121011
     7  C   -0.092363
     8  C   -0.169092
     9  C   -0.132165
    10  C    0.045646
    11  C   -0.169167
    12  C   -0.112897
    13  C   -0.091582
    14  C   -0.119914
    15  C   -0.120086
    16  C   -0.001627
    17  C   -0.178636
    18  C   -0.103913
    19  C   -0.098887
    20  C   -0.112375
    21  C   -0.157074
    22  C    0.058506
    23  C   -0.175994
    24  C   -0.140042
    25  C   -0.108834
    26  C   -0.108114
    27  C   -0.205053
    28  H    0.085113
    29  H    0.114863
    30  H    0.108439
    31  H    0.106815
    32  H    0.103312
    33  H    0.143948
    34  H    0.120758
    35  H    0.108124
    36  H    0.107925
    37  H    0.104523
    38  H    0.126678
    39  H    0.120899
    40  H    0.113168
    41  H    0.112509
    42  H    0.110846
    43  H    0.141120
    44  H    0.199822
    45  H    0.109229
    46  H    0.105541
    47  H    0.106962
    48  H    0.122336
    49  C    0.094584
    50  C   -0.189543
    51  C   -0.176497
    52  C   -0.192810
    53  H    0.164243
    54  C   -0.137907
    55  H    0.135143
    56  C    0.164226
    57  H    0.105256
    58  H    0.107492
    59  C    0.223780
    60  O   -0.352660
    61  C   -0.366391
    62  H    0.117670
    63  H    0.127024
    64  H    0.124101
 Sum of Mulliken charges =  -0.00000

 Dipole moment (field-independent basis, Debye):
    X=             -2.9141    Y=             -2.5201    Z=              0.9599  Tot=              3.9704
 Quadrupole moment (field-independent basis, Debye-Ang):
   XX=           -205.4771   YY=           -209.1467   ZZ=           -221.4536
   XY=              7.1223   XZ=              2.6343   YZ=              0.6565

 Summary of Natural Population Analysis:

                                       Natural Population
                Natural  -----------------------------------------------
    Atom  No    Charge         Core      Valence    Rydberg      Total
 -----------------------------------------------------------------------
      P    1    0.85713      9.99804     4.11194    0.03288    14.14287
      P    2    0.87998      9.99804     4.08951    0.03248    14.12002
      C    3   -0.86402      1.99927     4.82927    0.03548     6.86402
      C    4   -0.32338      1.99900     4.29305    0.03132     6.32338
      C    5   -0.20003      1.99909     4.18131    0.01963     6.20003
      C    6   -0.19564      1.99918     4.17787    0.01859     6.19564
      C    7   -0.21397      1.99919     4.19535    0.01944     6.21397
      C    8   -0.19628      1.99919     4.17834    0.01876     6.19628
      C    9   -0.21956      1.99908     4.20109    0.01939     6.21956
      C   10   -0.33351      1.99897     4.30165    0.03289     6.33351
      C   11   -0.18871      1.99909     4.16971    0.01992     6.18871
      C   12   -0.20823      1.99918     4.19033    0.01872     6.20823
      C   13   -0.19440      1.99919     4.17619    0.01902     6.19440
      C   14   -0.20458      1.99918     4.18668    0.01872     6.20458
      C   15   -0.17008      1.99907     4.15111    0.01990     6.17008
      C   16   -0.34177      1.99900     4.31038    0.03239     6.34177
      C   17   -0.20188      1.99910     4.18270    0.02007     6.20188
      C   18   -0.20585      1.99919     4.18729    0.01937     6.20585
      C   19   -0.20035      1.99919     4.18208    0.01908     6.20035
      C   20   -0.20211      1.99919     4.18402    0.01891     6.20211
      C   21   -0.19244      1.99908     4.17363    0.01973     6.19244
      C   22   -0.34408      1.99898     4.31409    0.03101     6.34408
      C   23   -0.21293      1.99908     4.19370    0.02014     6.21293
      C   24   -0.19442      1.99919     4.17693    0.01831     6.19442
      C   25   -0.21168      1.99919     4.19310    0.01940     6.21168
      C   26   -0.20210      1.99918     4.18425    0.01867     6.20210
      C   27   -0.20762      1.99909     4.18893    0.01960     6.20762
      H   28    0.25634      0.00000     0.74130    0.00236     0.74366
      H   29    0.21261      0.00000     0.78567    0.00172     0.78739
      H   30    0.20870      0.00000     0.79004    0.00126     0.79130
      H   31    0.20760      0.00000     0.79123    0.00117     0.79240
      H   32    0.20706      0.00000     0.79165    0.00128     0.79294
      H   33    0.20241      0.00000     0.79561    0.00198     0.79759
      H   34    0.21743      0.00000     0.78073    0.00183     0.78257
      H   35    0.20952      0.00000     0.78921    0.00127     0.79048
      H   36    0.20709      0.00000     0.79174    0.00118     0.79291
      H   37    0.20736      0.00000     0.79131    0.00133     0.79264
      H   38    0.21283      0.00000     0.78496    0.00221     0.78717
      H   39    0.21807      0.00000     0.78037    0.00155     0.78193
      H   40    0.21084      0.00000     0.78791    0.00126     0.78916
      H   41    0.20909      0.00000     0.78974    0.00117     0.79091
      H   42    0.20962      0.00000     0.78902    0.00136     0.79038
      H   43    0.21873      0.00000     0.77910    0.00217     0.78127
      H   44    0.24234      0.00000     0.75551    0.00215     0.75766
      H   45    0.20924      0.00000     0.78949    0.00127     0.79076
      H   46    0.20659      0.00000     0.79222    0.00118     0.79341
      H   47    0.20775      0.00000     0.79097    0.00127     0.79225
      H   48    0.21124      0.00000     0.78698    0.00178     0.78876
      C   49   -0.17099      1.99897     4.15005    0.02197     6.17099
      C   50   -0.16131      1.99911     4.14349    0.01872     6.16131
      C   51   -0.13836      1.99914     4.11967    0.01956     6.13836
      C   52   -0.21190      1.99909     4.19465    0.01816     6.21190
      H   53    0.21292      0.00000     0.78501    0.00207     0.78708
      C   54   -0.20798      1.99909     4.19133    0.01756     6.20798
      H   55    0.23322      0.00000     0.76520    0.00157     0.76678
      C   56    0.01465      1.99913     3.96789    0.01832     5.98535
      H   57    0.20580      0.00000     0.79256    0.00164     0.79420
      H   58    0.20734      0.00000     0.79133    0.00133     0.79266
      C   59    0.53673      1.99920     3.43024    0.03382     5.46327
      O   60   -0.55462      1.99977     6.52822    0.02663     8.55462
      C   61   -0.61465      1.99941     4.60328    0.01197     6.61465
      H   62    0.21210      0.00000     0.78689    0.00102     0.78790
      H   63    0.21985      0.00000     0.77892    0.00123     0.78015
      H   64    0.21728      0.00000     0.78156    0.00116     0.78272
 =======================================================================
   * Total *   -0.00000     87.96712   175.18954    0.84334   264.00000

 Normal termination of Gaussian 16 at Fri Jan 24 17:14:05 2025.
