 Gaussian 16, Revision B.01,
 Gaussian 16:  ES64L-G16RevB.01 20-Dec-2017

 --------------------------------------------
 # nmr=giao b3lyp/def2TZVP pop=nbo scfcyc=200
 --------------------------------------------

 --------------
 MS-49 SPE NoRh
 --------------
 Symbolic Z-matrix:
 Charge =  0 Multiplicity = 1

                         Standard orientation:
 ---------------------------------------------------------------------
 Center     Atomic      Atomic             Coordinates (Angstroms)
 Number     Number       Type             X           Y           Z
 ---------------------------------------------------------------------
      1          6           0        3.021994   -1.345845   -1.255432
      2          6           0        4.413312   -1.275407   -1.396977
      3          1           0        4.920768   -0.319318   -1.344685
      4          6           0        5.162759   -2.431398   -1.583000
      5          1           0        6.238128   -2.361423   -1.685736
      6          6           0        4.533850   -3.671921   -1.635379
      7          1           0        5.118296   -4.571999   -1.777230
      8          6           0        3.152661   -3.750201   -1.499300
      9          1           0        2.656696   -4.712314   -1.532627
     10          6           0        2.398465   -2.593865   -1.315985
     11          1           0        1.325479   -2.687314   -1.212657
     12          6           0        2.966580    1.183550    0.185848
     13          6           0        3.449083    0.562767    1.344629
     14          1           0        3.334484   -0.504889    1.481813
     15          6           0        4.101900    1.308519    2.316875
     16          1           0        4.474147    0.820211    3.209107
     17          6           0        4.286073    2.678025    2.143346
     18          1           0        4.799890    3.255287    2.901425
     19          6           0        3.818442    3.299811    0.991480
     20          1           0        3.969095    4.363004    0.848115
     21          6           0        3.163663    2.555895    0.015522
     22          1           0        2.807456    3.038142   -0.886035
     23          6           0        0.334333   -0.166782   -0.493578
     24          1           0        0.069328   -1.075413   -1.038805
     25          6           0        0.053977   -0.342619    0.997760
     26          1           0        0.121190    0.616449    1.516243
     27          1           0        0.883726   -0.930299    1.425965
     28          6           0       -0.914755    2.603768   -0.434769
     29          6           0       -1.812838    2.478455    0.632150
     30          1           0       -2.299971    1.533432    0.832177
     31          6           0       -2.100730    3.571980    1.439947
     32          1           0       -2.795728    3.463423    2.262576
     33          6           0       -1.500432    4.803053    1.190493
     34          1           0       -1.729416    5.653724    1.819437
     35          6           0       -0.611422    4.938985    0.130124
     36          1           0       -0.146697    5.895991   -0.070446
     37          6           0       -0.319211    3.844375   -0.677259
     38          1           0        0.375644    3.952135   -1.500476
     39          6           0       -2.102699    0.533064   -2.167785
     40          6           0       -3.281447    1.281140   -2.113574
     41          1           0       -3.296421    2.244941   -1.623936
     42          6           0       -4.451715    0.792840   -2.688594
     43          1           0       -5.358789    1.381176   -2.635873
     44          6           0       -4.457480   -0.442502   -3.325949
     45          1           0       -5.369061   -0.821126   -3.770836
     46          6           0       -3.283121   -1.187443   -3.398649
     47          1           0       -3.277390   -2.145465   -3.902365
     48          6           0       -2.112409   -0.699351   -2.833667
     49          1           0       -1.201439   -1.279670   -2.925434
     50         15           0        2.078310    0.235170   -1.117902
     51         15           0       -0.497831    1.188831   -1.532943
     52          5           0       -1.197731   -1.191991    1.478229
     53          6           0       -1.814492   -2.424964    0.718313
     54          1           0       -1.516887   -2.508078   -0.331047
     55          6           0       -3.372357   -2.437143    0.802955
     56          1           0       -3.787874   -2.394396   -0.206692
     57          1           0       -3.717314   -3.384709    1.228603
     58          6           0       -3.944574   -1.271284    1.621460
     59          1           0       -5.027079   -1.383823    1.725757
     60          1           0       -3.795773   -0.342333    1.052915
     61          6           0       -3.296782   -1.115439    3.004594
     62          1           0       -3.660912   -0.193991    3.465193
     63          1           0       -3.635981   -1.926130    3.656894
     64          6           0       -1.736501   -1.086178    2.954075
     65          1           0       -1.371702   -0.203655    3.486433
     66          6           0       -1.113745   -2.338708    3.659946
     67          1           0       -0.022293   -2.237394    3.684393
     68          1           0       -1.438441   -2.355748    4.705299
     69          6           0       -1.485514   -3.657023    2.971033
     70          1           0       -2.546648   -3.864042    3.126651
     71          1           0       -0.950388   -4.483091    3.447209
     72          6           0       -1.182077   -3.650017    1.467977
     73          1           0       -1.548484   -4.572521    1.007207
     74          1           0       -0.094939   -3.647652    1.321237
 ---------------------------------------------------------------------

 SCF Done:  E(RB3LYP) =  -2025.97058247     A.U. after   14 cycles

      1  C    Isotropic =    30.7055   Anisotropy =   195.7865

      2  C    Isotropic =    48.6330   Anisotropy =   183.0310

      3  H    Isotropic =    24.7922   Anisotropy =    12.5755

      4  C    Isotropic =    49.0022   Anisotropy =   184.2959

      5  H    Isotropic =    24.4769   Anisotropy =     5.8131

      6  C    Isotropic =    53.7633   Anisotropy =   178.8857

      7  H    Isotropic =    24.5852   Anisotropy =     4.1974

      8  C    Isotropic =    50.2238   Anisotropy =   181.4945

      9  H    Isotropic =    24.2943   Anisotropy =     7.1277

     10  C    Isotropic =    51.7118   Anisotropy =   180.7856

     11  H    Isotropic =    23.9143   Anisotropy =    10.1599

     12  C    Isotropic =    36.9979   Anisotropy =   202.9608

     13  C    Isotropic =    39.3858   Anisotropy =   189.7702

     14  H    Isotropic =    24.4157   Anisotropy =     9.8608

     15  C    Isotropic =    50.1346   Anisotropy =   183.5467

     16  H    Isotropic =    24.5630   Anisotropy =     6.2866

     17  C    Isotropic =    48.8605   Anisotropy =   189.1927

     18  H    Isotropic =    24.4581   Anisotropy =     4.0138

     19  C    Isotropic =    50.8257   Anisotropy =   183.1332

     20  H    Isotropic =    24.4122   Anisotropy =     5.6832

     21  C    Isotropic =    38.7479   Anisotropy =   184.6331

     22  H    Isotropic =    23.5930   Anisotropy =     8.4754

     23  C    Isotropic =   139.5835   Anisotropy =    16.3744

     24  H    Isotropic =    28.0822   Anisotropy =     5.7440

     25  C    Isotropic =   153.0011   Anisotropy =    22.8044

     26  H    Isotropic =    30.5805   Anisotropy =     2.7122

     27  H    Isotropic =    30.1851   Anisotropy =     4.8470

     28  C    Isotropic =    42.1433   Anisotropy =   198.1432

     29  C    Isotropic =    36.5552   Anisotropy =   191.4302

     30  H    Isotropic =    24.3695   Anisotropy =     7.3074

     31  C    Isotropic =    50.1615   Anisotropy =   183.5718

     32  H    Isotropic =    24.3833   Anisotropy =     7.2413

     33  C    Isotropic =    47.9979   Anisotropy =   190.5880

     34  H    Isotropic =    24.2894   Anisotropy =     4.2984

     35  C    Isotropic =    49.4458   Anisotropy =   185.2167

     36  H    Isotropic =    24.1508   Anisotropy =     5.3070

     37  C    Isotropic =    37.8647   Anisotropy =   183.2521

     38  H    Isotropic =    23.5258   Anisotropy =     8.6740

     39  C    Isotropic =    30.7174   Anisotropy =   198.8408

     40  C    Isotropic =    50.9765   Anisotropy =   182.9279

     41  H    Isotropic =    25.0577   Anisotropy =    12.9752

     42  C    Isotropic =    49.7534   Anisotropy =   183.7481

     43  H    Isotropic =    24.6336   Anisotropy =     6.0988

     44  C    Isotropic =    53.3858   Anisotropy =   179.9854

     45  H    Isotropic =    24.6201   Anisotropy =     3.5682

     46  C    Isotropic =    50.0901   Anisotropy =   184.1042

     47  H    Isotropic =    24.2734   Anisotropy =     5.8692

     48  C    Isotropic =    48.4136   Anisotropy =   186.3477

     49  H    Isotropic =    23.8746   Anisotropy =    10.0073

     50  P    Isotropic =   217.1388   Anisotropy =    97.3827

     51  P    Isotropic =   228.5509   Anisotropy =    88.1010

     52  B    Isotropic =     8.9702   Anisotropy =   167.2746

     53  C    Isotropic =   147.4137   Anisotropy =    27.7350

     54  H    Isotropic =    29.6230   Anisotropy =     8.5031

     55  C    Isotropic =   148.2500   Anisotropy =    24.1511

     56  H    Isotropic =    30.5603   Anisotropy =     8.4345

     57  H    Isotropic =    30.4394   Anisotropy =     5.9853

     58  C    Isotropic =   151.3297   Anisotropy =     2.8138

     59  H    Isotropic =    30.6437   Anisotropy =     9.1689

     60  H    Isotropic =    31.3552   Anisotropy =     8.4857

     61  C    Isotropic =   147.1433   Anisotropy =    25.0196

     62  H    Isotropic =    29.9128   Anisotropy =     9.3504

     63  H    Isotropic =    30.3167   Anisotropy =     6.7998

     64  C    Isotropic =   144.6317   Anisotropy =    12.3841

     65  H    Isotropic =    30.3306   Anisotropy =     5.8891

     66  C    Isotropic =   139.7998   Anisotropy =    22.2809

     67  H    Isotropic =    30.6271   Anisotropy =     6.7552

     68  H    Isotropic =    30.1124   Anisotropy =    10.4890

     69  C    Isotropic =   161.7576   Anisotropy =    17.6769

     70  H    Isotropic =    30.1589   Anisotropy =     6.6459

     71  H    Isotropic =    30.8512   Anisotropy =    11.3715

     72  C    Isotropic =   140.9373   Anisotropy =    22.7139

     73  H    Isotropic =    29.9648   Anisotropy =     9.1764

     74  H    Isotropic =    30.3358   Anisotropy =     7.2012

 The electronic state is 1-A.
 Alpha  occ. eigenvalues --  -77.04718 -77.04451 -10.19455 -10.18726 -10.18494
 Alpha  occ. eigenvalues --  -10.18444 -10.18417 -10.18417 -10.18407 -10.18246
 Alpha  occ. eigenvalues --  -10.18232 -10.18226 -10.18107 -10.18049 -10.17996
 Alpha  occ. eigenvalues --  -10.17892 -10.17847 -10.17666 -10.17574 -10.17561
 Alpha  occ. eigenvalues --  -10.17491 -10.17459 -10.17430 -10.17343 -10.17317
 Alpha  occ. eigenvalues --  -10.17267 -10.17229 -10.17177 -10.17155 -10.16521
 Alpha  occ. eigenvalues --  -10.16320 -10.16188 -10.16097 -10.15607 -10.14844
 Alpha  occ. eigenvalues --  -10.14735  -6.72685  -6.53279  -6.53022  -4.69424
 Alpha  occ. eigenvalues --   -4.69403  -4.69163  -4.69147  -4.68920  -4.68663
 Alpha  occ. eigenvalues --   -0.86631  -0.86277  -0.85679  -0.85577  -0.83104
 Alpha  occ. eigenvalues --   -0.78794  -0.77573  -0.76500  -0.75746  -0.75659
 Alpha  occ. eigenvalues --   -0.75286  -0.75254  -0.74849  -0.74618  -0.74581
 Alpha  occ. eigenvalues --   -0.74436  -0.68437  -0.67042  -0.66130  -0.63960
 Alpha  occ. eigenvalues --   -0.61757  -0.61408  -0.61053  -0.60699  -0.60164
 Alpha  occ. eigenvalues --   -0.60091  -0.59960  -0.58209  -0.57196  -0.56233
 Alpha  occ. eigenvalues --   -0.55237  -0.54698  -0.52317  -0.52147  -0.50456
 Alpha  occ. eigenvalues --   -0.50031  -0.49010  -0.46912  -0.46297  -0.46163
 Alpha  occ. eigenvalues --   -0.45988  -0.45766  -0.45588  -0.45365  -0.45243
 Alpha  occ. eigenvalues --   -0.45003  -0.44883  -0.43788  -0.43492  -0.43225
 Alpha  occ. eigenvalues --   -0.42876  -0.42595  -0.42469  -0.42314  -0.41201
 Alpha  occ. eigenvalues --   -0.40984  -0.40561  -0.40187  -0.40042  -0.38973
 Alpha  occ. eigenvalues --   -0.38070  -0.37876  -0.37701  -0.37366  -0.37213
 Alpha  occ. eigenvalues --   -0.37160  -0.35614  -0.35535  -0.35297  -0.35093
 Alpha  occ. eigenvalues --   -0.34834  -0.34714  -0.34197  -0.33713  -0.33518
 Alpha  occ. eigenvalues --   -0.33223  -0.32525  -0.32492  -0.32008  -0.30854
 Alpha  occ. eigenvalues --   -0.30487  -0.28239  -0.27100  -0.27016  -0.26884
 Alpha  occ. eigenvalues --   -0.26609  -0.26216  -0.26134  -0.25752  -0.25640
 Alpha  occ. eigenvalues --   -0.25445  -0.21778  -0.18169
 Alpha virt. eigenvalues --   -0.03999  -0.03147  -0.03009  -0.02537  -0.01950
 Alpha virt. eigenvalues --   -0.01849  -0.01229  -0.01087  -0.00864   0.01536
 Alpha virt. eigenvalues --    0.02026   0.03309   0.03817   0.04328   0.04704

 Mulliken charges:
               1
     1  C    0.068617
     2  C   -0.177403
     3  H    0.121307
     4  C   -0.117684
     5  H    0.107125
     6  C   -0.105982
     7  H    0.105739
     8  C   -0.140446
     9  H    0.103365
    10  C   -0.176912
    11  H    0.124547
    12  C    0.005398
    13  C   -0.148157
    14  H    0.131368
    15  C   -0.123736
    16  H    0.107371
    17  C   -0.089973
    18  H    0.110064
    19  C   -0.120260
    20  H    0.106224
    21  C   -0.121256
    22  H    0.116384
    23  C   -0.104487
    24  H    0.058236
    25  C   -0.217145
    26  H    0.156662
    27  H    0.112493
    28  C   -0.013051
    29  C   -0.134106
    30  H    0.153093
    31  C   -0.159222
    32  H    0.108448
    33  C   -0.071583
    34  H    0.111814
    35  C   -0.130020
    36  H    0.109964
    37  C   -0.118245
    38  H    0.126586
    39  C    0.097138
    40  C   -0.179035
    41  H    0.141073
    42  C   -0.117319
    43  H    0.105932
    44  C   -0.112272
    45  H    0.106511
    46  C   -0.121981
    47  H    0.105824
    48  C   -0.229980
    49  H    0.119115
    50  P    0.147568
    51  P    0.134706
    52  B   -0.265225
    53  C    0.041323
    54  H    0.053688
    55  C   -0.207844
    56  H    0.116534
    57  H    0.084950
    58  C   -0.187597
    59  H    0.084666
    60  H    0.110940
    61  C   -0.192386
    62  H    0.093634
    63  H    0.083503
    64  C    0.058330
    65  H    0.056080
    66  C   -0.203925
    67  H    0.096515
    68  H    0.095621
    69  C   -0.171252
    70  H    0.096327
    71  H    0.094682
    72  C   -0.208991
    73  H    0.096406
    74  H    0.101603
 Sum of Mulliken charges =  -0.00000

 Dipole moment (field-independent basis, Debye):
    X=             -0.6036    Y=              0.0400    Z=              2.8328  Tot=              2.8967
 Quadrupole moment (field-independent basis, Debye-Ang):
   XX=           -228.5164   YY=           -218.2864   ZZ=           -242.2183
   XY=              1.3983   XZ=              4.3304   YZ=              6.8068

 Summary of Natural Population Analysis:

                                       Natural Population
                Natural  -----------------------------------------------
    Atom  No    Charge         Core      Valence    Rydberg      Total
 -----------------------------------------------------------------------
      C    1   -0.31828      1.99900     4.28810    0.03118     6.31828
      C    2   -0.20582      1.99909     4.18708    0.01965     6.20582
      H    3    0.21199      0.00000     0.78624    0.00178     0.78801
      C    4   -0.19480      1.99919     4.17702    0.01859     6.19480
      H    5    0.20781      0.00000     0.79092    0.00127     0.79219
      C    6   -0.21899      1.99919     4.20017    0.01963     6.21899
      H    7    0.20730      0.00000     0.79153    0.00118     0.79270
      C    8   -0.19599      1.99919     4.17799    0.01881     6.19599
      H    9    0.20637      0.00000     0.79235    0.00128     0.79363
      C   10   -0.22240      1.99908     4.20343    0.01989     6.22240
      H   11    0.19784      0.00000     0.79999    0.00217     0.80216
      C   12   -0.33455      1.99899     4.30318    0.03238     6.33455
      C   13   -0.19044      1.99908     4.17160    0.01976     6.19044
      H   14    0.21056      0.00000     0.78716    0.00228     0.78944
      C   15   -0.20666      1.99918     4.18858    0.01889     6.20666
      H   16    0.20804      0.00000     0.79062    0.00134     0.79196
      C   17   -0.19594      1.99919     4.17770    0.01905     6.19594
      H   18    0.20829      0.00000     0.79054    0.00117     0.79171
      C   19   -0.20570      1.99918     4.18784    0.01868     6.20570
      H   20    0.20903      0.00000     0.78970    0.00127     0.79097
      C   21   -0.18732      1.99909     4.16796    0.02027     6.18732
      H   22    0.21448      0.00000     0.78335    0.00217     0.78552
      C   23   -0.73150      1.99936     4.69547    0.03667     6.73150
      H   24    0.23855      0.00000     0.75805    0.00339     0.76145
      C   25   -0.87383      1.99916     4.85084    0.02384     6.87383
      H   26    0.23382      0.00000     0.76253    0.00365     0.76618
      H   27    0.25306      0.00000     0.74398    0.00296     0.74694
      C   28   -0.34186      1.99899     4.31059    0.03228     6.34186
      C   29   -0.19081      1.99907     4.17024    0.02150     6.19081
      H   30    0.20878      0.00000     0.78822    0.00300     0.79122
      C   31   -0.20818      1.99918     4.19000    0.01900     6.20818
      H   32    0.20913      0.00000     0.78948    0.00138     0.79087
      C   33   -0.19191      1.99919     4.17387    0.01886     6.19191
      H   34    0.20924      0.00000     0.78958    0.00118     0.79076
      C   35   -0.20663      1.99918     4.18838    0.01907     6.20663
      H   36    0.21006      0.00000     0.78868    0.00125     0.78994
      C   37   -0.18151      1.99910     4.16207    0.02033     6.18151
      H   38    0.21809      0.00000     0.78040    0.00152     0.78191
      C   39   -0.31875      1.99899     4.28850    0.03126     6.31875
      C   40   -0.21510      1.99909     4.19641    0.01960     6.21510
      H   41    0.21438      0.00000     0.78386    0.00176     0.78562
      C   42   -0.19541      1.99919     4.17749    0.01874     6.19541
      H   43    0.20723      0.00000     0.79148    0.00129     0.79277
      C   44   -0.21775      1.99919     4.19884    0.01972     6.21775
      H   45    0.20754      0.00000     0.79128    0.00118     0.79246
      C   46   -0.19803      1.99918     4.17994    0.01891     6.19803
      H   47    0.20809      0.00000     0.79064    0.00128     0.79191
      C   48   -0.21182      1.99908     4.19321    0.01953     6.21182
      H   49    0.20240      0.00000     0.79579    0.00181     0.79760
      P   50    0.83438      9.99805     4.13603    0.03155    14.16562
      P   51    0.82941      9.99803     4.14057    0.03200    14.17059
      B   52    1.15801      1.99906     1.80432    0.03861     3.84199
      C   53   -0.66100      1.99904     4.63918    0.02278     6.66100
      H   54    0.20769      0.00000     0.78954    0.00277     0.79231
      C   55   -0.37633      1.99940     4.36143    0.01549     6.37633
      H   56    0.21351      0.00000     0.78513    0.00136     0.78649
      H   57    0.18846      0.00000     0.80937    0.00217     0.81154
      C   58   -0.38329      1.99941     4.37114    0.01273     6.38329
      H   59    0.20447      0.00000     0.79410    0.00142     0.79553
      H   60    0.18836      0.00000     0.81021    0.00143     0.81164
      C   61   -0.37502      1.99940     4.36049    0.01513     6.37502
      H   62    0.20301      0.00000     0.79566    0.00133     0.79699
      H   63    0.19020      0.00000     0.80765    0.00215     0.80980
      C   64   -0.64944      1.99906     4.62882    0.02155     6.64944
      H   65    0.20789      0.00000     0.78909    0.00301     0.79211
      C   66   -0.35897      1.99940     4.34507    0.01451     6.35897
      H   67    0.19431      0.00000     0.80413    0.00156     0.80569
      H   68    0.20373      0.00000     0.79447    0.00180     0.79627
      C   69   -0.40027      1.99941     4.38755    0.01331     6.40027
      H   70    0.19218      0.00000     0.80572    0.00210     0.80782
      H   71    0.20888      0.00000     0.78973    0.00139     0.79112
      C   72   -0.36129      1.99940     4.34735    0.01455     6.36129
      H   73    0.20407      0.00000     0.79411    0.00182     0.79593
      H   74    0.19495      0.00000     0.80345    0.00160     0.80505
 =======================================================================
   * Total *    0.00000     89.96704   185.15719    0.87577   276.00000

 Normal termination of Gaussian 16 at Fri Jan 24 18:24:24 2025.
