 Gaussian 16, Revision B.01,
 Gaussian 16:  ES64L-G16RevB.01 20-Dec-2017

 --------------------------------------------
 # nmr=giao b3lyp/def2TZVP pop=nbo scfcyc=200
 --------------------------------------------

 --------------
 MS-46 SPE NoRh
 --------------
 Symbolic Z-matrix:
 Charge =  0 Multiplicity = 1

                         Standard orientation:
 ---------------------------------------------------------------------
 Center     Atomic      Atomic             Coordinates (Angstroms)
 Number     Number       Type             X           Y           Z
 ---------------------------------------------------------------------
      1          6           0       -0.036272   -0.802843   -0.358366
      2          1           0       -0.033088   -1.485186   -1.211869
      3          6           0        2.592807   -2.299761   -0.355968
      4          6           0        3.950082   -2.156337   -0.054501
      5          1           0        4.261289   -1.588604    0.810745
      6          6           0        4.916834   -2.740832   -0.868377
      7          1           0        5.964277   -2.617610   -0.623944
      8          6           0        4.541980   -3.475192   -1.987455
      9          1           0        5.296340   -3.924908   -2.621246
     10          6           0        3.192134   -3.636490   -2.285556
     11          1           0        2.891073   -4.214946   -3.150519
     12          6           0        2.224573   -3.061810   -1.471803
     13          1           0        1.179405   -3.225793   -1.706269
     14          6           0        2.081814   -0.365391    1.800514
     15          6           0        2.834461    0.673827    1.238711
     16          1           0        2.951536    0.746430    0.166331
     17          6           0        3.435856    1.620758    2.058336
     18          1           0        4.015675    2.421181    1.615686
     19          6           0        3.291925    1.544862    3.441414
     20          1           0        3.765432    2.283651    4.076227
     21          6           0        2.543252    0.518625    4.006334
     22          1           0        2.431873    0.455301    5.081252
     23          6           0        1.941404   -0.432483    3.189599
     24          1           0        1.357782   -1.230746    3.631313
     25          6           0       -2.873519   -1.851242   -0.546809
     26          6           0       -2.720435   -1.787571   -1.933312
     27          1           0       -1.796604   -1.438887   -2.373365
     28          6           0       -3.770283   -2.146049   -2.774365
     29          1           0       -3.639894   -2.082588   -3.847140
     30          6           0       -4.979355   -2.575474   -2.242120
     31          1           0       -5.794413   -2.853523   -2.898659
     32          6           0       -5.142302   -2.639385   -0.860971
     33          1           0       -6.084776   -2.966644   -0.438901
     34          6           0       -4.097615   -2.281927   -0.018395
     35          1           0       -4.246033   -2.320968    1.053620
     36          6           0       -2.232239   -0.145442    1.706532
     37          6           0       -1.962354   -0.152905    3.076956
     38          1           0       -1.339751   -0.934377    3.494477
     39          6           0       -2.493772    0.831608    3.903941
     40          1           0       -2.281227    0.817954    4.965472
     41          6           0       -3.307305    1.824208    3.366753
     42          1           0       -3.727862    2.586573    4.010923
     43          6           0       -3.587427    1.832130    2.002653
     44          1           0       -4.224055    2.601326    1.583876
     45          6           0       -3.055466    0.853104    1.173300
     46          1           0       -3.283225    0.866838    0.116072
     47          6           0        0.089622    0.593555   -0.874708
     48          6           0        0.333677    0.808073   -2.237965
     49          1           0        0.423582   -0.041648   -2.906951
     50          6           0        0.473695    2.075874   -2.772859
     51          1           0        0.656652    2.173855   -3.832143
     52          6           0        0.376947    3.224858   -1.954197
     53          6           0        0.129259    3.008148   -0.579108
     54          1           0        0.041074    3.845215    0.096430
     55          6           0       -0.002765    1.730971   -0.064119
     56          1           0       -0.181375    1.625779    0.997194
     57         15           0        1.273783   -1.639927    0.757125
     58         15           0       -1.515871   -1.464098    0.641687
     59          7           0        0.519842    4.488090   -2.468601
     60          6           0        0.697168    4.678700   -3.900046
     61          1           0       -0.163743    4.320071   -4.475041
     62          1           0        0.820742    5.738929   -4.103608
     63          1           0        1.590793    4.164311   -4.263964
     64          6           0        0.328623    5.650869   -1.616807
     65          1           0        1.034003    5.655424   -0.780318
     66          1           0        0.504205    6.550576   -2.200845
     67          1           0       -0.687287    5.702562   -1.210228
 ---------------------------------------------------------------------

 SCF Done:  E(RB3LYP) =  -2014.13621494     A.U. after   15 cycles

      1  C    Isotropic =   128.1684   Anisotropy =    26.2921

      2  H    Isotropic =    27.4174   Anisotropy =     4.8824

      3  C    Isotropic =    30.3809   Anisotropy =   197.5316

      4  C    Isotropic =    50.4318   Anisotropy =   182.0851

      5  H    Isotropic =    25.0589   Anisotropy =    13.8573

      6  C    Isotropic =    49.8859   Anisotropy =   182.4893

      7  H    Isotropic =    24.6594   Anisotropy =     6.4784

      8  C    Isotropic =    53.7426   Anisotropy =   179.1074

      9  H    Isotropic =    24.6286   Anisotropy =     3.8994

     10  C    Isotropic =    50.4214   Anisotropy =   182.0350

     11  H    Isotropic =    24.2365   Anisotropy =     6.2725

     12  C    Isotropic =    49.1999   Anisotropy =   184.7346

     13  H    Isotropic =    23.8818   Anisotropy =    10.9032

     14  C    Isotropic =    40.8576   Anisotropy =   199.5065

     15  C    Isotropic =    35.4663   Anisotropy =   199.9026

     16  H    Isotropic =    24.9276   Anisotropy =     8.3568

     17  C    Isotropic =    50.0319   Anisotropy =   184.9925

     18  H    Isotropic =    24.6567   Anisotropy =     6.3608

     19  C    Isotropic =    48.2080   Anisotropy =   190.1105

     20  H    Isotropic =    24.3270   Anisotropy =     4.0636

     21  C    Isotropic =    50.4910   Anisotropy =   183.3194

     22  H    Isotropic =    24.1746   Anisotropy =     5.3262

     23  C    Isotropic =    38.7691   Anisotropy =   182.7182

     24  H    Isotropic =    23.4327   Anisotropy =     8.3651

     25  C    Isotropic =    30.4361   Anisotropy =   195.8397

     26  C    Isotropic =    50.1636   Anisotropy =   182.2908

     27  H    Isotropic =    23.8099   Anisotropy =    11.0390

     28  C    Isotropic =    50.6885   Anisotropy =   181.3097

     29  H    Isotropic =    24.3522   Anisotropy =     6.9108

     30  C    Isotropic =    53.5239   Anisotropy =   179.1956

     31  H    Isotropic =    24.6087   Anisotropy =     4.1139

     32  C    Isotropic =    49.6144   Anisotropy =   183.3215

     33  H    Isotropic =    24.4998   Anisotropy =     5.6819

     34  C    Isotropic =    47.7096   Anisotropy =   183.7024

     35  H    Isotropic =    24.7307   Anisotropy =    12.1770

     36  C    Isotropic =    36.2604   Anisotropy =   202.8390

     37  C    Isotropic =    40.1429   Anisotropy =   183.1392

     38  H    Isotropic =    23.4009   Anisotropy =     8.3278

     39  C    Isotropic =    51.1205   Anisotropy =   182.3382

     40  H    Isotropic =    24.3377   Anisotropy =     5.6066

     41  C    Isotropic =    49.0240   Anisotropy =   188.5290

     42  H    Isotropic =    24.4493   Anisotropy =     3.8376

     43  C    Isotropic =    49.9143   Anisotropy =   184.4574

     44  H    Isotropic =    24.7232   Anisotropy =     6.0137

     45  C    Isotropic =    37.1336   Anisotropy =   196.0517

     46  H    Isotropic =    24.9419   Anisotropy =     9.6669

     47  C    Isotropic =    54.4660   Anisotropy =   166.3255

     48  C    Isotropic =    46.9716   Anisotropy =   152.5759

     49  H    Isotropic =    24.4029   Anisotropy =     8.7364

     50  C    Isotropic =    70.2280   Anisotropy =   146.7559

     51  H    Isotropic =    25.4257   Anisotropy =     9.3702

     52  C    Isotropic =    30.4738   Anisotropy =   169.6017

     53  C    Isotropic =    70.6439   Anisotropy =   149.2860

     54  H    Isotropic =    26.0567   Anisotropy =    10.7698

     55  C    Isotropic =    45.2339   Anisotropy =   191.3859

     56  H    Isotropic =    26.8342   Anisotropy =     5.6794

     57  P    Isotropic =   213.6568   Anisotropy =   104.8886

     58  P    Isotropic =   215.1954   Anisotropy =   112.4732

     59  N    Isotropic =   194.2628   Anisotropy =    99.6608

     60  C    Isotropic =   141.3606   Anisotropy =    59.3224

     61  H    Isotropic =    28.9601   Anisotropy =     9.0031

     62  H    Isotropic =    29.3273   Anisotropy =     8.6568

     63  H    Isotropic =    28.7593   Anisotropy =     8.5052

     64  C    Isotropic =   141.4204   Anisotropy =    58.5923

     65  H    Isotropic =    28.8948   Anisotropy =     8.1262

     66  H    Isotropic =    29.3760   Anisotropy =     8.5290

     67  H    Isotropic =    29.1337   Anisotropy =     8.3849

 The electronic state is 1-A.
 Alpha  occ. eigenvalues --  -77.04493 -77.04433 -14.33785 -10.21158 -10.20704
 Alpha  occ. eigenvalues --  -10.20695 -10.19402 -10.18172 -10.18137 -10.18059
 Alpha  occ. eigenvalues --  -10.18052 -10.18007 -10.17893 -10.17879 -10.17836
 Alpha  occ. eigenvalues --  -10.17765 -10.17747 -10.17682 -10.17642 -10.17585
 Alpha  occ. eigenvalues --  -10.17521 -10.17324 -10.17241 -10.17214 -10.17200
 Alpha  occ. eigenvalues --  -10.17160 -10.17139 -10.17105 -10.17092 -10.16956
 Alpha  occ. eigenvalues --  -10.16942 -10.16923 -10.16903 -10.16534 -10.16374
 Alpha  occ. eigenvalues --  -10.16243  -6.53040  -6.52976  -4.69185  -4.69155
 Alpha  occ. eigenvalues --   -4.69127  -4.69090  -4.68686  -4.68620  -0.95395
 Alpha  occ. eigenvalues --   -0.86184  -0.85999  -0.85329  -0.85287  -0.84736
 Alpha  occ. eigenvalues --   -0.78367  -0.76153  -0.75654  -0.75154  -0.74990
 Alpha  occ. eigenvalues --   -0.74959  -0.74556  -0.74484  -0.74190  -0.74157
 Alpha  occ. eigenvalues --   -0.72556  -0.71232  -0.65939  -0.63661  -0.62043
 Alpha  occ. eigenvalues --   -0.60963  -0.60770  -0.60358  -0.60246  -0.60093
 Alpha  occ. eigenvalues --   -0.59723  -0.59677  -0.57587  -0.55837  -0.54821
 Alpha  occ. eigenvalues --   -0.52945  -0.51936  -0.51824  -0.50402  -0.49680
 Alpha  occ. eigenvalues --   -0.48799  -0.47237  -0.46928  -0.45731  -0.45687
 Alpha  occ. eigenvalues --   -0.45549  -0.45364  -0.45044  -0.44884  -0.44793
 Alpha  occ. eigenvalues --   -0.44505  -0.44297  -0.43098  -0.42715  -0.42471
 Alpha  occ. eigenvalues --   -0.42165  -0.42112  -0.42014  -0.41668  -0.41030
 Alpha  occ. eigenvalues --   -0.40481  -0.40388  -0.39135  -0.38855  -0.38752
 Alpha  occ. eigenvalues --   -0.37537  -0.37259  -0.37066  -0.36883  -0.36805
 Alpha  occ. eigenvalues --   -0.36543  -0.35033  -0.34992  -0.34767  -0.34521
 Alpha  occ. eigenvalues --   -0.34380  -0.33246  -0.33036  -0.32137  -0.31780
 Alpha  occ. eigenvalues --   -0.28135  -0.27246  -0.26827  -0.26400  -0.26240
 Alpha  occ. eigenvalues --   -0.25965  -0.25547  -0.25450  -0.25330  -0.24597
 Alpha  occ. eigenvalues --   -0.21719  -0.19699  -0.17543
 Alpha virt. eigenvalues --   -0.03555  -0.02895  -0.02145  -0.02131  -0.01787
 Alpha virt. eigenvalues --   -0.01529  -0.01094  -0.00778   0.00201   0.00751
 Alpha virt. eigenvalues --    0.02238   0.02811   0.03754   0.04699   0.05318

 Mulliken charges:
               1
     1  C   -0.147840
     2  H    0.063821
     3  C    0.088313
     4  C   -0.182490
     5  H    0.141773
     6  C   -0.118653
     7  H    0.104770
     8  C   -0.111482
     9  H    0.104788
    10  C   -0.120522
    11  H    0.104751
    12  C   -0.215532
    13  H    0.120575
    14  C    0.053922
    15  C   -0.184267
    16  H    0.143063
    17  C   -0.096475
    18  H    0.107029
    19  C   -0.098900
    20  H    0.109436
    21  C   -0.109296
    22  H    0.107614
    23  C   -0.165071
    24  H    0.123752
    25  C    0.052400
    26  C   -0.138647
    27  H    0.100281
    28  C   -0.138715
    29  H    0.101954
    30  C   -0.101843
    31  H    0.104916
    32  C   -0.117721
    33  H    0.105895
    34  C   -0.161820
    35  H    0.114676
    36  C   -0.041263
    37  C   -0.117591
    38  H    0.116250
    39  C   -0.127758
    40  H    0.106035
    41  C   -0.086965
    42  H    0.108675
    43  C   -0.120059
    44  H    0.106141
    45  C   -0.111516
    46  H    0.134022
    47  C    0.111583
    48  C   -0.185005
    49  H    0.101899
    50  C   -0.223284
    51  H    0.106559
    52  C    0.227680
    53  C   -0.168351
    54  H    0.107847
    55  C   -0.293849
    56  H    0.151914
    57  P    0.144569
    58  P    0.132885
    59  N   -0.096436
    60  C   -0.278458
    61  H    0.122826
    62  H    0.115256
    63  H    0.126002
    64  C   -0.278169
    65  H    0.125074
    66  H    0.115661
    67  H    0.123373
 Sum of Mulliken charges =  -0.00000

 Dipole moment (field-independent basis, Debye):
    X=              0.3796    Y=              5.0086    Z=             -1.2372  Tot=              5.1731
 Quadrupole moment (field-independent basis, Debye-Ang):
   XX=           -221.3672   YY=           -214.4214   ZZ=           -205.6358
   XY=              2.7967   XZ=             -0.9442   YZ=              1.2889

 Summary of Natural Population Analysis:

                                       Natural Population
                Natural  -----------------------------------------------
    Atom  No    Charge         Core      Valence    Rydberg      Total
 -----------------------------------------------------------------------
      C    1   -0.74699      1.99926     4.71222    0.03551     6.74699
      H    2    0.24838      0.00000     0.74886    0.00276     0.75162
      C    3   -0.31461      1.99898     4.28575    0.02988     6.31461
      C    4   -0.21194      1.99909     4.19313    0.01973     6.21194
      H    5    0.21465      0.00000     0.78361    0.00174     0.78535
      C    6   -0.19559      1.99919     4.17758    0.01882     6.19559
      H    7    0.20649      0.00000     0.79220    0.00131     0.79351
      C    8   -0.21719      1.99918     4.19838    0.01963     6.21719
      H    9    0.20672      0.00000     0.79208    0.00119     0.79328
      C   10   -0.19688      1.99918     4.17883    0.01887     6.19688
      H   11    0.20703      0.00000     0.79167    0.00130     0.79297
      C   12   -0.21260      1.99908     4.19403    0.01948     6.21260
      H   13    0.20056      0.00000     0.79774    0.00170     0.79944
      C   14   -0.34909      1.99900     4.31812    0.03196     6.34909
      C   15   -0.18112      1.99908     4.16131    0.02073     6.18112
      H   16    0.21955      0.00000     0.77786    0.00259     0.78045
      C   17   -0.20918      1.99918     4.19095    0.01905     6.20918
      H   18    0.20830      0.00000     0.79032    0.00138     0.79170
      C   19   -0.19359      1.99919     4.17551    0.01889     6.19359
      H   20    0.20775      0.00000     0.79107    0.00118     0.79225
      C   21   -0.21134      1.99918     4.19295    0.01921     6.21134
      H   22    0.20909      0.00000     0.78964    0.00127     0.79091
      C   23   -0.18404      1.99910     4.16479    0.02015     6.18404
      H   24    0.21653      0.00000     0.78194    0.00154     0.78347
      C   25   -0.31955      1.99900     4.28913    0.03142     6.31955
      C   26   -0.21778      1.99908     4.19923    0.01948     6.21778
      H   27    0.20153      0.00000     0.79646    0.00201     0.79847
      C   28   -0.19726      1.99919     4.17931    0.01877     6.19726
      H   29    0.20571      0.00000     0.79300    0.00129     0.79429
      C   30   -0.21662      1.99918     4.19789    0.01954     6.21662
      H   31    0.20666      0.00000     0.79216    0.00118     0.79334
      C   32   -0.19699      1.99918     4.17919    0.01862     6.19699
      H   33    0.20752      0.00000     0.79120    0.00127     0.79248
      C   34   -0.20231      1.99909     4.18362    0.01961     6.20231
      H   35    0.21084      0.00000     0.78740    0.00175     0.78916
      C   36   -0.33817      1.99898     4.30686    0.03233     6.33817
      C   37   -0.19089      1.99909     4.17188    0.01992     6.19089
      H   38    0.21433      0.00000     0.78349    0.00218     0.78567
      C   39   -0.20832      1.99918     4.19046    0.01868     6.20832
      H   40    0.20890      0.00000     0.78982    0.00128     0.79110
      C   41   -0.19761      1.99919     4.17938    0.01904     6.19761
      H   42    0.20751      0.00000     0.79132    0.00118     0.79249
      C   43   -0.20662      1.99918     4.18868    0.01875     6.20662
      H   44    0.20796      0.00000     0.79070    0.00134     0.79204
      C   45   -0.18243      1.99908     4.16372    0.01963     6.18243
      H   46    0.21777      0.00000     0.78005    0.00218     0.78223
      C   47   -0.11253      1.99900     4.08819    0.02533     6.11253
      C   48   -0.17600      1.99910     4.15892    0.01798     6.17600
      H   49    0.19882      0.00000     0.79961    0.00157     0.80118
      C   50   -0.27078      1.99912     4.25279    0.01888     6.27078
      H   51    0.20810      0.00000     0.79049    0.00142     0.79190
      C   52    0.16460      1.99902     3.81825    0.01812     5.83540
      C   53   -0.26742      1.99910     4.25007    0.01824     6.26742
      H   54    0.20674      0.00000     0.79141    0.00185     0.79326
      C   55   -0.16926      1.99907     4.15165    0.01854     6.16926
      H   56    0.21714      0.00000     0.78062    0.00225     0.78286
      P   57    0.83460      9.99804     4.13507    0.03229    14.16540
      P   58    0.83621      9.99803     4.13392    0.03185    14.16379
      N   59   -0.37531      1.99944     5.35435    0.02152     7.37531
      C   60   -0.39048      1.99935     4.38138    0.00975     6.39048
      H   61    0.18457      0.00000     0.81245    0.00298     0.81543
      H   62    0.19982      0.00000     0.79882    0.00136     0.80018
      H   63    0.19095      0.00000     0.80648    0.00256     0.80905
      C   64   -0.39018      1.99935     4.38112    0.00971     6.39018
      H   65    0.19066      0.00000     0.80670    0.00264     0.80934
      H   66    0.19963      0.00000     0.79901    0.00136     0.80037
      H   67    0.18505      0.00000     0.81191    0.00304     0.81495
 =======================================================================
   * Total *    0.00000     87.96675   177.20868    0.82457   266.00000

 Normal termination of Gaussian 16 at Fri Jan 24 17:17:30 2025.
