 Gaussian 16, Revision B.01,
 Gaussian 16:  ES64L-G16RevB.01 20-Dec-2017

 --------------------------------------------
 # nmr=giao b3lyp/def2TZVP pop=nbo scfcyc=200
 --------------------------------------------

 --------------
 MS-51 SPE NoRh
 --------------
 Symbolic Z-matrix:
 Charge =  0 Multiplicity = 1

                         Standard orientation:
 ---------------------------------------------------------------------
 Center     Atomic      Atomic             Coordinates (Angstroms)
 Number     Number       Type             X           Y           Z
 ---------------------------------------------------------------------
      1         15           0        0.525740    1.473387    1.304220
      2         15           0        1.995837   -0.900054    0.986019
      3          6           0        1.119067    2.834251    0.218523
      4          6           0        2.369447    3.404608    0.477058
      5          1           0        2.968241    3.032924    1.299258
      6          6           0        2.851700    4.435976   -0.321929
      7          1           0        3.819571    4.873069   -0.112808
      8          6           0        2.087842    4.905276   -1.385937
      9          1           0        2.459863    5.711244   -2.005757
     10          6           0        0.843069    4.340241   -1.650323
     11          1           0        0.246883    4.702381   -2.478532
     12          6           0        0.353661    3.309821   -0.855448
     13          1           0       -0.614282    2.879067   -1.077329
     14          6           0       -1.173005    1.929600    1.851956
     15          6           0       -1.596064    3.261751    1.862077
     16          1           0       -0.959581    4.042099    1.469272
     17          6           0       -2.850066    3.594342    2.365506
     18          1           0       -3.169149    4.629276    2.359612
     19          6           0       -3.689920    2.606602    2.865127
     20          1           0       -4.666613    2.867886    3.250703
     21          6           0       -3.268309    1.280338    2.872985
     22          1           0       -3.916020    0.506295    3.265381
     23          6           0       -2.015366    0.943956    2.379278
     24          1           0       -1.700462   -0.092650    2.412970
     25          6           0        0.415565   -0.118007    0.277944
     26          1           0       -0.336720   -0.710405    0.805907
     27          6           0        0.095751   -0.151189   -1.223426
     28          1           0        0.621921    0.634637   -1.759835
     29          1           0        0.410935   -1.114314   -1.628469
     30          6           0       -1.390121    0.020052   -1.488426
     31          6           0        3.373615   -0.854870   -0.234048
     32          6           0        3.517751    0.196388   -1.145634
     33          1           0        2.778475    0.981739   -1.207090
     34          6           0        4.629384    0.254846   -1.980108
     35          1           0        4.721140    1.068909   -2.687990
     36          6           0        5.615535   -0.722126   -1.904565
     37          1           0        6.479063   -0.673477   -2.556237
     38          6           0        5.489895   -1.759419   -0.987163
     39          1           0        6.256356   -2.521073   -0.917928
     40          6           0        4.379295   -1.825805   -0.154126
     41          1           0        4.296181   -2.644867    0.549971
     42          6           0        1.548447   -2.677558    1.176783
     43          6           0        1.593868   -3.572154    0.100866
     44          1           0        1.977694   -3.256229   -0.859472
     45          6           0        1.155014   -4.880858    0.262862
     46          1           0        1.195461   -5.566900   -0.574161
     47          6           0        0.666521   -5.309719    1.494252
     48          1           0        0.329736   -6.331906    1.616264
     49          6           0        0.613017   -4.424940    2.564946
     50          1           0        0.235328   -4.755015    3.524960
     51          6           0        1.051167   -3.114466    2.407987
     52          1           0        1.003070   -2.426125    3.243530
     53          8           0       -2.017074   -1.180079   -1.427400
     54          8           0       -1.932780    1.072587   -1.698510
     55          6           0       -3.408597   -1.278682   -1.626269
     56          6           0       -4.012801   -0.803291   -2.781092
     57          6           0       -4.127271   -1.956833   -0.654494
     58          6           0       -5.377821   -1.004223   -2.950220
     59          1           0       -3.433881   -0.282146   -3.530391
     60          6           0       -5.492372   -2.154372   -0.837532
     61          1           0       -3.617563   -2.332336    0.224302
     62          6           0       -6.118871   -1.677337   -1.983341
     63          1           0       -5.862299   -0.636119   -3.845920
     64          1           0       -6.061370   -2.687029   -0.085778
     65          1           0       -7.180950   -1.832172   -2.125155
 ---------------------------------------------------------------------

 SCF Done:  E(RB3LYP) =  -2108.08658179     A.U. after   15 cycles

      1  P    Isotropic =   222.1566   Anisotropy =    89.8388

      2  P    Isotropic =   208.3017   Anisotropy =   106.4942

      3  C    Isotropic =    41.2111   Anisotropy =   195.3805

      4  C    Isotropic =    37.6946   Anisotropy =   185.0018

      5  H    Isotropic =    23.6135   Anisotropy =     8.2903

      6  C    Isotropic =    49.3452   Anisotropy =   184.4330

      7  H    Isotropic =    24.0947   Anisotropy =     5.1376

      8  C    Isotropic =    47.1770   Anisotropy =   191.3279

      9  H    Isotropic =    24.0118   Anisotropy =     4.0596

     10  C    Isotropic =    49.2510   Anisotropy =   185.1437

     11  H    Isotropic =    23.9882   Anisotropy =     6.5067

     12  C    Isotropic =    34.2975   Anisotropy =   203.0740

     13  H    Isotropic =    22.4676   Anisotropy =     9.0112

     14  C    Isotropic =    31.1877   Anisotropy =   196.9629

     15  C    Isotropic =    50.8430   Anisotropy =   182.0081

     16  H    Isotropic =    24.9519   Anisotropy =    12.8290

     17  C    Isotropic =    49.6050   Anisotropy =   183.6509

     18  H    Isotropic =    24.6834   Anisotropy =     5.9858

     19  C    Isotropic =    53.7721   Anisotropy =   180.1429

     20  H    Isotropic =    24.8317   Anisotropy =     4.1686

     21  C    Isotropic =    50.6192   Anisotropy =   183.0820

     22  H    Isotropic =    24.5592   Anisotropy =     6.2051

     23  C    Isotropic =    51.2994   Anisotropy =   183.5062

     24  H    Isotropic =    24.3231   Anisotropy =     9.8744

     25  C    Isotropic =   129.6238   Anisotropy =    18.3126

     26  H    Isotropic =    29.0814   Anisotropy =     3.8380

     27  C    Isotropic =   148.0346   Anisotropy =    33.0767

     28  H    Isotropic =    28.9694   Anisotropy =     3.8853

     29  H    Isotropic =    29.0775   Anisotropy =     3.9584

     30  C    Isotropic =     5.1475   Anisotropy =    91.7292

     31  C    Isotropic =    36.0850   Anisotropy =   188.0763

     32  C    Isotropic =    48.1727   Anisotropy =   181.4757

     33  H    Isotropic =    25.3347   Anisotropy =     7.2837

     34  C    Isotropic =    50.5630   Anisotropy =   183.3476

     35  H    Isotropic =    24.8122   Anisotropy =     8.2496

     36  C    Isotropic =    53.1185   Anisotropy =   180.9926

     37  H    Isotropic =    24.6478   Anisotropy =     4.5019

     38  C    Isotropic =    49.9152   Anisotropy =   183.9611

     39  H    Isotropic =    24.4835   Anisotropy =     5.5819

     40  C    Isotropic =    48.4718   Anisotropy =   183.5983

     41  H    Isotropic =    24.5447   Anisotropy =    11.8697

     42  C    Isotropic =    31.7466   Anisotropy =   209.6059

     43  C    Isotropic =    43.8815   Anisotropy =   188.1182

     44  H    Isotropic =    23.9595   Anisotropy =    10.8291

     45  C    Isotropic =    48.7811   Anisotropy =   185.5794

     46  H    Isotropic =    24.2586   Anisotropy =     6.2050

     47  C    Isotropic =    48.5042   Anisotropy =   189.1539

     48  H    Isotropic =    24.1457   Anisotropy =     4.0307

     49  C    Isotropic =    49.1510   Anisotropy =   184.8307

     50  H    Isotropic =    23.9852   Anisotropy =     5.1365

     51  C    Isotropic =    41.9812   Anisotropy =   180.4214

     52  H    Isotropic =    23.4848   Anisotropy =     8.9049

     53  O    Isotropic =    73.9957   Anisotropy =   148.0468

     54  O    Isotropic =   -97.0118   Anisotropy =   590.2674

     55  C    Isotropic =    23.5746   Anisotropy =   120.0485

     56  C    Isotropic =    55.5596   Anisotropy =   167.7885

     57  C    Isotropic =    58.7636   Anisotropy =   158.4127

     58  C    Isotropic =    49.7871   Anisotropy =   183.4918

     59  H    Isotropic =    24.6422   Anisotropy =     9.9405

     60  C    Isotropic =    49.1637   Anisotropy =   184.4316

     61  H    Isotropic =    25.0423   Anisotropy =     7.7052

     62  C    Isotropic =    53.1284   Anisotropy =   182.6704

     63  H    Isotropic =    24.4644   Anisotropy =     5.2173

     64  H    Isotropic =    24.4541   Anisotropy =     6.4144

     65  H    Isotropic =    24.6163   Anisotropy =     4.2245

 The electronic state is 1-A.
 Alpha  occ. eigenvalues --  -77.05444 -77.04936 -19.18933 -19.12346 -10.31306
 Alpha  occ. eigenvalues --  -10.24570 -10.20689 -10.19736 -10.18940 -10.18784
 Alpha  occ. eigenvalues --  -10.18622 -10.18570 -10.18560 -10.18550 -10.18508
 Alpha  occ. eigenvalues --  -10.18482 -10.18460 -10.18351 -10.18332 -10.18291
 Alpha  occ. eigenvalues --  -10.18246 -10.18224 -10.18210 -10.18172 -10.17999
 Alpha  occ. eigenvalues --  -10.17862 -10.17855 -10.17840 -10.17777 -10.17758
 Alpha  occ. eigenvalues --  -10.17670 -10.17561 -10.17447 -10.17276 -10.17121
 Alpha  occ. eigenvalues --  -10.17020 -10.16918  -6.53984  -6.53498  -4.70139
 Alpha  occ. eigenvalues --   -4.70100  -4.69656  -4.69621  -4.69610  -4.69134
 Alpha  occ. eigenvalues --   -1.12094  -1.03725  -0.86983  -0.86721  -0.86331
 Alpha  occ. eigenvalues --   -0.86004  -0.85411  -0.81133  -0.77297  -0.76607
 Alpha  occ. eigenvalues --   -0.76205  -0.75699  -0.75510  -0.75301  -0.75123
 Alpha  occ. eigenvalues --   -0.74859  -0.74638  -0.74315  -0.69934  -0.65038
 Alpha  occ. eigenvalues --   -0.64253  -0.62496  -0.61849  -0.61462  -0.61070
 Alpha  occ. eigenvalues --   -0.60966  -0.60395  -0.60270  -0.59871  -0.57837
 Alpha  occ. eigenvalues --   -0.56433  -0.55418  -0.52654  -0.52119  -0.51728
 Alpha  occ. eigenvalues --   -0.50805  -0.50665  -0.50407  -0.49304  -0.48427
 Alpha  occ. eigenvalues --   -0.46522  -0.46293  -0.46071  -0.46011  -0.45768
 Alpha  occ. eigenvalues --   -0.45614  -0.45451  -0.45205  -0.45034  -0.44707
 Alpha  occ. eigenvalues --   -0.43790  -0.43552  -0.43212  -0.42760  -0.42612
 Alpha  occ. eigenvalues --   -0.42350  -0.41636  -0.40993  -0.40640  -0.40468
 Alpha  occ. eigenvalues --   -0.38767  -0.38444  -0.38025  -0.37767  -0.37724
 Alpha  occ. eigenvalues --   -0.37326  -0.37127  -0.37062  -0.36225  -0.35610
 Alpha  occ. eigenvalues --   -0.35525  -0.35063  -0.34915  -0.34514  -0.33335
 Alpha  occ. eigenvalues --   -0.32983  -0.32259  -0.31637  -0.29197  -0.27965
 Alpha  occ. eigenvalues --   -0.27099  -0.26784  -0.26741  -0.26678  -0.26396
 Alpha  occ. eigenvalues --   -0.25977  -0.25743  -0.25664  -0.25397  -0.22108
 Alpha  occ. eigenvalues --   -0.18681
 Alpha virt. eigenvalues --   -0.03927  -0.03574  -0.02935  -0.02558  -0.02395
 Alpha virt. eigenvalues --   -0.02267  -0.01978  -0.01558  -0.01379  -0.00830
 Alpha virt. eigenvalues --    0.00058   0.02007   0.02840   0.03913   0.04613

 Mulliken charges:
               1
     1  P    0.161197
     2  P    0.163041
     3  C   -0.032313
     4  C   -0.151051
     5  H    0.118294
     6  C   -0.100252
     7  H    0.111940
     8  C   -0.097644
     9  H    0.112140
    10  C   -0.110203
    11  H    0.113504
    12  C   -0.205553
    13  H    0.205453
    14  C    0.106911
    15  C   -0.173382
    16  H    0.139949
    17  C   -0.119979
    18  H    0.105062
    19  C   -0.108275
    20  H    0.104460
    21  C   -0.111329
    22  H    0.101150
    23  C   -0.217166
    24  H    0.111110
    25  C   -0.250698
    26  H    0.117084
    27  C   -0.178758
    28  H    0.130303
    29  H    0.115155
    30  C    0.330075
    31  C    0.051143
    32  C   -0.148212
    33  H    0.159728
    34  C   -0.161928
    35  H    0.108433
    36  C   -0.102331
    37  H    0.107475
    38  C   -0.114576
    39  H    0.109264
    40  C   -0.195007
    41  H    0.131548
    42  C    0.051984
    43  C   -0.194880
    44  H    0.140132
    45  C   -0.105296
    46  H    0.110517
    47  C   -0.103260
    48  H    0.112615
    49  C   -0.099183
    50  H    0.112151
    51  C   -0.199284
    52  H    0.121885
    53  O   -0.272218
    54  O   -0.321567
    55  C    0.295665
    56  C   -0.165452
    57  C   -0.196194
    58  C   -0.099621
    59  H    0.121006
    60  C   -0.084765
    61  H    0.122390
    62  C   -0.120484
    63  H    0.114206
    64  H    0.112372
    65  H    0.111518
 Sum of Mulliken charges =  -0.00000

 Dipole moment (field-independent basis, Debye):
    X=             -0.6972    Y=             -1.8016    Z=             -1.7723  Tot=              2.6216
 Quadrupole moment (field-independent basis, Debye-Ang):
   XX=           -215.1815   YY=           -214.5317   ZZ=           -227.2106
   XY=              7.2288   XZ=             -8.4622   YZ=             -8.8842

 Summary of Natural Population Analysis:

                                       Natural Population
                Natural  -----------------------------------------------
    Atom  No    Charge         Core      Valence    Rydberg      Total
 -----------------------------------------------------------------------
      P    1    0.83538      9.99803     4.13424    0.03236    14.16462
      P    2    0.85453      9.99806     4.11560    0.03181    14.14547
      C    3   -0.35431      1.99900     4.32243    0.03288     6.35431
      C    4   -0.18653      1.99910     4.16695    0.02048     6.18653
      H    5    0.22189      0.00000     0.77658    0.00153     0.77811
      C    6   -0.21111      1.99918     4.19256    0.01936     6.21111
      H    7    0.21109      0.00000     0.78765    0.00126     0.78891
      C    8   -0.19307      1.99919     4.17495    0.01892     6.19307
      H    9    0.20869      0.00000     0.79012    0.00118     0.79131
      C   10   -0.20865      1.99919     4.19065    0.01882     6.20865
      H   11    0.21034      0.00000     0.78828    0.00138     0.78966
      C   12   -0.20242      1.99909     4.18315    0.02017     6.20242
      H   13    0.24320      0.00000     0.75478    0.00202     0.75680
      C   14   -0.31770      1.99899     4.28745    0.03125     6.31770
      C   15   -0.20806      1.99909     4.18956    0.01941     6.20806
      H   16    0.21392      0.00000     0.78431    0.00177     0.78608
      C   17   -0.19150      1.99919     4.17372    0.01860     6.19150
      H   18    0.20712      0.00000     0.79160    0.00128     0.79288
      C   19   -0.21510      1.99919     4.19641    0.01951     6.21510
      H   20    0.20690      0.00000     0.79193    0.00118     0.79310
      C   21   -0.19350      1.99918     4.17566    0.01867     6.19350
      H   22    0.20607      0.00000     0.79264    0.00128     0.79393
      C   23   -0.21351      1.99908     4.19513    0.01930     6.21351
      H   24    0.19691      0.00000     0.80108    0.00201     0.80309
      C   25   -0.74874      1.99937     4.71640    0.03297     6.74874
      H   26    0.25505      0.00000     0.74304    0.00190     0.74495
      C   27   -0.50841      1.99922     4.48944    0.01974     6.50841
      H   28    0.23220      0.00000     0.76548    0.00233     0.76780
      H   29    0.23067      0.00000     0.76674    0.00259     0.76933
      C   30    0.78485      1.99939     3.17904    0.03672     5.21515
      C   31   -0.33349      1.99899     4.30350    0.03100     6.33349
      C   32   -0.21554      1.99908     4.19670    0.01975     6.21554
      H   33    0.21121      0.00000     0.78677    0.00202     0.78879
      C   34   -0.19501      1.99918     4.17730    0.01852     6.19501
      H   35    0.20931      0.00000     0.78941    0.00127     0.79069
      C   36   -0.21418      1.99918     4.19548    0.01952     6.21418
      H   37    0.20805      0.00000     0.79077    0.00118     0.79195
      C   38   -0.19675      1.99918     4.17896    0.01861     6.19675
      H   39    0.20876      0.00000     0.78998    0.00126     0.79124
      C   40   -0.20826      1.99909     4.18953    0.01964     6.20826
      H   41    0.21405      0.00000     0.78417    0.00178     0.78595
      C   42   -0.33557      1.99900     4.30400    0.03257     6.33557
      C   43   -0.19792      1.99908     4.17896    0.01987     6.19792
      H   44    0.21240      0.00000     0.78527    0.00233     0.78760
      C   45   -0.20228      1.99919     4.18412    0.01897     6.20228
      H   46    0.20905      0.00000     0.78960    0.00136     0.79095
      C   47   -0.19832      1.99919     4.18004    0.01909     6.19832
      H   48    0.20940      0.00000     0.78943    0.00117     0.79060
      C   49   -0.20467      1.99918     4.18608    0.01941     6.20467
      H   50    0.21035      0.00000     0.78839    0.00126     0.78965
      C   51   -0.19779      1.99910     4.17824    0.02045     6.19779
      H   52    0.21770      0.00000     0.78075    0.00155     0.78230
      O   53   -0.48427      1.99971     6.46150    0.02306     8.48427
      O   54   -0.57296      1.99973     6.54631    0.02692     8.57296
      C   55    0.26263      1.99861     3.71711    0.02165     5.73737
      C   56   -0.23018      1.99900     4.21137    0.01980     6.23018
      C   57   -0.23233      1.99903     4.21397    0.01933     6.23233
      C   58   -0.19063      1.99921     4.17243    0.01899     6.19063
      H   59    0.22400      0.00000     0.77435    0.00165     0.77600
      C   60   -0.19335      1.99920     4.17493    0.01921     6.19335
      H   61    0.22121      0.00000     0.77742    0.00138     0.77879
      C   62   -0.21371      1.99919     4.19515    0.01937     6.21371
      H   63    0.21140      0.00000     0.78735    0.00126     0.78860
      H   64    0.21095      0.00000     0.78785    0.00120     0.78905
      H   65    0.21050      0.00000     0.78831    0.00119     0.78950
 =======================================================================
   * Total *    0.00000     89.96667   181.15311    0.88022   272.00000

 Normal termination of Gaussian 16 at Fri Jan 24 18:30:25 2025.
