 Gaussian 16, Revision B.01,
 Gaussian 16:  ES64L-G16RevB.01 20-Dec-2017

 --------------------------------------------
 # nmr=giao b3lyp/def2TZVP pop=nbo scfcyc=200
 --------------------------------------------

 --------------
 MS-50 SPE NoRh
 --------------
 Symbolic Z-matrix:
 Charge =  0 Multiplicity = 1

                         Standard orientation:
 ---------------------------------------------------------------------
 Center     Atomic      Atomic             Coordinates (Angstroms)
 Number     Number       Type             X           Y           Z
 ---------------------------------------------------------------------
      1          6           0       -0.821863    0.845241    0.209208
      2          1           0       -1.279899    1.837029    0.198015
      3          6           0        1.148396    2.831454   -0.910625
      4          6           0        2.504982    3.157824   -0.997698
      5          1           0        3.247728    2.377712   -1.085961
      6          6           0        2.914631    4.488133   -0.959906
      7          1           0        3.969453    4.723121   -1.024753
      8          6           0        1.978113    5.507185   -0.837304
      9          1           0        2.298855    6.540888   -0.802673
     10          6           0        0.624345    5.193633   -0.767428
     11          1           0       -0.113092    5.981446   -0.681510
     12          6           0        0.211881    3.866997   -0.815737
     13          1           0       -0.849728    3.651737   -0.794864
     14          6           0        2.007246    0.066961   -0.584643
     15          6           0        2.626415    0.341587    0.638828
     16          1           0        2.240125    1.139068    1.259090
     17          6           0        3.732011   -0.360118    1.096657
     18          1           0        4.169252   -0.105346    2.049792
     19          6           0        4.245513   -1.388860    0.305460
     20          6           0        3.649945   -1.691436   -0.924392
     21          1           0        4.085721   -2.490277   -1.503601
     22          6           0        2.546099   -0.977285   -1.371495
     23          6           0       -3.710034    0.332968   -0.520176
     24          6           0       -4.037341    1.277516    0.454043
     25          1           0       -3.267825    1.753238    1.046232
     26          6           0       -5.368560    1.602095    0.700272
     27          1           0       -5.609036    2.329456    1.466028
     28          6           0       -6.384810    0.991812   -0.024265
     29          1           0       -7.419121    1.245424    0.169813
     30          6           0       -6.067968    0.046362   -0.996569
     31          1           0       -6.854421   -0.438227   -1.560695
     32          6           0       -4.740555   -0.279619   -1.244931
     33          1           0       -4.511887   -1.027752   -1.995193
     34          6           0       -1.889297   -1.919537   -0.630567
     35          6           0       -1.089998   -2.719860   -1.453090
     36          1           0       -0.529478   -2.264426   -2.260327
     37          6           0       -1.012928   -4.091349   -1.233299
     38          1           0       -0.397276   -4.707420   -1.877072
     39          6           0       -1.738915   -4.674003   -0.199696
     40          1           0       -1.685743   -5.742543   -0.035624
     41          6           0       -2.541906   -3.882414    0.617341
     42          1           0       -3.112100   -4.333968    1.420534
     43          6           0       -2.618710   -2.512001    0.405281
     44          1           0       -3.249650   -1.908417    1.044220
     45          6           0       -0.559099    0.465350    1.636088
     46          6           0       -0.748444    1.424586    2.639559
     47          1           0       -1.082523    2.421489    2.373504
     48          6           0       -0.506710    1.124155    3.974870
     49          1           0       -0.660517    1.880908    4.733590
     50          6           0       -0.072448   -0.148105    4.332270
     51          1           0        0.110924   -0.388133    5.372994
     52          6           0        0.125762   -1.108782    3.346272
     53          1           0        0.468289   -2.100214    3.616162
     54          6           0       -0.109321   -0.805240    2.010648
     55          1           0        0.063626   -1.562312    1.259246
     56         15           0        0.569687    1.080726   -1.092810
     57         15           0       -1.975060   -0.110478   -0.957457
     58          8           0        5.312038   -2.150455    0.628635
     59          8           0        1.944936   -1.239141   -2.564706
     60          6           0        2.483147   -2.273629   -3.389629
     61          1           0        3.510850   -2.051085   -3.684734
     62          1           0        2.446988   -3.242484   -2.886679
     63          1           0        1.852862   -2.303688   -4.274601
     64          6           0        5.994061   -1.908337    1.861205
     65          1           0        6.803182   -2.631048    1.894283
     66          1           0        6.406722   -0.896673    1.891682
     67          1           0        5.330671   -2.064161    2.716377
 ---------------------------------------------------------------------

 SCF Done:  E(RB3LYP) =  -2109.26002708     A.U. after   15 cycles

      1  C    Isotropic =   126.9763   Anisotropy =    24.3012

      2  H    Isotropic =    27.4171   Anisotropy =     5.4827

      3  C    Isotropic =    28.3147   Anisotropy =   197.3869

      4  C    Isotropic =    49.7081   Anisotropy =   182.6042

      5  H    Isotropic =    25.0771   Anisotropy =    13.7262

      6  C    Isotropic =    49.9036   Anisotropy =   181.8383

      7  H    Isotropic =    24.6446   Anisotropy =     6.7244

      8  C    Isotropic =    53.8973   Anisotropy =   178.7829

      9  H    Isotropic =    24.6336   Anisotropy =     3.9301

     10  C    Isotropic =    50.7464   Anisotropy =   181.7536

     11  H    Isotropic =    24.2761   Anisotropy =     6.3353

     12  C    Isotropic =    49.1844   Anisotropy =   184.5488

     13  H    Isotropic =    23.8898   Anisotropy =    11.1542

     14  C    Isotropic =    64.4244   Anisotropy =   145.6926

     15  C    Isotropic =    30.2860   Anisotropy =   195.5292

     16  H    Isotropic =    25.4623   Anisotropy =     8.4422

     17  C    Isotropic =    78.7944   Anisotropy =   145.7290

     18  H    Isotropic =    25.9782   Anisotropy =     8.4363

     19  C    Isotropic =    11.9406   Anisotropy =   142.8545

     20  C    Isotropic =    82.2457   Anisotropy =   120.6572

     21  H    Isotropic =    25.3910   Anisotropy =     8.5931

     22  C    Isotropic =     9.1039   Anisotropy =   143.5117

     23  C    Isotropic =    31.0404   Anisotropy =   195.2434

     24  C    Isotropic =    49.6836   Anisotropy =   181.4610

     25  H    Isotropic =    23.8378   Anisotropy =    11.4299

     26  C    Isotropic =    50.4377   Anisotropy =   181.7280

     27  H    Isotropic =    24.3658   Anisotropy =     7.0146

     28  C    Isotropic =    53.2167   Anisotropy =   180.3575

     29  H    Isotropic =    24.5935   Anisotropy =     4.0671

     30  C    Isotropic =    49.6174   Anisotropy =   183.5094

     31  H    Isotropic =    24.4834   Anisotropy =     5.6874

     32  C    Isotropic =    47.4256   Anisotropy =   183.6649

     33  H    Isotropic =    24.6280   Anisotropy =    12.0956

     34  C    Isotropic =    35.9988   Anisotropy =   202.0638

     35  C    Isotropic =    40.3203   Anisotropy =   186.6689

     36  H    Isotropic =    23.1957   Anisotropy =     7.1150

     37  C    Isotropic =    51.3037   Anisotropy =   181.0053

     38  H    Isotropic =    24.3301   Anisotropy =     6.2882

     39  C    Isotropic =    49.2380   Anisotropy =   187.9108

     40  H    Isotropic =    24.4320   Anisotropy =     4.0185

     41  C    Isotropic =    49.7662   Anisotropy =   184.2228

     42  H    Isotropic =    24.6609   Anisotropy =     5.9774

     43  C    Isotropic =    38.1363   Anisotropy =   195.5893

     44  H    Isotropic =    24.9471   Anisotropy =    10.2209

     45  C    Isotropic =    38.1498   Anisotropy =   190.4478

     46  C    Isotropic =    48.1896   Anisotropy =   155.6806

     47  H    Isotropic =    24.3133   Anisotropy =     8.7566

     48  C    Isotropic =    50.4870   Anisotropy =   181.1418

     49  H    Isotropic =    24.4852   Anisotropy =     5.5684

     50  C    Isotropic =    53.4182   Anisotropy =   181.4277

     51  H    Isotropic =    24.7307   Anisotropy =     3.7831

     52  C    Isotropic =    51.3788   Anisotropy =   183.4905

     53  H    Isotropic =    25.1387   Anisotropy =     6.9492

     54  C    Isotropic =    46.0836   Anisotropy =   193.8671

     55  H    Isotropic =    26.6312   Anisotropy =     5.7920

     56  P    Isotropic =   234.2338   Anisotropy =    77.0257

     57  P    Isotropic =   219.7170   Anisotropy =   103.3339

     58  O    Isotropic =   216.2928   Anisotropy =    85.5394

     59  O    Isotropic =   211.2197   Anisotropy =   102.8982

     60  C    Isotropic =   126.3248   Anisotropy =    75.7663

     61  H    Isotropic =    28.0941   Anisotropy =     9.4807

     62  H    Isotropic =    27.9806   Anisotropy =     8.0280

     63  H    Isotropic =    27.5303   Anisotropy =     8.3135

     64  C    Isotropic =   126.3221   Anisotropy =    77.5018

     65  H    Isotropic =    28.0529   Anisotropy =     8.9777

     66  H    Isotropic =    28.3796   Anisotropy =     8.4568

     67  H    Isotropic =    28.3955   Anisotropy =     7.4023

 The electronic state is 1-A.
 Alpha  occ. eigenvalues --  -77.04675 -77.04556 -19.16721 -19.16246 -10.24511
 Alpha  occ. eigenvalues --  -10.24388 -10.23359 -10.22955 -10.19484 -10.18686
 Alpha  occ. eigenvalues --  -10.18195 -10.18061 -10.18028 -10.17896 -10.17893
 Alpha  occ. eigenvalues --  -10.17744 -10.17687 -10.17606 -10.17546 -10.17347
 Alpha  occ. eigenvalues --  -10.17318 -10.17304 -10.17288 -10.17259 -10.17236
 Alpha  occ. eigenvalues --  -10.17210 -10.17199 -10.17196 -10.17176 -10.17128
 Alpha  occ. eigenvalues --  -10.17103 -10.17081 -10.17022 -10.16929 -10.16910
 Alpha  occ. eigenvalues --  -10.16890 -10.16879  -6.53156  -6.53093  -4.69316
 Alpha  occ. eigenvalues --   -4.69268  -4.69247  -4.69205  -4.68800  -4.68736
 Alpha  occ. eigenvalues --   -1.07835  -1.07091  -0.86260  -0.85917  -0.85651
 Alpha  occ. eigenvalues --   -0.85350  -0.85246  -0.78829  -0.77118  -0.75991
 Alpha  occ. eigenvalues --   -0.75886  -0.74986  -0.74861  -0.74623  -0.74518
 Alpha  occ. eigenvalues --   -0.74434  -0.74205  -0.71279  -0.70723  -0.69684
 Alpha  occ. eigenvalues --   -0.63453  -0.62511  -0.61037  -0.60801  -0.60645
 Alpha  occ. eigenvalues --   -0.60390  -0.60348  -0.59735  -0.59407  -0.58886
 Alpha  occ. eigenvalues --   -0.56169  -0.55142  -0.54364  -0.52053  -0.51631
 Alpha  occ. eigenvalues --   -0.51201  -0.50904  -0.49601  -0.49117  -0.48210
 Alpha  occ. eigenvalues --   -0.47582  -0.46718  -0.46340  -0.45822  -0.45674
 Alpha  occ. eigenvalues --   -0.45433  -0.45294  -0.45106  -0.44879  -0.44560
 Alpha  occ. eigenvalues --   -0.44076  -0.43107  -0.42512  -0.42471  -0.42129
 Alpha  occ. eigenvalues --   -0.42070  -0.41680  -0.41358  -0.41112  -0.40010
 Alpha  occ. eigenvalues --   -0.39438  -0.38728  -0.38409  -0.37682  -0.37389
 Alpha  occ. eigenvalues --   -0.36988  -0.36859  -0.35967  -0.35673  -0.35368
 Alpha  occ. eigenvalues --   -0.34934  -0.34628  -0.34577  -0.34479  -0.34123
 Alpha  occ. eigenvalues --   -0.33778  -0.32974  -0.32197  -0.31977  -0.31022
 Alpha  occ. eigenvalues --   -0.27280  -0.26762  -0.26170  -0.26092  -0.25625
 Alpha  occ. eigenvalues --   -0.25451  -0.25211  -0.24398  -0.24032  -0.22601
 Alpha  occ. eigenvalues --   -0.21436  -0.18083
 Alpha virt. eigenvalues --   -0.03261  -0.03014  -0.02296  -0.01860  -0.01676
 Alpha virt. eigenvalues --   -0.01422  -0.01076  -0.00615  -0.00270   0.00491
 Alpha virt. eigenvalues --    0.02507   0.03147   0.03528   0.03859   0.05123

 Mulliken charges:
               1
     1  C   -0.149827
     2  H    0.065877
     3  C    0.082159
     4  C   -0.168357
     5  H    0.139315
     6  C   -0.125905
     7  H    0.103937
     8  C   -0.109287
     9  H    0.104549
    10  C   -0.123562
    11  H    0.104847
    12  C   -0.216448
    13  H    0.121988
    14  C   -0.069479
    15  C   -0.166054
    16  H    0.145643
    17  C   -0.270619
    18  H    0.111140
    19  C    0.306118
    20  C   -0.342708
    21  H    0.107782
    22  C    0.358802
    23  C    0.051042
    24  C   -0.133791
    25  H    0.100401
    26  C   -0.141206
    27  H    0.102794
    28  C   -0.101239
    29  H    0.105665
    30  C   -0.115894
    31  H    0.106411
    32  C   -0.162498
    33  H    0.112518
    34  C   -0.056209
    35  C   -0.136886
    36  H    0.148700
    37  C   -0.136169
    38  H    0.102623
    39  C   -0.085092
    40  H    0.108672
    41  C   -0.123691
    42  H    0.107824
    43  C   -0.105857
    44  H    0.136739
    45  C    0.088064
    46  C   -0.176208
    47  H    0.110559
    48  C   -0.108477
    49  H    0.104774
    50  C   -0.119484
    51  H    0.103502
    52  C   -0.116817
    53  H    0.103174
    54  C   -0.179005
    55  H    0.156072
    56  P    0.181899
    57  P    0.136574
    58  O   -0.270990
    59  O   -0.271524
    60  C   -0.222885
    61  H    0.130260
    62  H    0.126086
    63  H    0.142022
    64  C   -0.195697
    65  H    0.136075
    66  H    0.123317
    67  H    0.123944
 Sum of Mulliken charges =  -0.00000

 Dipole moment (field-independent basis, Debye):
    X=              2.5662    Y=             -2.0338    Z=              2.2625  Tot=              3.9800
 Quadrupole moment (field-independent basis, Debye-Ang):
   XX=           -211.6504   YY=           -215.9921   ZZ=           -225.2666
   XY=             -6.6369   XZ=              1.3347   YZ=              8.5297

 Summary of Natural Population Analysis:

                                       Natural Population
                Natural  -----------------------------------------------
    Atom  No    Charge         Core      Valence    Rydberg      Total
 -----------------------------------------------------------------------
      C    1   -0.76249      1.99927     4.72778    0.03544     6.76249
      H    2    0.24886      0.00000     0.74835    0.00279     0.75114
      C    3   -0.31490      1.99899     4.28510    0.03081     6.31490
      C    4   -0.21202      1.99909     4.19334    0.01959     6.21202
      H    5    0.21519      0.00000     0.78303    0.00178     0.78481
      C    6   -0.19611      1.99918     4.17825    0.01868     6.19611
      H    7    0.20623      0.00000     0.79248    0.00128     0.79377
      C    8   -0.21754      1.99918     4.19879    0.01957     6.21754
      H    9    0.20666      0.00000     0.79216    0.00118     0.79334
      C   10   -0.19672      1.99918     4.17882    0.01872     6.19672
      H   11    0.20704      0.00000     0.79170    0.00126     0.79296
      C   12   -0.21460      1.99908     4.19631    0.01920     6.21460
      H   13    0.19986      0.00000     0.79849    0.00165     0.80014
      C   14   -0.43160      1.99890     4.40319    0.02951     6.43160
      C   15   -0.12877      1.99913     4.10974    0.01990     6.12877
      H   16    0.21880      0.00000     0.77880    0.00240     0.78120
      C   17   -0.33435      1.99902     4.31628    0.01905     6.33435
      H   18    0.21379      0.00000     0.78428    0.00193     0.78621
      C   19    0.32521      1.99879     3.65439    0.02162     5.67479
      C   20   -0.34955      1.99894     4.33311    0.01749     6.34955
      H   21    0.22206      0.00000     0.77539    0.00255     0.77794
      C   22    0.32754      1.99868     3.65104    0.02275     5.67246
      C   23   -0.32369      1.99900     4.29329    0.03140     6.32369
      C   24   -0.21773      1.99908     4.19915    0.01950     6.21773
      H   25    0.20268      0.00000     0.79526    0.00207     0.79732
      C   26   -0.19722      1.99919     4.17928    0.01876     6.19722
      H   27    0.20615      0.00000     0.79256    0.00129     0.79385
      C   28   -0.21553      1.99919     4.19687    0.01948     6.21553
      H   29    0.20693      0.00000     0.79190    0.00118     0.79307
      C   30   -0.19715      1.99919     4.17938    0.01858     6.19715
      H   31    0.20767      0.00000     0.79106    0.00127     0.79233
      C   32   -0.20164      1.99909     4.18292    0.01963     6.20164
      H   33    0.21101      0.00000     0.78726    0.00174     0.78899
      C   34   -0.33846      1.99898     4.30735    0.03213     6.33846
      C   35   -0.19454      1.99909     4.17563    0.01983     6.19454
      H   36    0.22490      0.00000     0.77310    0.00199     0.77510
      C   37   -0.20967      1.99918     4.19190    0.01859     6.20967
      H   38    0.20640      0.00000     0.79227    0.00133     0.79360
      C   39   -0.19862      1.99919     4.18028    0.01915     6.19862
      H   40    0.20752      0.00000     0.79130    0.00118     0.79248
      C   41   -0.20621      1.99918     4.18827    0.01875     6.20621
      H   42    0.20868      0.00000     0.78999    0.00133     0.79132
      C   43   -0.18552      1.99908     4.16682    0.01962     6.18552
      H   44    0.21777      0.00000     0.78005    0.00218     0.78223
      C   45   -0.05379      1.99902     4.02953    0.02525     6.05379
      C   46   -0.20827      1.99909     4.19074    0.01844     6.20827
      H   47    0.20162      0.00000     0.79670    0.00168     0.79838
      C   48   -0.20233      1.99919     4.18461    0.01854     6.20233
      H   49    0.20760      0.00000     0.79115    0.00124     0.79240
      C   50   -0.21560      1.99919     4.19710    0.01931     6.21560
      H   51    0.20630      0.00000     0.79254    0.00116     0.79370
      C   52   -0.19832      1.99919     4.18010    0.01903     6.19832
      H   53    0.20747      0.00000     0.79127    0.00125     0.79253
      C   54   -0.19675      1.99906     4.17799    0.01970     6.19675
      H   55    0.21975      0.00000     0.77790    0.00235     0.78025
      P   56    0.85913      9.99807     4.11286    0.02994    14.14087
      P   57    0.84901      9.99802     4.12159    0.03138    14.15099
      O   58   -0.45284      1.99974     6.42919    0.02392     8.45284
      O   59   -0.45298      1.99974     6.42919    0.02404     8.45298
      C   60   -0.25108      1.99926     4.23929    0.01253     6.25108
      H   61    0.17469      0.00000     0.82316    0.00216     0.82531
      H   62    0.17126      0.00000     0.82647    0.00227     0.82874
      H   63    0.19664      0.00000     0.80208    0.00128     0.80336
      C   64   -0.24945      1.99927     4.23784    0.01234     6.24945
      H   65    0.19404      0.00000     0.80471    0.00125     0.80596
      H   66    0.17369      0.00000     0.82391    0.00240     0.82631
      H   67    0.17386      0.00000     0.82376    0.00238     0.82614
 =======================================================================
   * Total *    0.00000     89.96567   183.18039    0.85395   274.00000

 Normal termination of Gaussian 16 at Fri Jan 24 18:22:18 2025.
