 Gaussian 16, Revision B.01,
 Gaussian 16:  ES64L-G16RevB.01 20-Dec-2017

 --------------------------------------------
 # nmr=giao b3lyp/def2TZVP pop=nbo scfcyc=200
 --------------------------------------------

 --------------
 MS-58 SPE NoRh
 --------------
 Symbolic Z-matrix:
 Charge =  0 Multiplicity = 1

                         Standard orientation:
 ---------------------------------------------------------------------
 Center     Atomic      Atomic             Coordinates (Angstroms)
 Number     Number       Type             X           Y           Z
 ---------------------------------------------------------------------
      1         15           0       -0.712622    2.282380    0.237488
      2         15           0       -2.519113    0.147009    0.119311
      3          6           0       -0.660587    0.430781   -0.297516
      4          6           0        0.179067    3.284963   -1.030020
      5          6           0        1.268180    4.105334   -0.727847
      6          6           0        1.853937    4.887209   -1.719481
      7          6           0        1.360195    4.861588   -3.018168
      8          6           0        0.265163    4.056264   -3.325296
      9          6           0       -0.327078    3.281310   -2.336986
     10          6           0        0.246315    2.430294    1.799449
     11          6           0       -0.381296    2.924414    2.947000
     12          6           0        0.321054    3.035054    4.143659
     13          6           0        1.654989    2.648674    4.205447
     14          6           0        2.285957    2.147229    3.070389
     15          6           0        1.589110    2.037681    1.872491
     16          6           0       -3.164689   -0.884376   -1.261500
     17          6           0       -3.837316   -0.256816   -2.314723
     18          6           0       -4.273695   -0.994114   -3.411208
     19          6           0       -4.043323   -2.364507   -3.464461
     20          6           0       -3.365055   -2.994545   -2.424693
     21          6           0       -2.923022   -2.261095   -1.330703
     22          6           0       -2.715241   -0.858704    1.653755
     23          6           0       -1.914214   -0.612205    2.774763
     24          6           0       -2.144870   -1.286366    3.968582
     25          6           0       -3.187065   -2.202585    4.067234
     26          6           0       -4.003496   -2.435149    2.966782
     27          6           0       -3.773208   -1.767942    1.767623
     28          1           0       -0.685295    0.483087   -1.386472
     29          1           0        1.663383    4.143119    0.277863
     30          1           0        2.698188    5.518563   -1.471941
     31          1           0        1.818850    5.470542   -3.787108
     32          1           0       -0.131017    4.038584   -4.332961
     33          1           0       -1.193237    2.678344   -2.584965
     34          1           0       -1.424253    3.211475    2.905022
     35          1           0       -0.175114    3.423152    5.024333
     36          1           0        2.202558    2.735735    5.135384
     37          1           0        3.323929    1.841697    3.116724
     38          1           0        2.089761    1.642766    0.999262
     39          1           0       -4.015686    0.810014   -2.276306
     40          1           0       -4.797858   -0.498463   -4.219147
     41          1           0       -4.388503   -2.939702   -4.314057
     42          1           0       -3.177741   -4.060177   -2.467533
     43          1           0       -2.391466   -2.764100   -0.533546
     44          1           0       -1.116589    0.116888    2.735855
     45          1           0       -1.510045   -1.090786    4.823113
     46          1           0       -3.365250   -2.726045    4.998079
     47          1           0       -4.823919   -3.139303    3.036207
     48          1           0       -4.421854   -1.963897    0.924832
     49          7           0        1.948937   -2.245212    0.190661
     50          1           0        1.523003   -2.512943    1.065085
     51          6           0        0.369877   -0.507543    0.190978
     52          1           0        0.354326   -0.683582    1.260865
     53          6           0        1.281051   -1.237599   -0.504017
     54          6           0        1.585807   -1.181542   -1.999191
     55          1           0        2.458510   -1.817412   -2.145051
     56          6           0        1.963359    0.206434   -2.529589
     57          1           0        1.124434    0.901140   -2.528969
     58          1           0        2.764895    0.659977   -1.944740
     59          1           0        2.313406    0.120814   -3.560961
     60          6           0        0.458994   -1.823343   -2.828902
     61          1           0        0.221753   -2.822650   -2.462034
     62          1           0       -0.457795   -1.231883   -2.812265
     63          1           0        0.775700   -1.913847   -3.869787
     64          6           0        3.294816   -2.661323    0.050817
     65          6           0        3.621541   -3.978239    0.391177
     66          6           0        4.308947   -1.796692   -0.369760
     67          6           0        4.936318   -4.418661    0.308915
     68          1           0        2.838608   -4.655697    0.709606
     69          6           0        5.617778   -2.253321   -0.476578
     70          1           0        4.078563   -0.763360   -0.595961
     71          6           0        5.940184   -3.562429   -0.135602
     72          1           0        5.173596   -5.440329    0.578445
     73          1           0        6.392464   -1.573646   -0.809501
     74          1           0        6.962265   -3.911206   -0.210895
 ---------------------------------------------------------------------

 SCF Done:  E(RB3LYP) =  -2130.89636217     A.U. after   14 cycles

      1  P    Isotropic =   215.3822   Anisotropy =   131.6308

      2  P    Isotropic =   198.2146   Anisotropy =   133.4011

      3  C    Isotropic =   124.1989   Anisotropy =    35.0677

      4  C    Isotropic =    30.4992   Anisotropy =   200.2839

      5  C    Isotropic =    49.7981   Anisotropy =   182.8417

      6  C    Isotropic =    50.1027   Anisotropy =   182.4209

      7  C    Isotropic =    52.7713   Anisotropy =   181.0030

      8  C    Isotropic =    49.7479   Anisotropy =   183.8253

      9  C    Isotropic =    46.5891   Anisotropy =   183.9475

     10  C    Isotropic =    41.7726   Anisotropy =   197.8038

     11  C    Isotropic =    38.4330   Anisotropy =   183.6578

     12  C    Isotropic =    49.5587   Anisotropy =   185.4540

     13  C    Isotropic =    47.8429   Anisotropy =   190.2834

     14  C    Isotropic =    50.6486   Anisotropy =   182.7426

     15  C    Isotropic =    35.4071   Anisotropy =   196.1381

     16  C    Isotropic =    33.9500   Anisotropy =   207.3244

     17  C    Isotropic =    41.4351   Anisotropy =   179.7789

     18  C    Isotropic =    49.4784   Anisotropy =   184.1182

     19  C    Isotropic =    48.7100   Anisotropy =   188.9865

     20  C    Isotropic =    49.3229   Anisotropy =   185.1081

     21  C    Isotropic =    41.3781   Anisotropy =   191.6088

     22  C    Isotropic =    35.9884   Anisotropy =   191.4740

     23  C    Isotropic =    47.5293   Anisotropy =   183.2874

     24  C    Isotropic =    51.1162   Anisotropy =   182.1958

     25  C    Isotropic =    53.8246   Anisotropy =   179.5817

     26  C    Isotropic =    49.7146   Anisotropy =   183.0864

     27  C    Isotropic =    48.9270   Anisotropy =   183.0367

     28  H    Isotropic =    28.2998   Anisotropy =     2.2064

     29  H    Isotropic =    24.7469   Anisotropy =    13.0270

     30  H    Isotropic =    24.5433   Anisotropy =     6.2493

     31  H    Isotropic =    24.5801   Anisotropy =     3.9645

     32  H    Isotropic =    24.2830   Anisotropy =     6.2704

     33  H    Isotropic =    23.8298   Anisotropy =     9.4865

     34  H    Isotropic =    23.5714   Anisotropy =     8.2661

     35  H    Isotropic =    24.0404   Anisotropy =     4.8795

     36  H    Isotropic =    24.0767   Anisotropy =     4.3158

     37  H    Isotropic =    24.1952   Anisotropy =     6.7511

     38  H    Isotropic =    23.4264   Anisotropy =     8.4343

     39  H    Isotropic =    23.4856   Anisotropy =     8.7083

     40  H    Isotropic =    24.0516   Anisotropy =     5.0869

     41  H    Isotropic =    24.2479   Anisotropy =     4.1154

     42  H    Isotropic =    24.3371   Anisotropy =     6.1892

     43  H    Isotropic =    23.9528   Anisotropy =     9.6865

     44  H    Isotropic =    25.1298   Anisotropy =     7.0203

     45  H    Isotropic =    24.7923   Anisotropy =     8.3186

     46  H    Isotropic =    24.6834   Anisotropy =     4.4386

     47  H    Isotropic =    24.4887   Anisotropy =     5.7410

     48  H    Isotropic =    24.5651   Anisotropy =    12.2939

     49  N    Isotropic =   141.0360   Anisotropy =    90.5574

     50  H    Isotropic =    26.6222   Anisotropy =     7.8776

     51  C    Isotropic =    79.2524   Anisotropy =   103.3425

     52  H    Isotropic =    27.1003   Anisotropy =     5.9482

     53  C    Isotropic =    27.9469   Anisotropy =   146.4825

     54  C    Isotropic =   149.8461   Anisotropy =    14.3787

     55  H    Isotropic =    29.5429   Anisotropy =    10.3976

     56  C    Isotropic =   160.4161   Anisotropy =    30.1722

     57  H    Isotropic =    31.2464   Anisotropy =    11.5161

     58  H    Isotropic =    31.2471   Anisotropy =     5.6925

     59  H    Isotropic =    31.5649   Anisotropy =     8.9770

     60  C    Isotropic =   158.5490   Anisotropy =    34.9768

     61  H    Isotropic =    31.2173   Anisotropy =     7.3249

     62  H    Isotropic =    31.9249   Anisotropy =    10.8044

     63  H    Isotropic =    31.5513   Anisotropy =     9.2769

     64  C    Isotropic =    32.6413   Anisotropy =   159.4879

     65  C    Isotropic =    57.2895   Anisotropy =   153.2841

     66  C    Isotropic =    58.3856   Anisotropy =   164.0944

     67  C    Isotropic =    48.4376   Anisotropy =   184.0458

     68  H    Isotropic =    25.0434   Anisotropy =     9.1583

     69  C    Isotropic =    49.4552   Anisotropy =   182.8307

     70  H    Isotropic =    25.0187   Anisotropy =     9.8128

     71  C    Isotropic =    57.4061   Anisotropy =   174.7314

     72  H    Isotropic =    24.5044   Anisotropy =     5.2334

     73  H    Isotropic =    24.4979   Anisotropy =     7.1058

     74  H    Isotropic =    24.8141   Anisotropy =     3.9500

 The electronic state is 1-A.
 Alpha  occ. eigenvalues --  -77.04721 -77.04615 -14.33607 -10.21977 -10.21271
 Alpha  occ. eigenvalues --  -10.19767 -10.18524 -10.18523 -10.18379 -10.18344
 Alpha  occ. eigenvalues --  -10.18313 -10.18276 -10.18153 -10.18149 -10.18144
 Alpha  occ. eigenvalues --  -10.18133 -10.18095 -10.18056 -10.17998 -10.17919
 Alpha  occ. eigenvalues --  -10.17915 -10.17913 -10.17859 -10.17703 -10.17612
 Alpha  occ. eigenvalues --  -10.17607 -10.17606 -10.17483 -10.17449 -10.17414
 Alpha  occ. eigenvalues --  -10.17392 -10.17375 -10.17346 -10.17335 -10.17270
 Alpha  occ. eigenvalues --  -10.17182 -10.16195 -10.15898 -10.15826  -6.53263
 Alpha  occ. eigenvalues --   -6.53166  -4.69409  -4.69375  -4.69308  -4.69279
 Alpha  occ. eigenvalues --   -4.68907  -4.68808  -0.94921  -0.86488  -0.86310
 Alpha  occ. eigenvalues --   -0.85690  -0.85628  -0.85575  -0.81003  -0.78322
 Alpha  occ. eigenvalues --   -0.76466  -0.76100  -0.75456  -0.75325  -0.75312
 Alpha  occ. eigenvalues --   -0.74974  -0.74816  -0.74550  -0.74437  -0.73969
 Alpha  occ. eigenvalues --   -0.69015  -0.68584  -0.63969  -0.63924  -0.61998
 Alpha  occ. eigenvalues --   -0.61343  -0.61193  -0.60834  -0.60787  -0.60540
 Alpha  occ. eigenvalues --   -0.60064  -0.59980  -0.59867  -0.56123  -0.55793
 Alpha  occ. eigenvalues --   -0.54285  -0.53037  -0.52355  -0.52079  -0.50850
 Alpha  occ. eigenvalues --   -0.50160  -0.50073  -0.48628  -0.46203  -0.46066
 Alpha  occ. eigenvalues --   -0.45938  -0.45870  -0.45774  -0.45348  -0.45256
 Alpha  occ. eigenvalues --   -0.45158  -0.44874  -0.44817  -0.43816  -0.43578
 Alpha  occ. eigenvalues --   -0.42954  -0.42910  -0.42785  -0.42533  -0.42337
 Alpha  occ. eigenvalues --   -0.41697  -0.41089  -0.40803  -0.40712  -0.39589
 Alpha  occ. eigenvalues --   -0.39032  -0.38532  -0.38331  -0.37648  -0.37411
 Alpha  occ. eigenvalues --   -0.37286  -0.37103  -0.36610  -0.35758  -0.35628
 Alpha  occ. eigenvalues --   -0.35279  -0.35153  -0.34968  -0.34837  -0.34635
 Alpha  occ. eigenvalues --   -0.34221  -0.33650  -0.32941  -0.32513  -0.31929
 Alpha  occ. eigenvalues --   -0.31543  -0.27832  -0.26768  -0.26684  -0.26608
 Alpha  occ. eigenvalues --   -0.26411  -0.26180  -0.26064  -0.25775  -0.25624
 Alpha  occ. eigenvalues --   -0.24975  -0.21948  -0.20228  -0.17634
 Alpha virt. eigenvalues --   -0.03868  -0.03562  -0.02798  -0.02270  -0.02030
 Alpha virt. eigenvalues --   -0.01872  -0.01816  -0.01430  -0.01187  -0.00831
 Alpha virt. eigenvalues --    0.01216   0.02132   0.02935   0.03801   0.04565

 Mulliken charges:
               1
     1  P    0.145539
     2  P    0.166756
     3  C   -0.129475
     4  C    0.071151
     5  C   -0.176490
     6  C   -0.121373
     7  C   -0.111746
     8  C   -0.099061
     9  C   -0.225947
    10  C    0.026953
    11  C   -0.164914
    12  C   -0.100638
    13  C   -0.095325
    14  C   -0.109245
    15  C   -0.194910
    16  C    0.037901
    17  C   -0.173802
    18  C   -0.104250
    19  C   -0.103421
    20  C   -0.077068
    21  C   -0.217892
    22  C    0.050598
    23  C   -0.176971
    24  C   -0.169793
    25  C   -0.098245
    26  C   -0.125288
    27  C   -0.189190
    28  H    0.081239
    29  H    0.148899
    30  H    0.105603
    31  H    0.106711
    32  H    0.106401
    33  H    0.123570
    34  H    0.118353
    35  H    0.112315
    36  H    0.112410
    37  H    0.110403
    38  H    0.158548
    39  H    0.118372
    40  H    0.110134
    41  H    0.111221
    42  H    0.108517
    43  H    0.133439
    44  H    0.180395
    45  H    0.106644
    46  H    0.105350
    47  H    0.106943
    48  H    0.140783
    49  N   -0.304748
    50  H    0.209110
    51  C   -0.379980
    52  H    0.096835
    53  C    0.243113
    54  C   -0.043486
    55  H    0.092823
    56  C   -0.320621
    57  H    0.120910
    58  H    0.098016
    59  H    0.110337
    60  C   -0.363809
    61  H    0.106896
    62  H    0.128981
    63  H    0.109583
    64  C    0.301639
    65  C   -0.269191
    66  C   -0.204836
    67  C   -0.086138
    68  H    0.109482
    69  C   -0.103060
    70  H    0.115509
    71  C   -0.129407
    72  H    0.107387
    73  H    0.108109
    74  H    0.106440
 Sum of Mulliken charges =  -0.00000

 Dipole moment (field-independent basis, Debye):
    X=              1.9025    Y=             -1.7876    Z=             -0.2221  Tot=              2.6200
 Quadrupole moment (field-independent basis, Debye-Ang):
   XX=           -242.6728   YY=           -241.7348   ZZ=           -228.3491
   XY=              8.9452   XZ=              6.8571   YZ=             -1.6518

 Summary of Natural Population Analysis:

                                       Natural Population
                Natural  -----------------------------------------------
    Atom  No    Charge         Core      Valence    Rydberg      Total
 -----------------------------------------------------------------------
      P    1    0.82042      9.99806     4.14902    0.03250    14.17958
      P    2    0.83420      9.99807     4.13558    0.03215    14.16580
      C    3   -0.74325      1.99930     4.70857    0.03538     6.74325
      C    4   -0.31888      1.99898     4.29020    0.02970     6.31888
      C    5   -0.21106      1.99908     4.19223    0.01975     6.21106
      C    6   -0.19664      1.99918     4.17862    0.01884     6.19664
      C    7   -0.21359      1.99919     4.19488    0.01952     6.21359
      C    8   -0.19821      1.99918     4.18033    0.01870     6.19821
      C    9   -0.21286      1.99908     4.19397    0.01980     6.21286
      C   10   -0.34995      1.99900     4.31833    0.03262     6.34995
      C   11   -0.18660      1.99911     4.16716    0.02033     6.18660
      C   12   -0.21025      1.99918     4.19176    0.01931     6.21025
      C   13   -0.19478      1.99919     4.17662    0.01897     6.19478
      C   14   -0.21052      1.99918     4.19239    0.01895     6.21052
      C   15   -0.19374      1.99909     4.17463    0.02002     6.19374
      C   16   -0.33978      1.99900     4.30854    0.03225     6.33978
      C   17   -0.19539      1.99910     4.17614    0.02015     6.19539
      C   18   -0.20701      1.99918     4.18846    0.01937     6.20701
      C   19   -0.19878      1.99919     4.18051    0.01908     6.19878
      C   20   -0.20588      1.99918     4.18776    0.01893     6.20588
      C   21   -0.19409      1.99908     4.17500    0.02001     6.19409
      C   22   -0.32541      1.99898     4.29533    0.03110     6.32541
      C   23   -0.21859      1.99908     4.19970    0.01981     6.21859
      C   24   -0.19759      1.99918     4.17994    0.01847     6.19759
      C   25   -0.21745      1.99918     4.19867    0.01960     6.21745
      C   26   -0.19746      1.99918     4.17965    0.01863     6.19746
      C   27   -0.21098      1.99910     4.19238    0.01951     6.21098
      H   28    0.25349      0.00000     0.74418    0.00233     0.74651
      H   29    0.21487      0.00000     0.78329    0.00183     0.78513
      H   30    0.20690      0.00000     0.79178    0.00132     0.79310
      H   31    0.20749      0.00000     0.79132    0.00119     0.79251
      H   32    0.20805      0.00000     0.79064    0.00131     0.79195
      H   33    0.20499      0.00000     0.79283    0.00219     0.79501
      H   34    0.22202      0.00000     0.77643    0.00155     0.77798
      H   35    0.21115      0.00000     0.78759    0.00126     0.78885
      H   36    0.20915      0.00000     0.78967    0.00118     0.79085
      H   37    0.20936      0.00000     0.78924    0.00140     0.79064
      H   38    0.21780      0.00000     0.77959    0.00262     0.78220
      H   39    0.21664      0.00000     0.78181    0.00155     0.78336
      H   40    0.20975      0.00000     0.78898    0.00126     0.79025
      H   41    0.20868      0.00000     0.79014    0.00118     0.79132
      H   42    0.20788      0.00000     0.79073    0.00138     0.79212
      H   43    0.21491      0.00000     0.78284    0.00225     0.78509
      H   44    0.21211      0.00000     0.78596    0.00194     0.78789
      H   45    0.20788      0.00000     0.79084    0.00128     0.79212
      H   46    0.20699      0.00000     0.79183    0.00118     0.79301
      H   47    0.20748      0.00000     0.79125    0.00127     0.79252
      H   48    0.21475      0.00000     0.78347    0.00178     0.78525
      N   49   -0.57401      1.99942     5.55008    0.02451     7.57401
      H   50    0.38727      0.00000     0.61023    0.00250     0.61273
      C   51   -0.30704      1.99895     4.28437    0.02373     6.30704
      H   52    0.19637      0.00000     0.79998    0.00365     0.80363
      C   53    0.20853      1.99890     3.77080    0.02178     5.79147
      C   54   -0.25950      1.99934     4.24479    0.01537     6.25950
      H   55    0.21275      0.00000     0.78496    0.00229     0.78725
      C   56   -0.58083      1.99942     4.56925    0.01216     6.58083
      H   57    0.20485      0.00000     0.79319    0.00196     0.79515
      H   58    0.20199      0.00000     0.79690    0.00111     0.79801
      H   59    0.20345      0.00000     0.79542    0.00113     0.79655
      C   60   -0.57330      1.99942     4.56244    0.01144     6.57330
      H   61    0.20793      0.00000     0.79090    0.00117     0.79207
      H   62    0.19951      0.00000     0.79883    0.00165     0.80049
      H   63    0.20068      0.00000     0.79806    0.00126     0.79932
      C   64    0.14139      1.99892     3.84011    0.01959     5.85861
      C   65   -0.23210      1.99908     4.21324    0.01977     6.23210
      C   66   -0.24880      1.99905     4.23021    0.01955     6.24880
      C   67   -0.18993      1.99920     4.17159    0.01914     6.18993
      H   68    0.20871      0.00000     0.78982    0.00147     0.79129
      C   69   -0.18927      1.99920     4.17116    0.01891     6.18927
      H   70    0.21087      0.00000     0.78712    0.00201     0.78913
      C   71   -0.23271      1.99918     4.21365    0.01987     6.23271
      H   72    0.20829      0.00000     0.79054    0.00117     0.79171
      H   73    0.20803      0.00000     0.79072    0.00125     0.79197
      H   74    0.20863      0.00000     0.79022    0.00115     0.79137
 =======================================================================
   * Total *   -0.00000     93.96439   193.13931    0.89630   288.00000

 Normal termination of Gaussian 16 at Fri Jan 24 19:45:23 2025.
