 Gaussian 16, Revision B.01,
 Gaussian 16:  ES64L-G16RevB.01 20-Dec-2017

 --------------------------------------------
 # nmr=giao b3lyp/def2TZVP pop=nbo scfcyc=200
 --------------------------------------------

 --------------
 MS-54 SPE NoRh
 --------------
 Symbolic Z-matrix:
 Charge =  0 Multiplicity = 1

                         Standard orientation:
 ---------------------------------------------------------------------
 Center     Atomic      Atomic             Coordinates (Angstroms)
 Number     Number       Type             X           Y           Z
 ---------------------------------------------------------------------
      1          6           0        0.152617   -0.184555    0.050527
      2          1           0        0.350183   -0.809198    0.921413
      3          6           0        1.323478   -2.726334   -1.067394
      4          1           0        1.761323   -3.137388   -1.978676
      5          1           0        0.347132   -3.195884   -0.942633
      6          6           0       -2.686555    0.856326    0.169202
      7          1           0       -2.688149    0.655286    1.243502
      8          1           0       -2.144137    1.789423    0.021627
      9         15           0        0.971284   -0.917858   -1.496105
     10         15           0       -1.624585   -0.475386   -0.619352
     11          6           0       -2.187681   -2.044278    0.173983
     12          6           0       -2.253458   -2.165707    1.567263
     13          6           0       -2.553043   -3.134131   -0.619219
     14          6           0       -2.681044   -3.351514    2.150958
     15          1           0       -1.975084   -1.337116    2.207716
     16          6           0       -2.981102   -4.322664   -0.033212
     17          1           0       -2.500939   -3.052072   -1.697155
     18          6           0       -3.046432   -4.432643    1.351601
     19          1           0       -2.731289   -3.433310    3.229584
     20          1           0       -3.264031   -5.159985   -0.658076
     21          1           0       -3.381095   -5.355843    1.808030
     22          6           0        2.644912   -0.201369   -1.772746
     23          6           0        3.206395   -0.324174   -3.048522
     24          6           0        3.397265    0.382693   -0.750603
     25          6           0        4.496179    0.130905   -3.298787
     26          1           0        2.648308   -0.786614   -3.852130
     27          6           0        4.683521    0.845017   -1.008618
     28          1           0        2.989773    0.482750    0.244010
     29          6           0        5.234305    0.722783   -2.278990
     30          1           0        4.920128    0.027513   -4.290074
     31          1           0        5.256426    1.298159   -0.209479
     32          1           0        6.236278    1.083954   -2.474792
     33          6           0       -4.091847    0.973660   -0.365603
     34          6           0       -5.059367   -0.006130   -0.119123
     35          6           0       -4.463441    2.108236   -1.093104
     36          6           0       -6.357027    0.140878   -0.598674
     37          1           0       -4.804715   -0.883530    0.462931
     38          6           0       -5.762047    2.257829   -1.571098
     39          1           0       -3.735339    2.890751   -1.271650
     40          6           0       -6.712090    1.271316   -1.328537
     41          1           0       -7.094716   -0.624932   -0.392020
     42          1           0       -6.031919    3.149229   -2.123331
     43          1           0       -7.723496    1.387037   -1.694751
     44          6           0        2.205476   -2.987160    0.122312
     45          6           0        3.597738   -3.010151   -0.004087
     46          6           0        1.644779   -3.242760    1.378194
     47          6           0        4.406654   -3.271437    1.095755
     48          1           0        4.053001   -2.834746   -0.971722
     49          6           0        2.453894   -3.502282    2.479724
     50          1           0        0.567452   -3.270445    1.490238
     51          6           0        3.837810   -3.513102    2.342178
     52          1           0        5.483020   -3.294899    0.976853
     53          1           0        2.002958   -3.710214    3.442337
     54          1           0        4.468763   -3.722772    3.197489
     55          6           0        0.452632    1.249723    0.390042
     56          6           0        0.697736    1.609573    1.718793
     57          6           0        0.470621    2.279280   -0.558007
     58          6           0        0.947474    2.919708    2.093276
     59          1           0        0.706828    0.843677    2.487571
     60          6           0        0.715010    3.594253   -0.205727
     61          1           0        0.295888    2.051431   -1.605217
     62          6           0        0.957557    3.961559    1.138640
     63          1           0        1.139973    3.131041    3.133734
     64          1           0        0.728104    4.343216   -0.984305
     65          7           0        1.190248    5.264991    1.497845
     66          6           0        1.280874    6.299348    0.479926
     67          1           0        1.445292    7.258302    0.963159
     68          1           0        2.107978    6.123914   -0.216314
     69          1           0        0.354870    6.374852   -0.097849
     70          6           0        1.511165    5.595993    2.876854
     71          1           0        1.627808    6.672717    2.965877
     72          1           0        0.710468    5.291805    3.557630
     73          1           0        2.442987    5.125469    3.210342
 ---------------------------------------------------------------------

 SCF Done:  E(RB3LYP) =  -2092.80028043     A.U. after   15 cycles

      1  C    Isotropic =   134.8534   Anisotropy =    33.6016

      2  H    Isotropic =    28.1666   Anisotropy =     3.9827

      3  C    Isotropic =   139.6572   Anisotropy =    22.5254

      4  H    Isotropic =    29.1049   Anisotropy =     7.4342

      5  H    Isotropic =    29.1807   Anisotropy =     9.1851

      6  C    Isotropic =   143.8880   Anisotropy =    32.0826

      7  H    Isotropic =    28.4388   Anisotropy =     2.5948

      8  H    Isotropic =    29.6534   Anisotropy =    10.4852

      9  P    Isotropic =   232.8965   Anisotropy =   104.7049

     10  P    Isotropic =   237.4397   Anisotropy =   129.3506

     11  C    Isotropic =    31.7229   Anisotropy =   212.7642

     12  C    Isotropic =    42.3286   Anisotropy =   191.8026

     13  C    Isotropic =    39.0873   Anisotropy =   182.4453

     14  C    Isotropic =    48.9879   Anisotropy =   184.7001

     15  H    Isotropic =    23.2771   Anisotropy =    10.3006

     16  C    Isotropic =    49.5745   Anisotropy =   184.2858

     17  H    Isotropic =    23.5656   Anisotropy =     7.9027

     18  C    Isotropic =    48.1213   Anisotropy =   188.4946

     19  H    Isotropic =    23.9382   Anisotropy =     5.6992

     20  H    Isotropic =    24.1253   Anisotropy =     4.9597

     21  H    Isotropic =    24.0724   Anisotropy =     4.0419

     22  C    Isotropic =    35.3942   Anisotropy =   198.0236

     23  C    Isotropic =    45.8033   Anisotropy =   183.0449

     24  C    Isotropic =    38.6978   Anisotropy =   195.9184

     25  C    Isotropic =    50.4395   Anisotropy =   182.2837

     26  H    Isotropic =    24.0766   Anisotropy =     9.7896

     27  C    Isotropic =    51.4050   Anisotropy =   182.9326

     28  H    Isotropic =    25.6383   Anisotropy =     8.7111

     29  C    Isotropic =    51.9614   Anisotropy =   184.3077

     30  H    Isotropic =    24.3342   Anisotropy =     5.0191

     31  H    Isotropic =    25.0807   Anisotropy =     7.2558

     32  H    Isotropic =    24.6358   Anisotropy =     3.9969

     33  C    Isotropic =    36.5096   Anisotropy =   195.9135

     34  C    Isotropic =    49.7461   Anisotropy =   176.4938

     35  C    Isotropic =    48.2626   Anisotropy =   159.8781

     36  C    Isotropic =    50.5805   Anisotropy =   181.7205

     37  H    Isotropic =    25.6085   Anisotropy =    11.9432

     38  C    Isotropic =    49.9280   Anisotropy =   181.4495

     39  H    Isotropic =    24.6911   Anisotropy =    10.0904

     40  C    Isotropic =    52.9968   Anisotropy =   180.9633

     41  H    Isotropic =    24.8288   Anisotropy =     7.4739

     42  H    Isotropic =    24.5259   Anisotropy =     6.0493

     43  H    Isotropic =    24.7022   Anisotropy =     4.1544

     44  C    Isotropic =    39.9027   Anisotropy =   196.2677

     45  C    Isotropic =    49.1768   Anisotropy =   173.6466

     46  C    Isotropic =    50.2273   Anisotropy =   165.2029

     47  C    Isotropic =    50.5355   Anisotropy =   183.3851

     48  H    Isotropic =    26.0668   Anisotropy =     8.9571

     49  C    Isotropic =    51.0811   Anisotropy =   181.1294

     50  H    Isotropic =    25.6279   Anisotropy =     6.6977

     51  C    Isotropic =    54.0320   Anisotropy =   180.7168

     52  H    Isotropic =    24.9120   Anisotropy =     6.0531

     53  H    Isotropic =    24.5518   Anisotropy =     7.3174

     54  H    Isotropic =    24.7335   Anisotropy =     4.1270

     55  C    Isotropic =    52.0837   Anisotropy =   171.2675

     56  C    Isotropic =    46.9645   Anisotropy =   155.0577

     57  C    Isotropic =    47.1074   Anisotropy =   184.8503

     58  C    Isotropic =    69.6127   Anisotropy =   147.9350

     59  H    Isotropic =    24.6281   Anisotropy =     9.2285

     60  C    Isotropic =    68.4711   Anisotropy =   151.8701

     61  H    Isotropic =    24.6355   Anisotropy =     9.2480

     62  C    Isotropic =    30.3894   Anisotropy =   169.4812

     63  H    Isotropic =    25.3751   Anisotropy =     9.3841

     64  H    Isotropic =    25.4224   Anisotropy =     9.2165

     65  N    Isotropic =   193.9692   Anisotropy =    99.4160

     66  C    Isotropic =   141.3663   Anisotropy =    58.9383

     67  H    Isotropic =    29.3044   Anisotropy =     8.6176

     68  H    Isotropic =    29.0197   Anisotropy =     8.3941

     69  H    Isotropic =    28.7117   Anisotropy =     8.7052

     70  C    Isotropic =   141.2762   Anisotropy =    59.0053

     71  H    Isotropic =    29.2615   Anisotropy =     8.5619

     72  H    Isotropic =    28.6965   Anisotropy =     8.5393

     73  H    Isotropic =    28.9217   Anisotropy =     8.6311

 The electronic state is 1-A.
 Alpha  occ. eigenvalues --  -77.04174 -77.04083 -14.33938 -10.21414 -10.20824
 Alpha  occ. eigenvalues --  -10.20759 -10.18793 -10.18464 -10.18438 -10.18384
 Alpha  occ. eigenvalues --  -10.18291 -10.18258 -10.18202 -10.18004 -10.17910
 Alpha  occ. eigenvalues --  -10.17634 -10.17602 -10.17450 -10.17230 -10.17160
 Alpha  occ. eigenvalues --  -10.17106 -10.17099 -10.17001 -10.16941 -10.16918
 Alpha  occ. eigenvalues --  -10.16915 -10.16848 -10.16821 -10.16801 -10.16786
 Alpha  occ. eigenvalues --  -10.16694 -10.16682 -10.16668 -10.16654 -10.16602
 Alpha  occ. eigenvalues --  -10.16589 -10.16558 -10.16497  -6.52709  -6.52615
 Alpha  occ. eigenvalues --   -4.68857  -4.68819  -4.68772  -4.68720  -4.68337
 Alpha  occ. eigenvalues --   -4.68250  -0.95556  -0.86523  -0.85629  -0.85315
 Alpha  occ. eigenvalues --   -0.85236  -0.84999  -0.78791  -0.77447  -0.76659
 Alpha  occ. eigenvalues --   -0.75633  -0.75583  -0.75246  -0.74660  -0.74355
 Alpha  occ. eigenvalues --   -0.74125  -0.74003  -0.72740  -0.71573  -0.69125
 Alpha  occ. eigenvalues --   -0.68374  -0.65164  -0.61994  -0.61407  -0.61085
 Alpha  occ. eigenvalues --   -0.60496  -0.60220  -0.60087  -0.60024  -0.58407
 Alpha  occ. eigenvalues --   -0.58388  -0.57492  -0.55151  -0.54334  -0.52889
 Alpha  occ. eigenvalues --   -0.51513  -0.51125  -0.50420  -0.49794  -0.48989
 Alpha  occ. eigenvalues --   -0.47352  -0.46696  -0.46346  -0.45938  -0.45746
 Alpha  occ. eigenvalues --   -0.45617  -0.45384  -0.45071  -0.44940  -0.44860
 Alpha  occ. eigenvalues --   -0.44542  -0.43293  -0.43106  -0.42310  -0.42059
 Alpha  occ. eigenvalues --   -0.41828  -0.41777  -0.41735  -0.41388  -0.41320
 Alpha  occ. eigenvalues --   -0.41145  -0.40715  -0.39915  -0.39494  -0.38877
 Alpha  occ. eigenvalues --   -0.38787  -0.38610  -0.38004  -0.37634  -0.36737
 Alpha  occ. eigenvalues --   -0.36583  -0.36303  -0.35444  -0.35166  -0.34467
 Alpha  occ. eigenvalues --   -0.34439  -0.34194  -0.33789  -0.33685  -0.33559
 Alpha  occ. eigenvalues --   -0.32953  -0.32347  -0.31862  -0.28248  -0.26661
 Alpha  occ. eigenvalues --   -0.26222  -0.26097  -0.25569  -0.25446  -0.24962
 Alpha  occ. eigenvalues --   -0.24779  -0.24354  -0.24002  -0.22086  -0.19414
 Alpha  occ. eigenvalues --   -0.18283
 Alpha virt. eigenvalues --   -0.03863  -0.02556  -0.02168  -0.01678  -0.01184
 Alpha virt. eigenvalues --   -0.00787  -0.00621  -0.00515  -0.00217   0.00431
 Alpha virt. eigenvalues --    0.02050   0.02991   0.03541   0.04741   0.04836

 Mulliken charges:
               1
     1  C   -0.078614
     2  H    0.118863
     3  C   -0.333410
     4  H    0.126498
     5  H    0.158418
     6  C   -0.327406
     7  H    0.107696
     8  H    0.169647
     9  P    0.080989
    10  P    0.111764
    11  C    0.012786
    12  C   -0.217258
    13  C   -0.157602
    14  C   -0.107453
    15  H    0.120287
    16  C   -0.094121
    17  H    0.121128
    18  C   -0.096831
    19  H    0.109334
    20  H    0.112797
    21  H    0.113586
    22  C    0.060291
    23  C   -0.185185
    24  C   -0.095104
    25  C   -0.119272
    26  H    0.102563
    27  C   -0.144425
    28  H    0.148588
    29  C   -0.091432
    30  H    0.105640
    31  H    0.101400
    32  H    0.105143
    33  C    0.217443
    34  C   -0.186813
    35  C   -0.229856
    36  C   -0.108749
    37  H    0.147244
    38  C   -0.095205
    39  H    0.101499
    40  C   -0.121200
    41  H    0.102867
    42  H    0.102644
    43  H    0.103537
    44  C    0.151082
    45  C   -0.192389
    46  C   -0.219559
    47  C   -0.097008
    48  H    0.122401
    49  C   -0.126784
    50  H    0.195944
    51  C   -0.120866
    52  H    0.103846
    53  H    0.098291
    54  H    0.102205
    55  C   -0.020141
    56  C   -0.205296
    57  C   -0.219537
    58  C   -0.214974
    59  H    0.100796
    60  C   -0.194285
    61  H    0.119606
    62  C    0.246656
    63  H    0.107790
    64  H    0.112059
    65  N   -0.096004
    66  C   -0.280044
    67  H    0.115923
    68  H    0.125981
    69  H    0.125920
    70  C   -0.279319
    71  H    0.116491
    72  H    0.125905
    73  H    0.122597
 Sum of Mulliken charges =  -0.00000

 Dipole moment (field-independent basis, Debye):
    X=              1.1614    Y=              2.2618    Z=              2.6182  Tot=              3.6496
 Quadrupole moment (field-independent basis, Debye-Ang):
   XX=           -236.7047   YY=           -211.3985   ZZ=           -231.7803
   XY=             13.8477   XZ=             -1.5330   YZ=              2.7044

 Summary of Natural Population Analysis:

                                       Natural Population
                Natural  -----------------------------------------------
    Atom  No    Charge         Core      Valence    Rydberg      Total
 -----------------------------------------------------------------------
      C    1   -0.76217      1.99931     4.72936    0.03350     6.76217
      H    2    0.24233      0.00000     0.75393    0.00374     0.75767
      C    3   -0.67786      1.99931     4.65687    0.02169     6.67786
      H    4    0.23519      0.00000     0.76336    0.00144     0.76481
      H    5    0.23495      0.00000     0.76326    0.00180     0.76505
      C    6   -0.69777      1.99932     4.67573    0.02272     6.69777
      H    7    0.21359      0.00000     0.78308    0.00333     0.78641
      H    8    0.24188      0.00000     0.75594    0.00218     0.75812
      P    9    0.80751      9.99835     4.16081    0.03333    14.19249
      P   10    0.80206      9.99833     4.16758    0.03203    14.19794
      C   11   -0.33688      1.99901     4.30515    0.03271     6.33688
      C   12   -0.20754      1.99907     4.18880    0.01966     6.20754
      C   13   -0.19365      1.99910     4.17408    0.02047     6.19365
      C   14   -0.20625      1.99918     4.18814    0.01893     6.20625
      H   15    0.20449      0.00000     0.79319    0.00232     0.79551
      C   16   -0.20425      1.99918     4.18576    0.01931     6.20425
      H   17    0.22229      0.00000     0.77616    0.00155     0.77771
      C   18   -0.19838      1.99919     4.18016    0.01903     6.19838
      H   19    0.20893      0.00000     0.78968    0.00139     0.79107
      H   20    0.21126      0.00000     0.78748    0.00126     0.78874
      H   21    0.21009      0.00000     0.78873    0.00117     0.78991
      C   22   -0.33553      1.99900     4.30539    0.03114     6.33553
      C   23   -0.20223      1.99910     4.18279    0.02034     6.20223
      C   24   -0.19102      1.99907     4.17074    0.02121     6.19102
      C   25   -0.20817      1.99918     4.18960    0.01939     6.20817
      H   26    0.21230      0.00000     0.78593    0.00177     0.78770
      C   27   -0.20325      1.99919     4.18456    0.01951     6.20325
      H   28    0.21627      0.00000     0.78128    0.00245     0.78373
      C   29   -0.20719      1.99919     4.18867    0.01934     6.20719
      H   30    0.20724      0.00000     0.79151    0.00125     0.79276
      H   31    0.20597      0.00000     0.79266    0.00137     0.79403
      H   32    0.20607      0.00000     0.79275    0.00118     0.79393
      C   33   -0.01813      1.99909     3.99688    0.02216     6.01813
      C   34   -0.20775      1.99907     4.19036    0.01832     6.20775
      C   35   -0.20177      1.99909     4.18417    0.01851     6.20177
      C   36   -0.19666      1.99920     4.17888    0.01858     6.19666
      H   37    0.21046      0.00000     0.78785    0.00169     0.78954
      C   38   -0.19835      1.99919     4.18054    0.01862     6.19835
      H   39    0.20223      0.00000     0.79623    0.00153     0.79777
      C   40   -0.21685      1.99919     4.19844    0.01922     6.21685
      H   41    0.20571      0.00000     0.79304    0.00126     0.79429
      H   42    0.20564      0.00000     0.79309    0.00127     0.79436
      H   43    0.20572      0.00000     0.79308    0.00119     0.79428
      C   44   -0.03380      1.99909     4.01104    0.02367     6.03380
      C   45   -0.20344      1.99908     4.18577    0.01859     6.20344
      C   46   -0.22164      1.99908     4.20391    0.01865     6.22164
      C   47   -0.19705      1.99919     4.17940    0.01845     6.19705
      H   48    0.20976      0.00000     0.78835    0.00189     0.79024
      C   49   -0.20135      1.99919     4.18357    0.01859     6.20135
      H   50    0.20914      0.00000     0.78895    0.00191     0.79086
      C   51   -0.22062      1.99919     4.20202    0.01942     6.22062
      H   52    0.20649      0.00000     0.79225    0.00126     0.79351
      H   53    0.20472      0.00000     0.79399    0.00130     0.79528
      H   54    0.20551      0.00000     0.79329    0.00119     0.79449
      C   55   -0.08880      1.99903     4.06411    0.02566     6.08880
      C   56   -0.18469      1.99908     4.16724    0.01837     6.18469
      C   57   -0.19266      1.99906     4.17580    0.01780     6.19266
      C   58   -0.26671      1.99912     4.24882    0.01877     6.26671
      H   59    0.20204      0.00000     0.79648    0.00148     0.79796
      C   60   -0.26092      1.99912     4.24302    0.01879     6.26092
      H   61    0.21617      0.00000     0.78231    0.00152     0.78383
      C   62    0.16186      1.99902     3.82021    0.01892     5.83814
      H   63    0.20870      0.00000     0.78988    0.00143     0.79130
      H   64    0.20997      0.00000     0.78861    0.00142     0.79003
      N   65   -0.37499      1.99944     5.35396    0.02159     7.37499
      C   66   -0.39096      1.99935     4.38183    0.00978     6.39096
      H   67    0.20026      0.00000     0.79839    0.00136     0.79974
      H   68    0.18611      0.00000     0.81097    0.00291     0.81389
      H   69    0.19102      0.00000     0.80643    0.00255     0.80898
      C   70   -0.39068      1.99935     4.38156    0.00977     6.39068
      H   71    0.20059      0.00000     0.79805    0.00135     0.79941
      H   72    0.19107      0.00000     0.80637    0.00256     0.80893
      H   73    0.18437      0.00000     0.81265    0.00297     0.81563
 =======================================================================
   * Total *    0.00000     91.96630   189.17491    0.85879   282.00000

 Normal termination of Gaussian 16 at Fri Jan 24 18:37:40 2025.
