 Gaussian 16, Revision B.01,
 Gaussian 16:  ES64L-G16RevB.01 20-Dec-2017

 --------------------------------------------
 # nmr=giao b3lyp/def2TZVP pop=nbo scfcyc=200
 --------------------------------------------

 --------------
 MS-74 SPE NoRh
 --------------
 Symbolic Z-matrix:
 Charge =  0 Multiplicity = 1

                         Standard orientation:
 ---------------------------------------------------------------------
 Center     Atomic      Atomic             Coordinates (Angstroms)
 Number     Number       Type             X           Y           Z
 ---------------------------------------------------------------------
      1         15           0       -1.667736   -0.256887   -1.467215
      2          7           0       -1.172569   -0.537136    1.292116
      3          6           0       -0.553681   -0.669277   -0.017512
      4          1           0       -0.334744   -1.735375   -0.159185
      5          6           0       -3.039694   -1.490803   -0.957393
      6          1           0       -3.935305   -1.341304   -1.562695
      7          1           0       -2.678534   -2.505487   -1.133402
      8          7           0       -3.365939   -1.308854    0.454881
      9          7           0       -2.915026    1.086498    0.622121
     10          6           0       -2.509500    1.290216   -0.762526
     11          1           0       -1.827442    2.132241   -0.832440
     12          1           0       -3.383845    1.522342   -1.374356
     13          6           0       -2.251519   -1.550911    1.383531
     14          1           0       -1.830905   -2.541068    1.202444
     15          1           0       -2.653898   -1.531380    2.396244
     16          6           0       -3.917404    0.023290    0.739735
     17          1           0       -4.747596    0.229159    0.063330
     18          1           0       -4.301927    0.020404    1.760485
     19          6           0       -1.774181    0.797740    1.506388
     20          1           0       -1.007106    1.557348    1.372314
     21          1           0       -2.127396    0.839830    2.537861
     22          6           0        2.641806    1.116562    1.110470
     23          6           0        2.640438   -0.388092    1.293206
     24          1           0        3.605241    1.429570    0.694981
     25          1           0        2.494281    1.624937    2.063952
     26          1           0        3.618052   -0.718980    1.634933
     27          1           0        1.890432   -0.699169    2.032949
     28         15           0        1.076651    0.038611   -0.690800
     29          7           0        2.343737   -0.951140   -0.038910
     30          7           0        1.556154    1.463897    0.159845
     31          6           0        1.783539    2.770062   -0.529936
     32          1           0        2.643613    2.660734   -1.206831
     33          6           0        0.578717    3.232900   -1.340192
     34          1           0       -0.242695    3.516828   -0.678511
     35          1           0        0.851320    4.114975   -1.921421
     36          1           0        0.229313    2.470260   -2.041815
     37          6           0        2.130423    3.856022    0.495418
     38          1           0        3.070650    3.670604    1.013397
     39          1           0        2.228437    4.812626   -0.018844
     40          1           0        1.337176    3.951010    1.239152
     41          6           0        2.278387   -2.434895   -0.081364
     42          1           0        1.442467   -2.771448    0.552497
     43          6           0        3.560022   -3.048309    0.490371
     44          1           0        3.677377   -2.865587    1.557302
     45          1           0        3.533767   -4.129770    0.350421
     46          1           0        4.437881   -2.659563   -0.029758
     47          6           0        2.054934   -2.960224   -1.497385
     48          1           0        1.174501   -2.529112   -1.979764
     49          1           0        2.922383   -2.745976   -2.124378
     50          1           0        1.922552   -4.043062   -1.465872
 ---------------------------------------------------------------------

 SCF Done:  E(RB3LYP) =  -1507.71292544     A.U. after   13 cycles

      1  P    Isotropic =   370.0050   Anisotropy =    30.5785

      2  N    Isotropic =   198.3511   Anisotropy =    46.8457

      3  C    Isotropic =   114.2060   Anisotropy =    37.7174

      4  H    Isotropic =    28.2880   Anisotropy =     8.1335

      5  C    Isotropic =   119.0060   Anisotropy =    34.1682

      6  H    Isotropic =    27.7203   Anisotropy =     6.1099

      7  H    Isotropic =    27.9502   Anisotropy =     5.8082

      8  N    Isotropic =   208.0202   Anisotropy =    57.3392

      9  N    Isotropic =   215.1051   Anisotropy =    55.9390

     10  C    Isotropic =   127.3013   Anisotropy =    44.1536

     11  H    Isotropic =    27.3646   Anisotropy =     6.7712

     12  H    Isotropic =    28.2317   Anisotropy =     5.6783

     13  C    Isotropic =   100.3717   Anisotropy =    31.3450

     14  H    Isotropic =    27.5408   Anisotropy =     4.6044

     15  H    Isotropic =    27.4286   Anisotropy =     6.3457

     16  C    Isotropic =   102.5288   Anisotropy =    26.7176

     17  H    Isotropic =    27.4779   Anisotropy =     6.2252

     18  H    Isotropic =    27.4093   Anisotropy =     7.1603

     19  C    Isotropic =   108.6341   Anisotropy =    26.6537

     20  H    Isotropic =    26.8151   Anisotropy =     4.8982

     21  H    Isotropic =    27.6905   Anisotropy =     5.7365

     22  C    Isotropic =   125.5225   Anisotropy =    41.7481

     23  C    Isotropic =   126.5299   Anisotropy =    45.8918

     24  H    Isotropic =    29.2779   Anisotropy =     8.4423

     25  H    Isotropic =    28.4781   Anisotropy =     7.1887

     26  H    Isotropic =    28.6591   Anisotropy =     7.2451

     27  H    Isotropic =    29.0244   Anisotropy =     6.2282

     28  P    Isotropic =   131.5266   Anisotropy =   173.9226

     29  N    Isotropic =   156.6968   Anisotropy =    41.9967

     30  N    Isotropic =   178.3300   Anisotropy =    71.8783

     31  C    Isotropic =   122.0815   Anisotropy =    48.8303

     32  H    Isotropic =    28.8087   Anisotropy =     6.0961

     33  C    Isotropic =   155.2910   Anisotropy =    37.2430

     34  H    Isotropic =    30.5819   Anisotropy =     5.5918

     35  H    Isotropic =    30.7234   Anisotropy =     9.8626

     36  H    Isotropic =    29.8610   Anisotropy =     6.3265

     37  C    Isotropic =   157.4904   Anisotropy =    36.9293

     38  H    Isotropic =    30.2922   Anisotropy =     7.8773

     39  H    Isotropic =    30.9333   Anisotropy =     9.8574

     40  H    Isotropic =    30.9688   Anisotropy =     6.2786

     41  C    Isotropic =   127.3690   Anisotropy =    42.3913

     42  H    Isotropic =    29.0039   Anisotropy =     4.4750

     43  C    Isotropic =   159.0747   Anisotropy =    35.9907

     44  H    Isotropic =    30.3424   Anisotropy =     8.0879

     45  H    Isotropic =    30.8987   Anisotropy =     9.5528

     46  H    Isotropic =    31.0316   Anisotropy =     7.6799

     47  C    Isotropic =   158.6760   Anisotropy =    34.5944

     48  H    Isotropic =    30.3094   Anisotropy =     6.6180

     49  H    Isotropic =    30.8921   Anisotropy =     7.4587

     50  H    Isotropic =    30.9739   Anisotropy =     9.6039

 The electronic state is 1-A.
 Alpha  occ. eigenvalues --  -77.07065 -77.02857 -14.31275 -14.31167 -14.30929
 Alpha  occ. eigenvalues --  -14.30780 -14.30712 -10.22116 -10.21910 -10.21727
 Alpha  occ. eigenvalues --  -10.21172 -10.21108 -10.19909 -10.19618 -10.19537
 Alpha  occ. eigenvalues --  -10.19461 -10.19396 -10.16384 -10.16351 -10.16186
 Alpha  occ. eigenvalues --  -10.16124  -6.55108  -6.51532  -4.71333  -4.71224
 Alpha  occ. eigenvalues --   -4.70750  -4.67645  -4.67616  -4.67221  -0.98295
 Alpha  occ. eigenvalues --   -0.93906  -0.89187  -0.88831  -0.88574  -0.79567
 Alpha  occ. eigenvalues --   -0.75980  -0.75809  -0.72665  -0.70406  -0.69951
 Alpha  occ. eigenvalues --   -0.69324  -0.68820  -0.64470  -0.63217  -0.61161
 Alpha  occ. eigenvalues --   -0.60700  -0.59298  -0.56748  -0.55054  -0.53072
 Alpha  occ. eigenvalues --   -0.50053  -0.49135  -0.48698  -0.48409  -0.47991
 Alpha  occ. eigenvalues --   -0.46948  -0.46749  -0.46133  -0.44658  -0.43926
 Alpha  occ. eigenvalues --   -0.43494  -0.42527  -0.41142  -0.39925  -0.39476
 Alpha  occ. eigenvalues --   -0.39326  -0.38913  -0.38765  -0.38655  -0.37948
 Alpha  occ. eigenvalues --   -0.37891  -0.37078  -0.36956  -0.36597  -0.35929
 Alpha  occ. eigenvalues --   -0.35898  -0.35204  -0.34674  -0.34499  -0.34369
 Alpha  occ. eigenvalues --   -0.33636  -0.33468  -0.32493  -0.26516  -0.23634
 Alpha  occ. eigenvalues --   -0.21792  -0.20399  -0.19781  -0.18654
 Alpha virt. eigenvalues --    0.00797   0.02199   0.02850   0.03530   0.04446
 Alpha virt. eigenvalues --    0.04861   0.05369   0.05821   0.06239   0.06411
 Alpha virt. eigenvalues --    0.06663   0.07102   0.07180   0.07656   0.08506

 Mulliken charges:
               1
     1  P    0.043374
     2  N   -0.131359
     3  C   -0.128932
     4  H    0.084654
     5  C   -0.234558
     6  H    0.113901
     7  H    0.112030
     8  N   -0.109412
     9  N   -0.123989
    10  C   -0.225177
    11  H    0.124032
    12  H    0.109575
    13  C   -0.153036
    14  H    0.119483
    15  H    0.114456
    16  C   -0.136651
    17  H    0.117516
    18  H    0.113494
    19  C   -0.143860
    20  H    0.132456
    21  H    0.113954
    22  C   -0.126914
    23  C   -0.115122
    24  H    0.079789
    25  H    0.092807
    26  H    0.097086
    27  H    0.090017
    28  P    0.202467
    29  N   -0.180580
    30  N   -0.209402
    31  C    0.091498
    32  H    0.054476
    33  C   -0.402011
    34  H    0.101837
    35  H    0.112676
    36  H    0.149845
    37  C   -0.350243
    38  H    0.120334
    39  H    0.110258
    40  H    0.113182
    41  C    0.004711
    42  H    0.059097
    43  C   -0.360262
    44  H    0.120729
    45  H    0.107807
    46  H    0.113595
    47  C   -0.328028
    48  H    0.127827
    49  H    0.105241
    50  H    0.105334
 Sum of Mulliken charges =  -0.00000

 Dipole moment (field-independent basis, Debye):
    X=              0.8959    Y=             -0.0396    Z=              1.5907  Tot=              1.8261
 Quadrupole moment (field-independent basis, Debye-Ang):
   XX=           -143.3807   YY=           -139.5068   ZZ=           -150.7311
   XY=              0.1084   XZ=              3.4099   YZ=             -1.1527

 Summary of Natural Population Analysis:

                                       Natural Population
                Natural  -----------------------------------------------
    Atom  No    Charge         Core      Valence    Rydberg      Total
 -----------------------------------------------------------------------
      P    1    0.65053      9.99873     4.32168    0.02906    14.34947
      N    2   -0.46458      1.99953     5.43252    0.03253     7.46458
      C    3   -0.66928      1.99936     4.62581    0.04412     6.66928
      H    4    0.22245      0.00000     0.77401    0.00354     0.77755
      C    5   -0.48035      1.99939     4.45595    0.02501     6.48035
      H    6    0.20605      0.00000     0.79191    0.00204     0.79395
      H    7    0.20490      0.00000     0.79318    0.00192     0.79510
      N    8   -0.45147      1.99958     5.42396    0.02793     7.45147
      N    9   -0.45039      1.99958     5.42224    0.02858     7.45039
      C   10   -0.49304      1.99938     4.46818    0.02547     6.49304
      H   11    0.21467      0.00000     0.78353    0.00179     0.78533
      H   12    0.20909      0.00000     0.78898    0.00194     0.79091
      C   13   -0.06373      1.99934     4.04365    0.02074     6.06373
      H   14    0.18367      0.00000     0.81375    0.00257     0.81633
      H   15    0.18994      0.00000     0.80761    0.00245     0.81006
      C   16   -0.06305      1.99935     4.04303    0.02067     6.06305
      H   17    0.18499      0.00000     0.81190    0.00311     0.81501
      H   18    0.18830      0.00000     0.80928    0.00242     0.81170
      C   19   -0.07129      1.99933     4.05175    0.02021     6.07129
      H   20    0.20415      0.00000     0.79308    0.00277     0.79585
      H   21    0.18801      0.00000     0.80978    0.00221     0.81199
      C   22   -0.21371      1.99936     4.19639    0.01796     6.21371
      C   23   -0.24002      1.99936     4.22155    0.01912     6.24002
      H   24    0.17108      0.00000     0.82604    0.00288     0.82892
      H   25    0.19485      0.00000     0.80317    0.00198     0.80515
      H   26    0.20090      0.00000     0.79729    0.00181     0.79910
      H   27    0.17503      0.00000     0.82115    0.00382     0.82497
      P   28    1.18571      9.99818     3.76573    0.05037    13.81429
      N   29   -0.71794      1.99954     5.68158    0.03682     7.71794
      N   30   -0.74416      1.99951     5.70995    0.03470     7.74416
      C   31   -0.02637      1.99939     4.00765    0.01934     6.02637
      H   32    0.16449      0.00000     0.83094    0.00457     0.83551
      C   33   -0.60235      1.99942     4.58970    0.01322     6.60235
      H   34    0.19526      0.00000     0.80286    0.00188     0.80474
      H   35    0.20951      0.00000     0.78946    0.00102     0.79049
      H   36    0.22115      0.00000     0.77748    0.00137     0.77885
      C   37   -0.59841      1.99943     4.58643    0.01255     6.59841
      H   38    0.20518      0.00000     0.79383    0.00099     0.79482
      H   39    0.20849      0.00000     0.79045    0.00106     0.79151
      H   40    0.20195      0.00000     0.79654    0.00152     0.79805
      C   41   -0.03411      1.99939     4.01664    0.01808     6.03411
      H   42    0.15666      0.00000     0.83839    0.00496     0.84334
      C   43   -0.59657      1.99942     4.58461    0.01254     6.59657
      H   44    0.20340      0.00000     0.79564    0.00096     0.79660
      H   45    0.20807      0.00000     0.79088    0.00105     0.79193
      H   46    0.20561      0.00000     0.79272    0.00167     0.79439
      C   47   -0.59865      1.99942     4.58690    0.01233     6.59865
      H   48    0.21320      0.00000     0.78557    0.00123     0.78680
      H   49    0.20822      0.00000     0.79023    0.00155     0.79178
      H   50    0.20396      0.00000     0.79503    0.00101     0.79604
 =======================================================================
   * Total *   -0.00000     57.98599   119.43059    0.58342   178.00000

 Normal termination of Gaussian 16 at Fri Jan 24 20:26:56 2025.
