 Gaussian 16, Revision B.01,
 Gaussian 16:  ES64L-G16RevB.01 20-Dec-2017

 --------------------------------------------
 # nmr=giao b3lyp/def2TZVP pop=nbo scfcyc=200
 --------------------------------------------

 --------------
 MS-72 SPE NoRh
 --------------
 Symbolic Z-matrix:
 Charge =  0 Multiplicity = 1

                         Standard orientation:
 ---------------------------------------------------------------------
 Center     Atomic      Atomic             Coordinates (Angstroms)
 Number     Number       Type             X           Y           Z
 ---------------------------------------------------------------------
      1         15           0       -1.258918    0.171721   -1.581064
      2          7           0       -0.914758   -0.672418    1.082659
      3          6           0       -0.266004   -0.657508   -0.224238
      4          1           0       -0.184391   -1.700336   -0.550726
      5         15           0        1.451559   -0.042539   -0.742551
      6          6           0       -2.806248   -0.922239   -1.332563
      7          1           0       -3.646134   -0.537846   -1.912407
      8          1           0       -2.580257   -1.927230   -1.691384
      9          7           0       -3.161163   -0.956936    0.083241
     10          7           0       -2.394529    1.278475    0.704409
     11          6           0       -1.891595    1.670760   -0.606863
     12          1           0       -1.090627    2.402572   -0.502335
     13          1           0       -2.688833    2.148227   -1.179621
     14          6           0       -2.128219   -1.523732    0.962438
     15          1           0       -1.840200   -2.511369    0.600709
     16          1           0       -2.561304   -1.636770    1.956828
     17          6           0       -3.538402    0.366440    0.598832
     18          1           0       -4.299166    0.807812   -0.046167
     19          1           0       -3.969101    0.235313    1.592917
     20          6           0       -1.357273    0.661992    1.544469
     21          1           0       -0.504763    1.333256    1.610535
     22          1           0       -1.764157    0.540646    2.548155
     23          6           0        2.629117   -1.469448   -0.362977
     24          1           0        2.312058   -2.200481   -1.114396
     25          6           0        4.096829   -1.116708   -0.641341
     26          1           0        4.246533   -0.662016   -1.621005
     27          1           0        4.496219   -0.437365    0.111721
     28          1           0        4.699300   -2.027397   -0.607535
     29          6           0        2.453969   -2.113557    1.018966
     30          1           0        1.411851   -2.331458    1.253448
     31          1           0        3.006322   -3.055749    1.043678
     32          1           0        2.847845   -1.483257    1.814623
     33          6           0        1.925010    1.508677    0.225300
     34          1           0        0.997178    2.087000    0.203479
     35          6           0        2.982214    2.337646   -0.516352
     36          1           0        2.656147    2.602465   -1.521785
     37          1           0        3.159620    3.266460    0.031821
     38          1           0        3.937916    1.817831   -0.589094
     39          6           0        2.315276    1.273789    1.689353
     40          1           0        1.602028    0.648054    2.226240
     41          1           0        3.297868    0.807676    1.769963
     42          1           0        2.373537    2.235705    2.204270
 ---------------------------------------------------------------------

 SCF Done:  E(RB3LYP) =  -1319.51463689     A.U. after   13 cycles

      1  P    Isotropic =   351.0544   Anisotropy =    58.0578

      2  N    Isotropic =   197.4519   Anisotropy =    49.9603

      3  C    Isotropic =   113.1319   Anisotropy =    28.5813

      4  H    Isotropic =    28.1363   Anisotropy =     4.1050

      5  P    Isotropic =   198.6955   Anisotropy =   110.6025

      6  C    Isotropic =   118.3954   Anisotropy =    34.5683

      7  H    Isotropic =    27.9523   Anisotropy =     5.9412

      8  H    Isotropic =    27.9658   Anisotropy =     6.0087

      9  N    Isotropic =   205.1353   Anisotropy =    53.6245

     10  N    Isotropic =   212.6369   Anisotropy =    57.8263

     11  C    Isotropic =   126.7460   Anisotropy =    43.6511

     12  H    Isotropic =    27.7271   Anisotropy =     3.9480

     13  H    Isotropic =    28.0830   Anisotropy =     6.0684

     14  C    Isotropic =    98.2457   Anisotropy =    32.9844

     15  H    Isotropic =    27.4096   Anisotropy =     4.9194

     16  H    Isotropic =    27.2222   Anisotropy =     6.2110

     17  C    Isotropic =   102.4637   Anisotropy =    26.5335

     18  H    Isotropic =    27.4528   Anisotropy =     6.0140

     19  H    Isotropic =    27.3441   Anisotropy =     6.9371

     20  C    Isotropic =   108.1145   Anisotropy =    27.4897

     21  H    Isotropic =    27.2432   Anisotropy =     5.3460

     22  H    Isotropic =    27.5359   Anisotropy =     5.6942

     23  C    Isotropic =   140.6443   Anisotropy =    22.6268

     24  H    Isotropic =    29.6787   Anisotropy =     6.0276

     25  C    Isotropic =   162.6463   Anisotropy =    27.8938

     26  H    Isotropic =    30.4266   Anisotropy =     7.9183

     27  H    Isotropic =    31.0153   Anisotropy =     5.4631

     28  H    Isotropic =    30.7943   Anisotropy =    10.3064

     29  C    Isotropic =   160.4132   Anisotropy =    29.3419

     30  H    Isotropic =    30.1208   Anisotropy =     6.6331

     31  H    Isotropic =    30.7655   Anisotropy =    10.5855

     32  H    Isotropic =    30.6249   Anisotropy =     4.2661

     33  C    Isotropic =   146.2129   Anisotropy =    14.8470

     34  H    Isotropic =    29.1952   Anisotropy =     7.4708

     35  C    Isotropic =   158.5852   Anisotropy =    35.5987

     36  H    Isotropic =    30.2704   Anisotropy =     8.5193

     37  H    Isotropic =    30.7331   Anisotropy =     9.8793

     38  H    Isotropic =    30.7559   Anisotropy =     6.2065

     39  C    Isotropic =   158.6188   Anisotropy =    26.9995

     40  H    Isotropic =    30.1198   Anisotropy =     4.9511

     41  H    Isotropic =    30.5669   Anisotropy =     5.0808

     42  H    Isotropic =    30.5061   Anisotropy =    10.2037

 The electronic state is 1-A.
 Alpha  occ. eigenvalues --  -77.03767 -77.03214 -14.31890 -14.31278 -14.31162
 Alpha  occ. eigenvalues --  -10.22608 -10.22484 -10.22358 -10.20849 -10.20065
 Alpha  occ. eigenvalues --  -10.19683 -10.18686 -10.18220 -10.16550 -10.16399
 Alpha  occ. eigenvalues --  -10.16392 -10.15769  -6.52340  -6.51875  -4.68510
 Alpha  occ. eigenvalues --   -4.68438  -4.67995  -4.67967  -4.67955  -4.67553
 Alpha  occ. eigenvalues --   -0.98791  -0.89732  -0.89328  -0.80435  -0.78380
 Alpha  occ. eigenvalues --   -0.76034  -0.71138  -0.70727  -0.69198  -0.68549
 Alpha  occ. eigenvalues --   -0.65854  -0.63805  -0.61330  -0.59758  -0.58817
 Alpha  occ. eigenvalues --   -0.55345  -0.52756  -0.49240  -0.49192  -0.48540
 Alpha  occ. eigenvalues --   -0.47718  -0.45741  -0.44815  -0.44581  -0.43772
 Alpha  occ. eigenvalues --   -0.43472  -0.41428  -0.40736  -0.40455  -0.39679
 Alpha  occ. eigenvalues --   -0.39445  -0.38996  -0.38468  -0.38112  -0.37505
 Alpha  occ. eigenvalues --   -0.37446  -0.36004  -0.35405  -0.35182  -0.34920
 Alpha  occ. eigenvalues --   -0.34773  -0.34566  -0.34039  -0.31109  -0.29113
 Alpha  occ. eigenvalues --   -0.22021  -0.21283  -0.20445  -0.18855
 Alpha virt. eigenvalues --    0.01483   0.01955   0.02627   0.03504   0.04390
 Alpha virt. eigenvalues --    0.04778   0.05765   0.06348   0.06641   0.06842
 Alpha virt. eigenvalues --    0.07176   0.07445   0.07801   0.08555   0.08981

 Mulliken charges:
               1
     1  P    0.077956
     2  N   -0.125529
     3  C   -0.137098
     4  H    0.090679
     5  P    0.105297
     6  C   -0.238304
     7  H    0.114343
     8  H    0.112745
     9  N   -0.107348
    10  N   -0.114819
    11  C   -0.251382
    12  H    0.127995
    13  H    0.115264
    14  C   -0.146061
    15  H    0.122046
    16  H    0.117025
    17  C   -0.140348
    18  H    0.120643
    19  H    0.116160
    20  C   -0.185326
    21  H    0.146198
    22  H    0.119132
    23  C   -0.070846
    24  H    0.077428
    25  C   -0.368736
    26  H    0.127951
    27  H    0.103857
    28  H    0.113766
    29  C   -0.325314
    30  H    0.126195
    31  H    0.097147
    32  H    0.103861
    33  C   -0.058745
    34  H    0.052894
    35  C   -0.344529
    36  H    0.123281
    37  H    0.106372
    38  H    0.113688
    39  C   -0.379022
    40  H    0.145063
    41  H    0.107054
    42  H    0.109368
 Sum of Mulliken charges =  -0.00000

 Dipole moment (field-independent basis, Debye):
    X=              0.0977    Y=             -0.1948    Z=              1.3385  Tot=              1.3562
 Quadrupole moment (field-independent basis, Debye-Ang):
   XX=           -119.8453   YY=           -119.8849   ZZ=           -128.7154
   XY=             -0.6842   XZ=              1.5086   YZ=              1.3656

 Summary of Natural Population Analysis:

                                       Natural Population
                Natural  -----------------------------------------------
    Atom  No    Charge         Core      Valence    Rydberg      Total
 -----------------------------------------------------------------------
      P    1    0.67626      9.99873     4.29493    0.03008    14.32374
      N    2   -0.47173      1.99953     5.44006    0.03214     7.47173
      C    3   -0.61480      1.99936     4.57789    0.03755     6.61480
      H    4    0.22566      0.00000     0.77116    0.00318     0.77434
      P    5    0.78449      9.99845     4.18487    0.03219    14.21551
      C    6   -0.48770      1.99939     4.46281    0.02549     6.48770
      H    7    0.20660      0.00000     0.79138    0.00202     0.79340
      H    8    0.20573      0.00000     0.79238    0.00189     0.79427
      N    9   -0.45056      1.99958     5.42302    0.02797     7.45056
      N   10   -0.45030      1.99958     5.42196    0.02876     7.45030
      C   11   -0.49488      1.99939     4.46972    0.02578     6.49488
      H   12    0.20720      0.00000     0.79099    0.00181     0.79280
      H   13    0.21224      0.00000     0.78581    0.00195     0.78776
      C   14   -0.06367      1.99934     4.04332    0.02102     6.06367
      H   15    0.18564      0.00000     0.81181    0.00256     0.81436
      H   16    0.19147      0.00000     0.80614    0.00239     0.80853
      C   17   -0.06330      1.99935     4.04331    0.02064     6.06330
      H   18    0.18626      0.00000     0.81065    0.00309     0.81374
      H   19    0.18928      0.00000     0.80835    0.00237     0.81072
      C   20   -0.06933      1.99932     4.04937    0.02063     6.06933
      H   21    0.19283      0.00000     0.80495    0.00222     0.80717
      H   22    0.19220      0.00000     0.80555    0.00225     0.80780
      C   23   -0.47392      1.99943     4.45006    0.02443     6.47392
      H   24    0.21245      0.00000     0.78597    0.00158     0.78755
      C   25   -0.59577      1.99942     4.58460    0.01174     6.59577
      H   26    0.21192      0.00000     0.78665    0.00143     0.78808
      H   27    0.19481      0.00000     0.80334    0.00185     0.80519
      H   28    0.20501      0.00000     0.79329    0.00170     0.79499
      C   29   -0.60053      1.99942     4.58868    0.01242     6.60053
      H   30    0.21183      0.00000     0.78646    0.00171     0.78817
      H   31    0.19500      0.00000     0.80312    0.00188     0.80500
      H   32    0.19934      0.00000     0.79917    0.00150     0.80066
      C   33   -0.48208      1.99943     4.45961    0.02305     6.48208
      H   34    0.20584      0.00000     0.79154    0.00262     0.79416
      C   35   -0.59257      1.99942     4.58152    0.01163     6.59257
      H   36    0.21504      0.00000     0.78366    0.00130     0.78496
      H   37    0.20092      0.00000     0.79744    0.00164     0.79908
      H   38    0.20041      0.00000     0.79820    0.00139     0.79959
      C   39   -0.60572      1.99942     4.59411    0.01219     6.60572
      H   40    0.21158      0.00000     0.78693    0.00148     0.78842
      H   41    0.19858      0.00000     0.79970    0.00172     0.80142
      H   42    0.19826      0.00000     0.79989    0.00185     0.80174
 =======================================================================
   * Total *    0.00000     49.98857    97.56437    0.44706   148.00000

 Normal termination of Gaussian 16 at Fri Jan 24 20:06:25 2025.
