 Gaussian 16, Revision B.01,
 Gaussian 16:  ES64L-G16RevB.01 20-Dec-2017

 --------------------------------------------
 # nmr=giao b3lyp/def2TZVP pop=nbo scfcyc=200
 --------------------------------------------

 --------------
 MS-71 SPE NoRh
 --------------
 Symbolic Z-matrix:
 Charge =  0 Multiplicity = 1

                         Standard orientation:
 ---------------------------------------------------------------------
 Center     Atomic      Atomic             Coordinates (Angstroms)
 Number     Number       Type             X           Y           Z
 ---------------------------------------------------------------------
      1         15           0        1.375349    0.035013   -0.750418
      2         15           0       -1.410958   -0.029739   -0.732513
      3          6           0        2.175063    1.606282   -0.146103
      4          1           0        2.888394    1.857784   -0.934663
      5          1           0        2.764300    1.380004    0.744392
      6          6           0       -2.245534    1.443133    0.056490
      7          1           0       -1.486395    1.952634    0.647879
      8          1           0       -2.983525    1.055567    0.762106
      9          6           0        0.003969   -0.565167    0.426196
     10          1           0        0.049968   -1.664648    0.292904
     11          6           0       -2.736243   -1.342371   -0.720599
     12          1           0       -3.171058   -1.385089    0.280639
     13          1           0       -3.517428   -0.956989   -1.383418
     14          6           0        2.736883   -1.241057   -0.634255
     15          1           0        2.330996   -2.151137   -1.081553
     16          1           0        2.909496   -1.454575    0.421864
     17          6           0       -1.174637   -0.747407    2.533857
     18          1           0       -1.155261   -0.409374    3.569834
     19          1           0       -2.107580   -0.399560    2.096737
     20          1           0       -1.175157   -1.849225    2.531549
     21          6           0        1.205958   -0.545521    2.541431
     22          1           0        1.388230   -1.631640    2.549979
     23          1           0        2.071556   -0.050820    2.108449
     24          1           0        1.123205   -0.208200    3.575159
     25          7           0       -0.021202   -0.183033    1.826822
     26          6           0        4.051916   -0.847963   -1.313631
     27          1           0        4.748371   -1.687195   -1.275444
     28          1           0        3.917961   -0.582882   -2.363941
     29          1           0        4.531857   -0.005770   -0.815096
     30          6           0        1.242362    2.787973    0.110699
     31          1           0        0.623246    3.006941   -0.761717
     32          1           0        0.594286    2.601203    0.965633
     33          1           0        1.831347    3.679561    0.330962
     34          6           0       -2.914618    2.411545   -0.918748
     35          1           0       -3.405397    3.211612   -0.362764
     36          1           0       -2.186797    2.871203   -1.588235
     37          1           0       -3.680426    1.924408   -1.526552
     38          6           0       -2.289861   -2.730314   -1.177206
     39          1           0       -3.152180   -3.397885   -1.233131
     40          1           0       -1.822087   -2.700752   -2.161873
     41          1           0       -1.578920   -3.177854   -0.482260
 ---------------------------------------------------------------------

 SCF Done:  E(RB3LYP) =  -1173.08673477     A.U. after   14 cycles

      1  P    Isotropic =   243.6129   Anisotropy =   167.4258

      2  P    Isotropic =   237.8231   Anisotropy =   143.6193

      3  C    Isotropic =   158.8138   Anisotropy =    10.9580

      4  H    Isotropic =    30.5390   Anisotropy =     8.5916

      5  H    Isotropic =    29.9834   Anisotropy =     5.1057

      6  C    Isotropic =   163.9898   Anisotropy =    10.1066

      7  H    Isotropic =    29.6498   Anisotropy =     7.2205

      8  H    Isotropic =    30.6890   Anisotropy =     5.6913

      9  C    Isotropic =   114.9731   Anisotropy =    48.3887

     10  H    Isotropic =    29.4191   Anisotropy =     4.1249

     11  C    Isotropic =   154.2075   Anisotropy =    21.1039

     12  H    Isotropic =    30.2308   Anisotropy =     4.9407

     13  H    Isotropic =    30.6610   Anisotropy =     8.1698

     14  C    Isotropic =   157.2226   Anisotropy =    20.5110

     15  H    Isotropic =    30.3838   Anisotropy =     6.5421

     16  H    Isotropic =    29.9932   Anisotropy =     5.4208

     17  C    Isotropic =   133.9883   Anisotropy =    71.4865

     18  H    Isotropic =    29.7231   Anisotropy =    10.1331

     19  H    Isotropic =    29.4914   Anisotropy =     5.2663

     20  H    Isotropic =    30.2485   Anisotropy =     7.2898

     21  C    Isotropic =   134.0392   Anisotropy =    66.9727

     22  H    Isotropic =    30.0792   Anisotropy =     7.5218

     23  H    Isotropic =    29.2744   Anisotropy =     5.8271

     24  H    Isotropic =    29.5848   Anisotropy =     9.7707

     25  N    Isotropic =   202.7840   Anisotropy =    45.3819

     26  C    Isotropic =   173.8503   Anisotropy =    18.6194

     27  H    Isotropic =    30.8112   Anisotropy =    11.5823

     28  H    Isotropic =    31.1058   Anisotropy =     8.9360

     29  H    Isotropic =    31.3195   Anisotropy =     7.6289

     30  C    Isotropic =   171.1369   Anisotropy =    16.2880

     31  H    Isotropic =    30.5881   Anisotropy =     7.2117

     32  H    Isotropic =    30.4264   Anisotropy =     5.9228

     33  H    Isotropic =    30.5340   Anisotropy =    11.1247

     34  C    Isotropic =   170.1168   Anisotropy =    23.0145

     35  H    Isotropic =    30.7136   Anisotropy =    11.2297

     36  H    Isotropic =    30.8557   Anisotropy =     8.1036

     37  H    Isotropic =    31.0973   Anisotropy =     9.1396

     38  C    Isotropic =   172.1968   Anisotropy =    18.4200

     39  H    Isotropic =    30.5423   Anisotropy =    11.3432

     40  H    Isotropic =    30.7936   Anisotropy =     8.3125

     41  H    Isotropic =    30.8707   Anisotropy =     6.0751

 The electronic state is 1-A.
 Alpha  occ. eigenvalues --  -77.03096 -77.03050 -14.32042 -10.20800 -10.19146
 Alpha  occ. eigenvalues --  -10.19108 -10.17098 -10.16892 -10.16826 -10.16733
 Alpha  occ. eigenvalues --  -10.16399 -10.16355 -10.16111 -10.16019  -6.51687
 Alpha  occ. eigenvalues --   -6.51648  -4.67854  -4.67814  -4.67784  -4.67738
 Alpha  occ. eigenvalues --   -4.67298  -4.67273  -0.92653  -0.78123  -0.77408
 Alpha  occ. eigenvalues --   -0.75446  -0.75268  -0.71942  -0.71016  -0.65012
 Alpha  occ. eigenvalues --   -0.64881  -0.61768  -0.61088  -0.60100  -0.52393
 Alpha  occ. eigenvalues --   -0.52092  -0.48513  -0.46040  -0.45949  -0.45002
 Alpha  occ. eigenvalues --   -0.44778  -0.44426  -0.43998  -0.43282  -0.42870
 Alpha  occ. eigenvalues --   -0.40957  -0.40378  -0.39667  -0.39446  -0.38276
 Alpha  occ. eigenvalues --   -0.37779  -0.37667  -0.37470  -0.36507  -0.35932
 Alpha  occ. eigenvalues --   -0.35408  -0.35242  -0.35165  -0.33972  -0.30591
 Alpha  occ. eigenvalues --   -0.30478  -0.28533  -0.23693  -0.21406  -0.17182
 Alpha virt. eigenvalues --    0.00959   0.02393   0.03311   0.03590   0.05100
 Alpha virt. eigenvalues --    0.05312   0.05872   0.06254   0.07174   0.07286
 Alpha virt. eigenvalues --    0.07902   0.08305   0.09086   0.09490   0.09903

 Mulliken charges:
               1
     1  P    0.135346
     2  P    0.131876
     3  C   -0.242708
     4  H    0.114478
     5  H    0.091050
     6  C   -0.241648
     7  H    0.123385
     8  H    0.083576
     9  C   -0.106457
    10  H    0.070968
    11  C   -0.223295
    12  H    0.087571
    13  H    0.106079
    14  C   -0.243787
    15  H    0.104589
    16  H    0.098286
    17  C   -0.259836
    18  H    0.114624
    19  H    0.113218
    20  H    0.089764
    21  C   -0.275817
    22  H    0.091605
    23  H    0.116317
    24  H    0.117583
    25  N   -0.176325
    26  C   -0.348264
    27  H    0.114790
    28  H    0.114698
    29  H    0.112879
    30  C   -0.358806
    31  H    0.120013
    32  H    0.123961
    33  H    0.112124
    34  C   -0.320273
    35  H    0.108083
    36  H    0.111202
    37  H    0.103290
    38  C   -0.345205
    39  H    0.111369
    40  H    0.118525
    41  H    0.101171
 Sum of Mulliken charges =  -0.00000

 Dipole moment (field-independent basis, Debye):
    X=              0.1360    Y=             -0.6122    Z=              2.0986  Tot=              2.1903
 Quadrupole moment (field-independent basis, Debye-Ang):
   XX=           -103.2800   YY=           -106.3646   ZZ=           -111.0147
   XY=              0.8589   XZ=              0.1483   YZ=             -0.0649

 Summary of Natural Population Analysis:

                                       Natural Population
                Natural  -----------------------------------------------
    Atom  No    Charge         Core      Valence    Rydberg      Total
 -----------------------------------------------------------------------
      P    1    0.78093      9.99863     4.18441    0.03603    14.21907
      P    2    0.78055      9.99861     4.18535    0.03549    14.21945
      C    3   -0.68495      1.99943     4.66277    0.02275     6.68495
      H    4    0.22341      0.00000     0.77521    0.00138     0.77659
      H    5    0.19069      0.00000     0.80531    0.00400     0.80931
      C    6   -0.68842      1.99943     4.66781    0.02117     6.68842
      H    7    0.22755      0.00000     0.77012    0.00233     0.77245
      H    8    0.19548      0.00000     0.80085    0.00367     0.80452
      C    9   -0.59316      1.99938     4.55713    0.03665     6.59316
      H   10    0.19544      0.00000     0.79924    0.00532     0.80456
      C   11   -0.68285      1.99944     4.66228    0.02112     6.68285
      H   12    0.19094      0.00000     0.80541    0.00365     0.80906
      H   13    0.21985      0.00000     0.77868    0.00147     0.78015
      C   14   -0.67948      1.99944     4.65905    0.02099     6.67948
      H   15    0.21639      0.00000     0.78228    0.00134     0.78361
      H   16    0.19474      0.00000     0.80182    0.00344     0.80526
      C   17   -0.39881      1.99936     4.38786    0.01158     6.39881
      H   18    0.19560      0.00000     0.80268    0.00172     0.80440
      H   19    0.19662      0.00000     0.80114    0.00224     0.80338
      H   20    0.15637      0.00000     0.83913    0.00451     0.84363
      C   21   -0.39846      1.99936     4.38745    0.01166     6.39846
      H   22    0.15647      0.00000     0.83896    0.00457     0.84353
      H   23    0.19571      0.00000     0.80212    0.00216     0.80429
      H   24    0.19560      0.00000     0.80267    0.00172     0.80440
      N   25   -0.44915      1.99952     5.41880    0.03082     7.44915
      C   26   -0.59392      1.99946     4.58573    0.00872     6.59392
      H   27    0.20601      0.00000     0.79251    0.00148     0.79399
      H   28    0.20356      0.00000     0.79436    0.00208     0.79644
      H   29    0.19785      0.00000     0.80061    0.00155     0.80215
      C   30   -0.59559      1.99946     4.58442    0.01170     6.59559
      H   31    0.20424      0.00000     0.79403    0.00174     0.79576
      H   32    0.20764      0.00000     0.79060    0.00177     0.79236
      H   33    0.20390      0.00000     0.79480    0.00130     0.79610
      C   34   -0.58743      1.99946     4.57902    0.00894     6.58743
      H   35    0.20159      0.00000     0.79681    0.00161     0.79841
      H   36    0.20461      0.00000     0.79351    0.00189     0.79539
      H   37    0.19751      0.00000     0.80084    0.00165     0.80249
      C   38   -0.59367      1.99946     4.58548    0.00873     6.59367
      H   39    0.20564      0.00000     0.79287    0.00149     0.79436
      H   40    0.20646      0.00000     0.79159    0.00196     0.79354
      H   41    0.19458      0.00000     0.80374    0.00168     0.80542
 =======================================================================
   * Total *    0.00000     43.99047    85.65947    0.35007   130.00000

 Normal termination of Gaussian 16 at Fri Jan 24 19:57:50 2025.
