 Gaussian 16, Revision B.01,
 Gaussian 16:  ES64L-G16RevB.01 20-Dec-2017

 --------------------------------------------
 # nmr=giao b3lyp/def2TZVP pop=nbo scfcyc=200
 --------------------------------------------

 --------------
 MS-73 SPE NoRh
 --------------
 Symbolic Z-matrix:
 Charge =  0 Multiplicity = 1

                         Standard orientation:
 ---------------------------------------------------------------------
 Center     Atomic      Atomic             Coordinates (Angstroms)
 Number     Number       Type             X           Y           Z
 ---------------------------------------------------------------------
      1         15           0       -1.341435   -0.119078   -0.835632
      2         15           0        1.344419   -0.128812   -0.833200
      3          8           0       -2.030355    1.139177   -0.060513
      4          8           0       -2.498018   -1.255593   -1.001435
      5          8           0        2.022324    1.148517   -0.080635
      6          8           0        2.507488   -1.262685   -0.973827
      7          6           0       -0.000318   -0.664707    0.404917
      8          6           0       -2.737270    2.194781   -0.772825
      9          6           0       -3.131275    3.254084    0.231389
     10          6           0       -3.443041   -1.694008    0.021044
     11          6           0       -4.512428   -2.520715   -0.654193
     12          6           0        2.739325    2.179127   -0.820746
     13          6           0        3.114280    3.276457    0.148586
     14          6           0        3.445280   -1.686041    0.060620
     15          6           0        4.523890   -2.516683   -0.597732
     16          1           0       -0.001468   -1.773667    0.324742
     17          1           0       -3.616600    1.766859   -1.260610
     18          1           0       -2.073953    2.601122   -1.538668
     19          1           0       -3.656394    4.063654   -0.279549
     20          1           0       -2.250017    3.669066    0.722466
     21          1           0       -3.793815    2.844612    0.993282
     22          1           0       -3.867441   -0.815479    0.511082
     23          1           0       -2.898152   -2.279985    0.762003
     24          1           0       -5.225715   -2.874790    0.093314
     25          1           0       -5.057182   -1.931682   -1.393244
     26          1           0       -4.079117   -3.390544   -1.149880
     27          1           0        2.087541    2.554140   -1.613020
     28          1           0        3.626976    1.734609   -1.277543
     29          1           0        3.649121    4.066931   -0.382340
     30          1           0        2.225559    3.708085    0.608806
     31          1           0        3.764811    2.896349    0.937056
     32          1           0        2.898191   -2.266940    0.804352
     33          1           0        3.862640   -0.800790    0.544521
     34          1           0        5.231796   -2.858566    0.160080
     35          1           0        4.097432   -3.391961   -1.087528
     36          1           0        5.072200   -1.932688   -1.337600
     37          6           0       -1.203216   -0.535993    2.506892
     38          1           0       -1.311337   -1.626284    2.630154
     39          1           0       -1.142567   -0.091439    3.499817
     40          1           0       -2.090423   -0.136199    2.023662
     41          6           0        1.202039   -0.501364    2.508360
     42          1           0        1.339419   -1.588352    2.635760
     43          1           0        2.078139   -0.078001    2.025080
     44          1           0        1.127512   -0.055738    3.500183
     45          7           0       -0.005290   -0.165562    1.755644
 ---------------------------------------------------------------------

 SCF Done:  E(RB3LYP) =  -1474.16564766     A.U. after   14 cycles

      1  P    Isotropic =    92.7499   Anisotropy =   222.2332

      2  P    Isotropic =    92.5897   Anisotropy =   222.3735

      3  O    Isotropic =   218.0155   Anisotropy =    60.8042

      4  O    Isotropic =   213.2313   Anisotropy =    60.8029

      5  O    Isotropic =   218.5559   Anisotropy =    60.3030

      6  O    Isotropic =   212.5736   Anisotropy =    61.0161

      7  C    Isotropic =    94.5459   Anisotropy =    36.0916

      8  C    Isotropic =   111.6559   Anisotropy =    77.5607

      9  C    Isotropic =   165.1812   Anisotropy =    26.2126

     10  C    Isotropic =   119.1085   Anisotropy =    59.5931

     11  C    Isotropic =   165.4249   Anisotropy =    28.1270

     12  C    Isotropic =   111.4597   Anisotropy =    77.8277

     13  C    Isotropic =   165.1876   Anisotropy =    26.1920

     14  C    Isotropic =   118.8765   Anisotropy =    59.6363

     15  C    Isotropic =   165.4236   Anisotropy =    28.2078

     16  H    Isotropic =    29.3596   Anisotropy =     4.0956

     17  H    Isotropic =    27.9560   Anisotropy =     6.9456

     18  H    Isotropic =    28.1457   Anisotropy =     5.8016

     19  H    Isotropic =    30.8831   Anisotropy =    10.3303

     20  H    Isotropic =    30.4197   Anisotropy =     6.4255

     21  H    Isotropic =    30.5217   Anisotropy =     6.5706

     22  H    Isotropic =    27.8178   Anisotropy =     4.9623

     23  H    Isotropic =    28.3724   Anisotropy =     4.7392

     24  H    Isotropic =    30.9065   Anisotropy =     9.8032

     25  H    Isotropic =    30.6802   Anisotropy =     7.7038

     26  H    Isotropic =    30.5476   Anisotropy =     7.7710

     27  H    Isotropic =    28.1343   Anisotropy =     5.7764

     28  H    Isotropic =    27.9567   Anisotropy =     6.9237

     29  H    Isotropic =    30.8724   Anisotropy =    10.3308

     30  H    Isotropic =    30.4449   Anisotropy =     6.4737

     31  H    Isotropic =    30.4966   Anisotropy =     6.5711

     32  H    Isotropic =    28.3525   Anisotropy =     4.8038

     33  H    Isotropic =    27.8248   Anisotropy =     4.9326

     34  H    Isotropic =    30.9178   Anisotropy =     9.7997

     35  H    Isotropic =    30.5703   Anisotropy =     7.7534

     36  H    Isotropic =    30.6918   Anisotropy =     7.6849

     37  C    Isotropic =   133.2297   Anisotropy =    67.8468

     38  H    Isotropic =    30.0861   Anisotropy =     7.0883

     39  H    Isotropic =    29.6146   Anisotropy =     9.0104

     40  H    Isotropic =    28.8133   Anisotropy =     6.3136

     41  C    Isotropic =   133.1782   Anisotropy =    67.5894

     42  H    Isotropic =    30.0473   Anisotropy =     7.0633

     43  H    Isotropic =    28.7821   Anisotropy =     6.3022

     44  H    Isotropic =    29.6063   Anisotropy =     8.9963

     45  N    Isotropic =   215.9343   Anisotropy =    28.3774

 The electronic state is 1-A.
 Alpha  occ. eigenvalues --  -77.08840 -77.08838 -19.13145 -19.13137 -19.13120
 Alpha  occ. eigenvalues --  -19.13060 -14.31061 -10.22665 -10.22638 -10.22181
 Alpha  occ. eigenvalues --  -10.22170 -10.19843 -10.18198 -10.18193 -10.16596
 Alpha  occ. eigenvalues --  -10.16567 -10.16388 -10.16368  -6.56543  -6.56542
 Alpha  occ. eigenvalues --   -4.72837  -4.72836  -4.72662  -4.72659  -4.72117
 Alpha  occ. eigenvalues --   -4.72117  -1.03539  -1.03387  -1.00328  -1.00293
 Alpha  occ. eigenvalues --   -0.91884  -0.77273  -0.76757  -0.75672  -0.75668
 Alpha  occ. eigenvalues --   -0.71813  -0.70261  -0.63981  -0.63923  -0.62483
 Alpha  occ. eigenvalues --   -0.62365  -0.60747  -0.56673  -0.54755  -0.50976
 Alpha  occ. eigenvalues --   -0.50542  -0.49205  -0.48393  -0.47671  -0.47177
 Alpha  occ. eigenvalues --   -0.47129  -0.46704  -0.45769  -0.42975  -0.42550
 Alpha  occ. eigenvalues --   -0.41761  -0.41449  -0.41147  -0.40678  -0.39634
 Alpha  occ. eigenvalues --   -0.39293  -0.39059  -0.38934  -0.38450  -0.38434
 Alpha  occ. eigenvalues --   -0.37522  -0.37368  -0.37264  -0.37073  -0.34916
 Alpha  occ. eigenvalues --   -0.34771  -0.34329  -0.33559  -0.32737  -0.30326
 Alpha  occ. eigenvalues --   -0.29277  -0.29181  -0.28050  -0.24036  -0.20689
 Alpha  occ. eigenvalues --   -0.17957
 Alpha virt. eigenvalues --   -0.00469   0.02588   0.03027   0.03572   0.03703
 Alpha virt. eigenvalues --    0.05049   0.05547   0.06631   0.06938   0.07499
 Alpha virt. eigenvalues --    0.07667   0.07826   0.08023   0.08861   0.09105

 Mulliken charges:
               1
     1  P    0.390032
     2  P    0.390205
     3  O   -0.358262
     4  O   -0.345357
     5  O   -0.358941
     6  O   -0.345318
     7  C   -0.111504
     8  C   -0.024813
     9  C   -0.300737
    10  C   -0.055072
    11  C   -0.290096
    12  C   -0.026116
    13  C   -0.300793
    14  C   -0.053685
    15  C   -0.289887
    16  H    0.059771
    17  H    0.097887
    18  H    0.097982
    19  H    0.101658
    20  H    0.114990
    21  H    0.105977
    22  H    0.099643
    23  H    0.092542
    24  H    0.099570
    25  H    0.109029
    26  H    0.113015
    27  H    0.098800
    28  H    0.098640
    29  H    0.102006
    30  H    0.114845
    31  H    0.106154
    32  H    0.091654
    33  H    0.098950
    34  H    0.099419
    35  H    0.112996
    36  H    0.108834
    37  C   -0.278764
    38  H    0.077965
    39  H    0.109940
    40  H    0.138789
    41  C   -0.278843
    42  H    0.077356
    43  H    0.138844
    44  H    0.110229
    45  N   -0.139533
 Sum of Mulliken charges =  -0.00000

 Dipole moment (field-independent basis, Debye):
    X=              0.0020    Y=              0.8175    Z=              2.4318  Tot=              2.5655
 Quadrupole moment (field-independent basis, Debye-Ang):
   XX=           -110.7578   YY=           -119.1606   ZZ=           -133.7207
   XY=              0.1471   XZ=             -0.0031   YZ=             -7.0812

 Summary of Natural Population Analysis:

                                       Natural Population
                Natural  -----------------------------------------------
    Atom  No    Charge         Core      Valence    Rydberg      Total
 -----------------------------------------------------------------------
      P    1    1.33451      9.99857     3.57332    0.09361    13.66549
      P    2    1.33504      9.99857     3.57288    0.09352    13.66496
      O    3   -0.81092      1.99980     6.79492    0.01620     8.81092
      O    4   -0.79275      1.99982     6.77835    0.01459     8.79275
      O    5   -0.81050      1.99980     6.79445    0.01625     8.81050
      O    6   -0.79308      1.99982     6.77767    0.01558     8.79308
      C    7   -0.69191      1.99939     4.65628    0.03624     6.69191
      C    8   -0.05060      1.99931     4.03186    0.01943     6.05060
      C    9   -0.60525      1.99947     4.59396    0.01183     6.60525
      C   10   -0.07013      1.99930     4.05323    0.01759     6.07013
      C   11   -0.60535      1.99947     4.59405    0.01184     6.60535
      C   12   -0.05148      1.99931     4.03275    0.01943     6.05148
      C   13   -0.60545      1.99947     4.59415    0.01183     6.60545
      C   14   -0.06840      1.99931     4.05383    0.01527     6.06840
      C   15   -0.60529      1.99946     4.59437    0.01145     6.60529
      H   16    0.19487      0.00000     0.80035    0.00478     0.80513
      H   17    0.16552      0.00000     0.83230    0.00218     0.83448
      H   18    0.17142      0.00000     0.82581    0.00277     0.82858
      H   19    0.20629      0.00000     0.79277    0.00094     0.79371
      H   20    0.21047      0.00000     0.78818    0.00135     0.78953
      H   21    0.20502      0.00000     0.79370    0.00128     0.79498
      H   22    0.16754      0.00000     0.82991    0.00255     0.83246
      H   23    0.16548      0.00000     0.83198    0.00254     0.83452
      H   24    0.20467      0.00000     0.79439    0.00095     0.79533
      H   25    0.20712      0.00000     0.79165    0.00124     0.79288
      H   26    0.20905      0.00000     0.78971    0.00123     0.79095
      H   27    0.17204      0.00000     0.82523    0.00274     0.82796
      H   28    0.16584      0.00000     0.83199    0.00218     0.83416
      H   29    0.20657      0.00000     0.79249    0.00093     0.79343
      H   30    0.21039      0.00000     0.78827    0.00134     0.78961
      H   31    0.20515      0.00000     0.79357    0.00128     0.79485
      H   32    0.16483      0.00000     0.83209    0.00308     0.83517
      H   33    0.16669      0.00000     0.83026    0.00305     0.83331
      H   34    0.20437      0.00000     0.79474    0.00089     0.79563
      H   35    0.20884      0.00000     0.78996    0.00119     0.79116
      H   36    0.20673      0.00000     0.79207    0.00120     0.79327
      C   37   -0.39911      1.99936     4.38848    0.01127     6.39911
      H   38    0.14767      0.00000     0.84752    0.00480     0.85233
      H   39    0.19289      0.00000     0.80529    0.00182     0.80711
      H   40    0.20798      0.00000     0.78982    0.00219     0.79202
      C   41   -0.39915      1.99936     4.38855    0.01124     6.39915
      H   42    0.14759      0.00000     0.84764    0.00477     0.85241
      H   43    0.20838      0.00000     0.78940    0.00222     0.79162
      H   44    0.19281      0.00000     0.80538    0.00181     0.80719
      N   45   -0.42643      1.99951     5.39448    0.03244     7.42643
 =======================================================================
   * Total *    0.00000     51.98907   109.49401    0.51691   162.00000

 1\1\GINC-G2NODEC2\SP\RB3LYP\def2TZVP\C11H27N1O4P2\ROOT\24-Jan-2025\0\\
 # nmr=giao b3lyp/def2TZVP pop=nbo scfcyc=200\\MS-73 SPE NoRh\\0,1\P,0,
 -0.634,1.364,-0.133\P,0,-0.754,-1.319,-0.101\O,0,-1.414,2.107,1.091\O,
 0,-0.385,2.493,-1.282\O,0,-1.572,-1.942,1.164\O,0,-0.632,-2.506,-1.212
 \C,0,-1.916,0.069,-0.694\C,0,-0.702,2.8,2.156\C,0,-1.718,3.255,3.179\C
 ,0,-1.352,3.474,-1.765\C,0,-0.607,4.499,-2.588\C,0,-0.894,-2.673,2.227
 \C,0,-1.91,-2.987,3.301\C,0,-1.694,-3.405,-1.651\C,0,-1.06,-4.525,-2.4
 45\H,0,-1.804,0.048,-1.8\H,0,-0.164,3.65,1.729\H,0,0.022,2.111,2.595\H

 Normal termination of Gaussian 16 at Fri Jan 24 20:10:23 2025.
