 Gaussian 16, Revision B.01,
 Gaussian 16:  ES64L-G16RevB.01 20-Dec-2017

 --------------------------------------------
 # nmr=giao b3lyp/def2TZVP pop=nbo scfcyc=200
 --------------------------------------------

 --------------
 MS-83 SPE NoRh
 --------------
 Symbolic Z-matrix:
 Charge =  0 Multiplicity = 1

                         Standard orientation:
 ---------------------------------------------------------------------
 Center     Atomic      Atomic             Coordinates (Angstroms)
 Number     Number       Type             X           Y           Z
 ---------------------------------------------------------------------
      1         15           0       -1.337710   -0.342511   -0.842592
      2         15           0        1.348290   -0.352727   -0.840664
      3          6           0        0.003064   -0.878755    0.401581
      4          6           0       -2.750636    1.957120   -0.799411
      5          6           0       -3.183516    3.018001    0.193283
      6          6           0       -3.439075   -1.912800    0.018925
      7          6           0       -4.517094   -2.742320   -0.651397
      8          6           0        2.752546    1.948659   -0.844685
      9          6           0        3.147083    3.054071    0.114626
     10          6           0        3.453143   -1.900953    0.059756
     11          6           0        4.543175   -2.728118   -0.593317
     12          1           0        0.000909   -1.987161    0.328819
     13          1           0       -3.617108    1.509569   -1.295540
     14          1           0       -2.089083    2.378780   -1.561167
     15          1           0       -2.297543    3.402515    0.705256
     16          1           0       -3.815381    2.554902    0.956230
     17          1           0       -3.863403   -1.033769    0.508589
     18          1           0       -2.897807   -2.500975    0.763433
     19          1           0       -5.012169   -2.132384   -1.412445
     20          1           0       -4.045411   -3.581284   -1.170964
     21          1           0        2.102795    2.327154   -1.637927
     22          1           0        3.635000    1.493607   -1.302616
     23          1           0        2.244138    3.447361    0.588544
     24          1           0        3.764481    2.629072    0.910798
     25          1           0        2.912396   -2.486237    0.807299
     26          1           0        3.865925   -1.012683    0.541048
     27          1           0        4.084745   -3.577148   -1.107064
     28          1           0        5.039105   -2.122346   -1.357995
     29          6           0        3.908820    4.182922   -0.587882
     30          1           0        4.801682    3.775809   -1.073081
     31          1           0        3.287368    4.599594   -1.387955
     32          6           0        5.574612   -3.229473    0.423995
     33          1           0        5.069734   -3.828127    1.189190
     34          1           0        6.019064   -2.375773    0.944869
     35          6           0       -5.551848   -3.264685    0.351044
     36          1           0       -6.008503   -2.420291    0.878007
     37          1           0       -5.047722   -3.867091    1.114810
     38          6           0       -3.941729    4.166064   -0.482597
     39          1           0       -4.816783    3.767785   -1.006789
     40          1           0       -3.305907    4.622729   -1.249000
     41          7           0       -0.000587   -0.371541    1.749687
     42          6           0        1.204586   -0.705321    2.503524
     43          1           0        1.340223   -1.791824    2.637826
     44          1           0        2.082610   -0.288617    2.016908
     45          1           0        1.133178   -0.252403    3.492232
     46          6           0       -1.199705   -0.735066    2.501938
     47          1           0       -2.085877   -0.337599    2.015203
     48          1           0       -1.309095   -1.825164    2.632549
     49          1           0       -1.139130   -0.284543    3.492623
     50          8           0        2.027549    0.929469   -0.097348
     51          8           0        2.509068   -1.488999   -0.972901
     52          8           0       -2.027671    0.920994   -0.077425
     53          8           0       -2.491965   -1.480810   -1.002755
     54          6           0        6.681582   -4.063372   -0.222314
     55          1           0        7.230291   -3.482701   -0.967776
     56          1           0        7.399679   -4.407296    0.523498
     57          1           0        6.272889   -4.944430   -0.722481
     58          6           0        4.318461    5.301778    0.370354
     59          1           0        4.856340    6.092156   -0.155755
     60          1           0        3.444959    5.754834    0.846310
     61          1           0        4.970232    4.925653    1.162079
     62          6           0       -4.390513    5.239644    0.508750
     63          1           0       -4.925597    6.043711    0.001405
     64          1           0       -5.059014    4.823997    1.266690
     65          1           0       -3.537107    5.683525    1.026554
     66          6           0       -6.644925   -4.100483   -0.313548
     67          1           0       -7.365975   -4.460772    0.422641
     68          1           0       -7.193227   -3.516593   -1.056978
     69          1           0       -6.224518   -4.972889   -0.819172
 ---------------------------------------------------------------------

 SCF Done:  E(RB3LYP) =  -1788.78897925     A.U. after   14 cycles

      1  P    Isotropic =    93.5698   Anisotropy =   221.3199

      2  P    Isotropic =    93.2202   Anisotropy =   221.7274

      3  C    Isotropic =    94.5712   Anisotropy =    35.3784

      4  C    Isotropic =   106.6518   Anisotropy =    77.2891

      5  C    Isotropic =   144.4237   Anisotropy =    38.0530

      6  C    Isotropic =   113.8947   Anisotropy =    60.5801

      7  C    Isotropic =   144.1830   Anisotropy =    37.8132

      8  C    Isotropic =   106.3753   Anisotropy =    77.9574

      9  C    Isotropic =   144.4906   Anisotropy =    38.0371

     10  C    Isotropic =   113.7219   Anisotropy =    60.7098

     11  C    Isotropic =   144.1862   Anisotropy =    37.8697

     12  H    Isotropic =    29.3931   Anisotropy =     4.7568

     13  H    Isotropic =    28.0825   Anisotropy =     6.4626

     14  H    Isotropic =    28.2457   Anisotropy =     4.9957

     15  H    Isotropic =    30.1165   Anisotropy =     4.8648

     16  H    Isotropic =    30.1929   Anisotropy =     4.0667

     17  H    Isotropic =    27.9577   Anisotropy =     6.9058

     18  H    Isotropic =    28.4724   Anisotropy =     5.9730

     19  H    Isotropic =    30.3692   Anisotropy =     3.7785

     20  H    Isotropic =    30.2295   Anisotropy =     4.0753

     21  H    Isotropic =    28.2523   Anisotropy =     4.9682

     22  H    Isotropic =    28.0952   Anisotropy =     6.4948

     23  H    Isotropic =    30.1326   Anisotropy =     4.9316

     24  H    Isotropic =    30.1871   Anisotropy =     4.0404

     25  H    Isotropic =    28.4538   Anisotropy =     5.9947

     26  H    Isotropic =    27.9632   Anisotropy =     6.9073

     27  H    Isotropic =    30.2428   Anisotropy =     4.0644

     28  H    Isotropic =    30.3612   Anisotropy =     3.7874

     29  C    Isotropic =   159.1111   Anisotropy =    15.8357

     30  H    Isotropic =    30.6893   Anisotropy =     6.8736

     31  H    Isotropic =    30.6485   Anisotropy =     6.5483

     32  C    Isotropic =   158.7341   Anisotropy =    16.2842

     33  H    Isotropic =    30.6948   Anisotropy =     6.1005

     34  H    Isotropic =    30.7297   Anisotropy =     5.9346

     35  C    Isotropic =   158.7124   Anisotropy =    16.1537

     36  H    Isotropic =    30.7103   Anisotropy =     5.9468

     37  H    Isotropic =    30.6782   Anisotropy =     6.0995

     38  C    Isotropic =   159.0523   Anisotropy =    15.8781

     39  H    Isotropic =    30.6812   Anisotropy =     6.8484

     40  H    Isotropic =    30.6428   Anisotropy =     6.5560

     41  N    Isotropic =   216.0140   Anisotropy =    28.2555

     42  C    Isotropic =   133.2324   Anisotropy =    67.5121

     43  H    Isotropic =    30.0448   Anisotropy =     7.1591

     44  H    Isotropic =    28.7747   Anisotropy =     6.5165

     45  H    Isotropic =    29.6106   Anisotropy =     8.7539

     46  C    Isotropic =   133.1170   Anisotropy =    67.8840

     47  H    Isotropic =    28.8015   Anisotropy =     6.5275

     48  H    Isotropic =    30.0673   Anisotropy =     7.1302

     49  H    Isotropic =    29.6119   Anisotropy =     8.7561

     50  O    Isotropic =   221.7807   Anisotropy =    61.2349

     51  O    Isotropic =   215.8214   Anisotropy =    57.3876

     52  O    Isotropic =   221.5240   Anisotropy =    61.3784

     53  O    Isotropic =   216.8622   Anisotropy =    57.3672

     54  C    Isotropic =   166.8578   Anisotropy =    28.8787

     55  H    Isotropic =    31.0194   Anisotropy =     8.1685

     56  H    Isotropic =    30.7480   Anisotropy =    10.6007

     57  H    Isotropic =    31.0027   Anisotropy =     8.3460

     58  C    Isotropic =   166.8000   Anisotropy =    28.3196

     59  H    Isotropic =    30.7011   Anisotropy =    10.7612

     60  H    Isotropic =    30.9651   Anisotropy =     7.7818

     61  H    Isotropic =    31.0016   Anisotropy =     7.9604

     62  C    Isotropic =   166.8828   Anisotropy =    28.2678

     63  H    Isotropic =    30.7105   Anisotropy =    10.7620

     64  H    Isotropic =    30.9976   Anisotropy =     7.9728

     65  H    Isotropic =    30.9776   Anisotropy =     7.7818

     66  C    Isotropic =   166.8247   Anisotropy =    28.8366

     67  H    Isotropic =    30.7304   Anisotropy =    10.5954

     68  H    Isotropic =    31.0114   Anisotropy =     8.1780

     69  H    Isotropic =    30.9991   Anisotropy =     8.3478

 The electronic state is 1-A.
 Alpha  occ. eigenvalues --  -77.08695 -77.08691 -19.13035 -19.13005 -19.12990
 Alpha  occ. eigenvalues --  -19.12941 -14.30923 -10.22284 -10.22272 -10.21825
 Alpha  occ. eigenvalues --  -10.21799 -10.19679 -10.18067 -10.18059 -10.17224
 Alpha  occ. eigenvalues --  -10.17218 -10.17101 -10.17088 -10.16799 -10.16782
 Alpha  occ. eigenvalues --  -10.16614 -10.16603 -10.16228 -10.16213 -10.16094
 Alpha  occ. eigenvalues --  -10.16086  -6.56397  -6.56395  -4.72692  -4.72690
 Alpha  occ. eigenvalues --   -4.72516  -4.72513  -4.71971  -4.71969  -1.03412
 Alpha  occ. eigenvalues --   -1.03263  -1.00202  -1.00168  -0.91773  -0.80361
 Alpha  occ. eigenvalues --   -0.80281  -0.79953  -0.79945  -0.74451  -0.73428
 Alpha  occ. eigenvalues --   -0.72513  -0.72503  -0.71036  -0.70107  -0.64699
 Alpha  occ. eigenvalues --   -0.64457  -0.63430  -0.63357  -0.60981  -0.58796
 Alpha  occ. eigenvalues --   -0.58773  -0.58668  -0.58652  -0.56358  -0.54341
 Alpha  occ. eigenvalues --   -0.50316  -0.49770  -0.49487  -0.49258  -0.48665
 Alpha  occ. eigenvalues --   -0.48618  -0.48178  -0.46600  -0.46043  -0.44739
 Alpha  occ. eigenvalues --   -0.44733  -0.44335  -0.44170  -0.43855  -0.43807
 Alpha  occ. eigenvalues --   -0.43660  -0.43651  -0.41629  -0.41003  -0.40644
 Alpha  occ. eigenvalues --   -0.40564  -0.40161  -0.39043  -0.38338  -0.38245
 Alpha  occ. eigenvalues --   -0.37664  -0.37614  -0.37431  -0.37188  -0.36915
 Alpha  occ. eigenvalues --   -0.36902  -0.36427  -0.36169  -0.35164  -0.34369
 Alpha  occ. eigenvalues --   -0.34313  -0.34275  -0.33976  -0.33835  -0.33725
 Alpha  occ. eigenvalues --   -0.33527  -0.33500  -0.33292  -0.32994  -0.32416
 Alpha  occ. eigenvalues --   -0.32098  -0.30109  -0.29099  -0.29005  -0.27798
 Alpha  occ. eigenvalues --   -0.23868  -0.20545  -0.17778
 Alpha virt. eigenvalues --   -0.00308   0.02349   0.02524   0.02981   0.03357
 Alpha virt. eigenvalues --    0.03677   0.03907   0.04848   0.05216   0.05739
 Alpha virt. eigenvalues --    0.05827   0.06344   0.06523   0.07232   0.07295

 Mulliken charges:
               1
     1  P    0.386188
     2  P    0.386775
     3  C   -0.112139
     4  C   -0.030013
     5  C   -0.152183
     6  C   -0.068927
     7  C   -0.129241
     8  C   -0.031612
     9  C   -0.151287
    10  C   -0.067221
    11  C   -0.129295
    12  H    0.058344
    13  H    0.094276
    14  H    0.095152
    15  H    0.095882
    16  H    0.085045
    17  H    0.095698
    18  H    0.090308
    19  H    0.088119
    20  H    0.092093
    21  H    0.096273
    22  H    0.094882
    23  H    0.095643
    24  H    0.085409
    25  H    0.089379
    26  H    0.095149
    27  H    0.092101
    28  H    0.087903
    29  C   -0.161068
    30  H    0.084402
    31  H    0.086745
    32  C   -0.162651
    33  H    0.084272
    34  H    0.083185
    35  C   -0.162545
    36  H    0.083072
    37  H    0.084229
    38  C   -0.160652
    39  H    0.084279
    40  H    0.086528
    41  N   -0.138425
    42  C   -0.279236
    43  H    0.076630
    44  H    0.140317
    45  H    0.109766
    46  C   -0.279064
    47  H    0.140555
    48  H    0.077211
    49  H    0.109466
    50  O   -0.355265
    51  O   -0.340685
    52  O   -0.353987
    53  O   -0.340218
    54  C   -0.326542
    55  H    0.103321
    56  H    0.110714
    57  H    0.104546
    58  C   -0.324797
    59  H    0.111947
    60  H    0.103575
    61  H    0.102461
    62  C   -0.324923
    63  H    0.111934
    64  H    0.102313
    65  H    0.103715
    66  C   -0.326436
    67  H    0.110667
    68  H    0.103343
    69  H    0.104599
 Sum of Mulliken charges =  -0.00000

 Dipole moment (field-independent basis, Debye):
    X=             -0.0047    Y=              0.8855    Z=              2.3992  Tot=              2.5574
 Quadrupole moment (field-independent basis, Debye-Ang):
   XX=           -162.6912   YY=           -171.8753   ZZ=           -188.6493
   XY=              0.1806   XZ=              0.0353   YZ=             -8.1070

 Summary of Natural Population Analysis:

                                       Natural Population
                Natural  -----------------------------------------------
    Atom  No    Charge         Core      Valence    Rydberg      Total
 -----------------------------------------------------------------------
      P    1    1.33524      9.99855     3.57259    0.09362    13.66476
      P    2    1.33574      9.99855     3.57212    0.09358    13.66426
      C    3   -0.69221      1.99939     4.65673    0.03609     6.69221
      C    4   -0.04395      1.99925     4.02499    0.01971     6.04395
      C    5   -0.39780      1.99941     4.38304    0.01535     6.39780
      C    6   -0.06332      1.99924     4.04606    0.01801     6.06332
      C    7   -0.40137      1.99942     4.38573    0.01623     6.40137
      C    8   -0.04430      1.99924     4.02543    0.01963     6.04430
      C    9   -0.39800      1.99941     4.38324    0.01535     6.39800
      C   10   -0.06315      1.99924     4.04589    0.01801     6.06315
      C   11   -0.40132      1.99942     4.38570    0.01620     6.40132
      H   12    0.19481      0.00000     0.80044    0.00475     0.80519
      H   13    0.16402      0.00000     0.83335    0.00263     0.83598
      H   14    0.16980      0.00000     0.82718    0.00302     0.83020
      H   15    0.19923      0.00000     0.79896    0.00181     0.80077
      H   16    0.19286      0.00000     0.80525    0.00189     0.80714
      H   17    0.16620      0.00000     0.83084    0.00296     0.83380
      H   18    0.16386      0.00000     0.83309    0.00305     0.83614
      H   19    0.19810      0.00000     0.80013    0.00177     0.80190
      H   20    0.20036      0.00000     0.79787    0.00177     0.79964
      H   21    0.17052      0.00000     0.82648    0.00300     0.82948
      H   22    0.16411      0.00000     0.83325    0.00263     0.83589
      H   23    0.19917      0.00000     0.79904    0.00180     0.80083
      H   24    0.19317      0.00000     0.80494    0.00189     0.80683
      H   25    0.16378      0.00000     0.83314    0.00308     0.83622
      H   26    0.16605      0.00000     0.83099    0.00296     0.83395
      H   27    0.20034      0.00000     0.79789    0.00177     0.79966
      H   28    0.19793      0.00000     0.80030    0.00177     0.80207
      C   29   -0.37972      1.99944     4.36769    0.01259     6.37972
      H   30    0.19027      0.00000     0.80814    0.00159     0.80973
      H   31    0.19133      0.00000     0.80710    0.00157     0.80867
      C   32   -0.37909      1.99944     4.36700    0.01264     6.37909
      H   33    0.18981      0.00000     0.80854    0.00165     0.81019
      H   34    0.18901      0.00000     0.80933    0.00166     0.81099
      C   35   -0.37924      1.99944     4.36711    0.01268     6.37924
      H   36    0.18903      0.00000     0.80931    0.00166     0.81097
      H   37    0.18987      0.00000     0.80848    0.00165     0.81013
      C   38   -0.37975      1.99944     4.36770    0.01260     6.37975
      H   39    0.19023      0.00000     0.80818    0.00159     0.80977
      H   40    0.19128      0.00000     0.80716    0.00157     0.80872
      N   41   -0.42626      1.99951     5.39430    0.03245     7.42626
      C   42   -0.39878      1.99936     4.38817    0.01125     6.39878
      H   43    0.14726      0.00000     0.84792    0.00482     0.85274
      H   44    0.20855      0.00000     0.78930    0.00215     0.79145
      H   45    0.19256      0.00000     0.80562    0.00182     0.80744
      C   46   -0.39892      1.99936     4.38830    0.01126     6.39892
      H   47    0.20838      0.00000     0.78949    0.00214     0.79162
      H   48    0.14738      0.00000     0.84779    0.00483     0.85262
      H   49    0.19259      0.00000     0.80558    0.00182     0.80741
      O   50   -0.80719      1.99980     6.79230    0.01509     8.80719
      O   51   -0.79103      1.99982     6.77728    0.01393     8.79103
      O   52   -0.80720      1.99979     6.79227    0.01514     8.80720
      O   53   -0.79027      1.99982     6.77656    0.01389     8.79027
      C   54   -0.58303      1.99947     4.57714    0.00642     6.58303
      H   55    0.19603      0.00000     0.80235    0.00162     0.80397
      H   56    0.20221      0.00000     0.79659    0.00120     0.79779
      H   57    0.19673      0.00000     0.80165    0.00162     0.80327
      C   58   -0.58244      1.99947     4.57673    0.00624     6.58244
      H   59    0.20297      0.00000     0.79585    0.00118     0.79703
      H   60    0.19659      0.00000     0.80196    0.00145     0.80341
      H   61    0.19594      0.00000     0.80260    0.00146     0.80406
      C   62   -0.58249      1.99947     4.57678    0.00624     6.58249
      H   63    0.20292      0.00000     0.79590    0.00118     0.79708
      H   64    0.19585      0.00000     0.80269    0.00145     0.80415
      H   65    0.19665      0.00000     0.80190    0.00145     0.80335
      C   66   -0.58306      1.99947     4.57715    0.00644     6.58306
      H   67    0.20225      0.00000     0.79655    0.00120     0.79775
      H   68    0.19612      0.00000     0.80226    0.00162     0.80388
      H   69    0.19677      0.00000     0.80161    0.00162     0.80323
 =======================================================================
   * Total *   -0.00000     67.98425   157.37499    0.64077   226.00000

 1\1\GINC-G2NODEC1\SP\RB3LYP\def2TZVP\C19H43N1O4P2\ROOT\24-Jan-2025\0\\
 # nmr=giao b3lyp/def2TZVP pop=nbo scfcyc=200\\MS-83 SPE NoRh\\0,1\P,0,
 1.333,0.162,0.443\P,0,-1.353,0.153,0.438\C,0,-0.014,0.408,1.769\C,0,2.
 763,-2.083,-0.006\C,0,3.202,-3.33,0.736\C,0,3.421,1.524,1.63\C,0,4.494
 ,2.486,1.158\C,0,-2.74,-2.103,-0.067\C,0,-3.128,-3.392,0.63\C,0,-3.471
 ,1.456,1.644\C,0,-4.566,2.397,1.181\H,0,-0.02,1.506,1.937\H,0,3.627,-1
 .533,-0.391\H,0,2.106,-2.335,-0.843\H,0,2.318,-3.822,1.15\H,0,3.829,-3
 .038,1.583\H,0,3.851,0.563,1.92\H,0,2.874,1.934,2.482\H,0,4.995,2.058,

 Normal termination of Gaussian 16 at Fri Jan 24 21:11:22 2025.
