 Gaussian 16, Revision B.01,
 Gaussian 16:  ES64L-G16RevB.01 20-Dec-2017

 --------------------------------------------
 # nmr=giao b3lyp/def2TZVP pop=nbo scfcyc=200
 --------------------------------------------

 --------------
 MS-89 SPE NoRh
 --------------
 Symbolic Z-matrix:
 Charge =  0 Multiplicity = 1

                         Standard orientation:
 ---------------------------------------------------------------------
 Center     Atomic      Atomic             Coordinates (Angstroms)
 Number     Number       Type             X           Y           Z
 ---------------------------------------------------------------------
      1         15           0        1.411684   -0.386664   -0.949640
      2         15           0       -1.305817   -0.235922   -0.939766
      3          6           0        0.039360   -0.681819    0.318689
      4          6           0        4.890403   -1.206828    1.007932
      5          6           0        5.028203   -1.092933   -2.091077
      6          6           0        1.515451    3.386787    0.893556
      7          6           0        4.077562    3.086524   -0.851901
      8          6           0       -4.126078    2.074571   -2.089192
      9          6           0       -2.490635    3.995225   -0.268093
     10          1           0       -0.007642   -1.792236    0.331970
     11          1           0        5.956293   -1.439940    1.081523
     12          1           0        4.783555   -0.122676    1.065422
     13          1           0        4.395945   -1.650092    1.874870
     14          1           0        6.096324   -1.325485   -2.089747
     15          1           0        4.616479   -1.460549   -3.033321
     16          1           0        4.930960   -0.005427   -2.071514
     17          1           0        1.436390    4.475265    0.839001
     18          1           0        0.522566    2.972489    1.072381
     19          1           0        2.143051    3.142237    1.754408
     20          1           0        4.232602    4.167982   -0.880115
     21          1           0        4.644188    2.695717   -0.003711
     22          1           0        4.500755    2.668160   -1.767427
     23          1           0       -4.434169    1.041094   -2.261522
     24          1           0       -5.030623    2.686093   -2.061191
     25          1           0       -3.534919    2.408101   -2.944668
     26          1           0       -3.308781    4.715866   -0.200888
     27          1           0       -1.896602    4.080847    0.643993
     28          1           0       -1.861790    4.282762   -1.112688
     29          6           0       -4.218966    1.740982    0.997515
     30          1           0       -4.548803    0.704914    0.911414
     31          1           0       -3.670557    1.852168    1.935348
     32          1           0       -5.109780    2.370603    1.062365
     33          6           0        1.288264    3.239485   -2.213810
     34          1           0        1.741036    2.851561   -3.128118
     35          1           0        0.252317    2.900648   -2.172234
     36          1           0        1.285754    4.330570   -2.282892
     37          6           0        4.258111   -3.757998   -0.663502
     38          1           0        3.713587   -4.197810    0.175375
     39          1           0        3.821765   -4.141272   -1.588582
     40          1           0        5.291150   -4.110018   -0.611858
     41         14           0        2.247749    2.697959   -0.689199
     42         14           0        4.196633   -1.885265   -0.600499
     43         14           0       -3.174052    2.261131   -0.475287
     44          6           0       -4.756331   -2.517542   -1.967296
     45          1           0       -5.453300   -1.720970   -1.697134
     46          1           0       -4.375046   -2.307455   -2.969262
     47          1           0       -5.326412   -3.448161   -2.021887
     48          6           0       -4.072408   -2.979786    1.022406
     49          1           0       -4.762325   -2.188152    1.321892
     50          1           0       -4.621729   -3.924210    1.045071
     51          1           0       -3.278929   -3.039549    1.770442
     52          6           0       -2.109974   -3.971143   -1.181934
     53          1           0       -1.625949   -3.728724   -2.129024
     54          1           0       -1.332905   -4.080685   -0.422682
     55          1           0       -2.595916   -4.944313   -1.294413
     56         14           0       -3.381792   -2.673918   -0.695309
     57          8           0       -2.608789   -1.135788   -0.624134
     58          8           0       -1.777346    1.250760   -0.545832
     59          8           0        2.168791    0.980548   -0.567557
     60          8           0        2.511683   -1.522321   -0.665672
     61          6           0       -1.122980   -0.459999    2.424069
     62          6           0        1.284036   -0.439001    2.386427
     63          6           0       -1.074258    0.210596    3.789427
     64          1           0       -1.180905   -1.553334    2.562177
     65          1           0       -2.019796   -0.139158    1.894667
     66          6           0        1.260755    0.227714    3.755012
     67          1           0        1.374964   -1.530301    2.516429
     68          1           0        2.155387   -0.088399    1.834098
     69          1           0       -1.913951   -0.118568    4.400843
     70          1           0       -1.131772    1.301578    3.669546
     71          1           0        2.121827   -0.089422    4.342264
     72          1           0        1.298365    1.318529    3.636268
     73          7           0        0.064712   -0.097697    1.634386
     74          8           0        0.106127   -0.138860    4.495476
 ---------------------------------------------------------------------

 SCF Done:  E(RB3LYP) =  -2947.46745687     A.U. after   15 cycles

      1  P    Isotropic =    98.8262   Anisotropy =   229.5006

      2  P    Isotropic =    92.9906   Anisotropy =   238.6451

      3  C    Isotropic =    87.2394   Anisotropy =    30.1972

      4  C    Isotropic =   180.3184   Anisotropy =     9.5056

      5  C    Isotropic =   182.4804   Anisotropy =    10.1197

      6  C    Isotropic =   181.2156   Anisotropy =     8.1861

      7  C    Isotropic =   181.1864   Anisotropy =    12.7787

      8  C    Isotropic =   182.4738   Anisotropy =    10.6551

      9  C    Isotropic =   181.7812   Anisotropy =    10.6005

     10  H    Isotropic =    29.8775   Anisotropy =     4.9219

     11  H    Isotropic =    31.9897   Anisotropy =    10.3155

     12  H    Isotropic =    31.6446   Anisotropy =     7.0765

     13  H    Isotropic =    31.6332   Anisotropy =     6.4466

     14  H    Isotropic =    32.1031   Anisotropy =     9.9959

     15  H    Isotropic =    31.5219   Anisotropy =     7.9234

     16  H    Isotropic =    31.4591   Anisotropy =     8.9248

     17  H    Isotropic =    32.0453   Anisotropy =     9.1177

     18  H    Isotropic =    30.8851   Anisotropy =     9.1605

     19  H    Isotropic =    31.6516   Anisotropy =     6.3890

     20  H    Isotropic =    31.9335   Anisotropy =     9.9500

     21  H    Isotropic =    31.5975   Anisotropy =     6.7461

     22  H    Isotropic =    31.5449   Anisotropy =     7.6888

     23  H    Isotropic =    31.3719   Anisotropy =     8.8664

     24  H    Isotropic =    32.0962   Anisotropy =     9.9804

     25  H    Isotropic =    31.5254   Anisotropy =     7.7717

     26  H    Isotropic =    32.0584   Anisotropy =    10.2726

     27  H    Isotropic =    31.4884   Anisotropy =     7.0784

     28  H    Isotropic =    31.5805   Anisotropy =     7.6407

     29  C    Isotropic =   180.1026   Anisotropy =    10.3634

     30  H    Isotropic =    31.5550   Anisotropy =     7.8698

     31  H    Isotropic =    31.6318   Anisotropy =     6.7227

     32  H    Isotropic =    31.9734   Anisotropy =    10.3694

     33  C    Isotropic =   182.4863   Anisotropy =     8.8898

     34  H    Isotropic =    31.5445   Anisotropy =     8.1008

     35  H    Isotropic =    31.2907   Anisotropy =    10.2367

     36  H    Isotropic =    32.1145   Anisotropy =     8.9525

     37  C    Isotropic =   182.1511   Anisotropy =    12.7442

     38  H    Isotropic =    31.5853   Anisotropy =     7.2322

     39  H    Isotropic =    31.5555   Anisotropy =     7.9352

     40  H    Isotropic =    32.0845   Anisotropy =    10.1565

     41  Si   Isotropic =   293.2322   Anisotropy =    19.9093

     42  Si   Isotropic =   293.6202   Anisotropy =    22.5953

     43  Si   Isotropic =   292.5258   Anisotropy =    23.6617

     44  C    Isotropic =   182.0524   Anisotropy =    12.1664

     45  H    Isotropic =    31.6117   Anisotropy =     7.0448

     46  H    Isotropic =    31.4605   Anisotropy =     7.4071

     47  H    Isotropic =    32.0327   Anisotropy =    10.2801

     48  C    Isotropic =   180.9085   Anisotropy =    10.7875

     49  H    Isotropic =    31.6500   Anisotropy =     6.5144

     50  H    Isotropic =    32.0140   Anisotropy =    10.4393

     51  H    Isotropic =    31.5209   Anisotropy =     7.3298

     52  C    Isotropic =   182.3040   Anisotropy =     8.8643

     53  H    Isotropic =    31.4140   Anisotropy =     7.1403

     54  H    Isotropic =    31.4591   Anisotropy =     7.4710

     55  H    Isotropic =    31.9800   Anisotropy =    10.1826

     56  Si   Isotropic =   295.3564   Anisotropy =    19.5866

     57  O    Isotropic =   196.4226   Anisotropy =   140.4957

     58  O    Isotropic =   210.1994   Anisotropy =   148.2528

     59  O    Isotropic =   205.0434   Anisotropy =   143.7909

     60  O    Isotropic =   197.1239   Anisotropy =   143.7285

     61  C    Isotropic =   123.1812   Anisotropy =    31.1849

     62  C    Isotropic =   124.5340   Anisotropy =    30.4572

     63  C    Isotropic =   111.8908   Anisotropy =    56.5996

     64  H    Isotropic =    29.9209   Anisotropy =     6.6809

     65  H    Isotropic =    29.1007   Anisotropy =     7.3696

     66  C    Isotropic =   112.0338   Anisotropy =    56.9926

     67  H    Isotropic =    29.8340   Anisotropy =     6.2469

     68  H    Isotropic =    29.0487   Anisotropy =     7.6960

     69  H    Isotropic =    28.2458   Anisotropy =     6.5482

     70  H    Isotropic =    28.2518   Anisotropy =     5.7584

     71  H    Isotropic =    28.2519   Anisotropy =     6.7087

     72  H    Isotropic =    28.2682   Anisotropy =     6.0171

     73  N    Isotropic =   188.4263   Anisotropy =    16.6482

     74  O    Isotropic =   283.4675   Anisotropy =    65.6997

 The electronic state is 1-A.
 Alpha  occ. eigenvalues --  -77.08942 -77.08741 -66.12233 -66.12054 -66.11797
 Alpha  occ. eigenvalues --  -66.11785 -19.12283 -19.11364 -19.11149 -19.11095
 Alpha  occ. eigenvalues --  -19.10733 -14.31068 -10.21064 -10.20964 -10.18777
 Alpha  occ. eigenvalues --  -10.18629 -10.18192 -10.15150 -10.15138 -10.15085
 Alpha  occ. eigenvalues --  -10.15038 -10.14997 -10.14963 -10.14896 -10.14830
 Alpha  occ. eigenvalues --  -10.14759 -10.14687 -10.14422 -10.14378  -6.56479
 Alpha  occ. eigenvalues --   -6.56279  -5.27894  -5.27731  -5.27466  -5.27458
 Alpha  occ. eigenvalues --   -4.72807  -4.72619  -4.72605  -4.72418  -4.72028
 Alpha  occ. eigenvalues --   -4.71835  -3.63933  -3.63764  -3.63599  -3.63592
 Alpha  occ. eigenvalues --   -3.63513  -3.63492  -3.63437  -3.63430  -3.63174
 Alpha  occ. eigenvalues --   -3.63162  -3.63159  -3.63150  -1.03435  -1.00856
 Alpha  occ. eigenvalues --   -1.00547  -0.96697  -0.96460  -0.91728  -0.76766
 Alpha  occ. eigenvalues --   -0.73335  -0.72021  -0.71798  -0.71561  -0.71451
 Alpha  occ. eigenvalues --   -0.68684  -0.68639  -0.68607  -0.68422  -0.68395
 Alpha  occ. eigenvalues --   -0.68302  -0.68210  -0.67966  -0.65975  -0.64914
 Alpha  occ. eigenvalues --   -0.60505  -0.58143  -0.56090  -0.52817  -0.52445
 Alpha  occ. eigenvalues --   -0.50843  -0.47429  -0.46730  -0.46103  -0.45594
 Alpha  occ. eigenvalues --   -0.44196  -0.43670  -0.43277  -0.42891  -0.42832
 Alpha  occ. eigenvalues --   -0.42371  -0.42045  -0.41976  -0.41765  -0.41650
 Alpha  occ. eigenvalues --   -0.41522  -0.41495  -0.41308  -0.41097  -0.40880
 Alpha  occ. eigenvalues --   -0.40835  -0.40578  -0.40298  -0.40096  -0.40012
 Alpha  occ. eigenvalues --   -0.39824  -0.39647  -0.39617  -0.39400  -0.39217
 Alpha  occ. eigenvalues --   -0.39077  -0.39011  -0.38884  -0.38684  -0.38630
 Alpha  occ. eigenvalues --   -0.38321  -0.38151  -0.37682  -0.37365  -0.35835
 Alpha  occ. eigenvalues --   -0.35695  -0.35307  -0.34763  -0.34337  -0.34099
 Alpha  occ. eigenvalues --   -0.33691  -0.31603  -0.30940  -0.30718  -0.30358
 Alpha  occ. eigenvalues --   -0.30212  -0.29781  -0.29521  -0.29262  -0.29115
 Alpha  occ. eigenvalues --   -0.28341  -0.26069  -0.22812  -0.19952  -0.16115
 Alpha virt. eigenvalues --    0.00366   0.01062   0.01947   0.02173   0.03332
 Alpha virt. eigenvalues --    0.03786   0.04455   0.04777   0.04853   0.05351
 Alpha virt. eigenvalues --    0.05746   0.06056   0.06370   0.06532   0.06766

 Mulliken charges:
               1
     1  P    0.385571
     2  P    0.394164
     3  C   -0.070260
     4  C   -0.468506
     5  C   -0.463351
     6  C   -0.449660
     7  C   -0.466866
     8  C   -0.461654
     9  C   -0.464590
    10  H    0.052457
    11  H    0.118542
    12  H    0.125300
    13  H    0.125235
    14  H    0.112471
    15  H    0.125993
    16  H    0.127621
    17  H    0.112842
    18  H    0.143960
    19  H    0.109449
    20  H    0.117528
    21  H    0.118359
    22  H    0.121192
    23  H    0.133777
    24  H    0.112672
    25  H    0.124373
    26  H    0.114750
    27  H    0.123657
    28  H    0.125028
    29  C   -0.472750
    30  H    0.126862
    31  H    0.124146
    32  H    0.119870
    33  C   -0.457712
    34  H    0.122362
    35  H    0.138837
    36  H    0.108906
    37  C   -0.458452
    38  H    0.119090
    39  H    0.123314
    40  H    0.108801
    41  Si   0.538275
    42  Si   0.554488
    43  Si   0.548881
    44  C   -0.458995
    45  H    0.118195
    46  H    0.128529
    47  H    0.116445
    48  C   -0.449361
    49  H    0.119553
    50  H    0.114900
    51  H    0.124530
    52  C   -0.462999
    53  H    0.135838
    54  H    0.121542
    55  H    0.115409
    56  Si   0.528434
    57  O   -0.423053
    58  O   -0.420467
    59  O   -0.422730
    60  O   -0.415726
    61  C   -0.141096
    62  C   -0.113446
    63  C   -0.012628
    64  H    0.050765
    65  H    0.141660
    66  C   -0.013384
    67  H    0.056581
    68  H    0.122308
    69  H    0.100235
    70  H    0.068228
    71  H    0.098894
    72  H    0.073912
    73  N   -0.202541
    74  O   -0.324504
 Sum of Mulliken charges =  -0.00000

 Dipole moment (field-independent basis, Debye):
    X=             -0.5568    Y=              0.4421    Z=             -0.1742  Tot=              0.7320
 Quadrupole moment (field-independent basis, Debye-Ang):
   XX=           -204.7140   YY=           -212.7407   ZZ=           -241.5311
   XY=              0.8788   XZ=              0.1275   YZ=              0.3434

 Summary of Natural Population Analysis:

                                       Natural Population
                Natural  -----------------------------------------------
    Atom  No    Charge         Core      Valence    Rydberg      Total
 -----------------------------------------------------------------------
      P    1    1.39694      9.99853     3.50213    0.10240    13.60306
      P    2    1.38967      9.99856     3.51037    0.10141    13.61033
      C    3   -0.71472      1.99941     4.67903    0.03629     6.71472
      C    4   -1.12718      1.99942     5.10685    0.02091     7.12718
      C    5   -1.12407      1.99942     5.10411    0.02054     7.12407
      C    6   -1.12968      1.99941     5.10861    0.02165     7.12968
      C    7   -1.12084      1.99942     5.10118    0.02023     7.12084
      C    8   -1.12530      1.99942     5.10514    0.02074     7.12530
      C    9   -1.12092      1.99942     5.10125    0.02025     7.12092
      H   10    0.19652      0.00000     0.79966    0.00382     0.80348
      H   11    0.22807      0.00000     0.77112    0.00080     0.77193
      H   12    0.23567      0.00000     0.76328    0.00105     0.76433
      H   13    0.23365      0.00000     0.76548    0.00087     0.76635
      H   14    0.22664      0.00000     0.77264    0.00072     0.77336
      H   15    0.23717      0.00000     0.76203    0.00080     0.76283
      H   16    0.23589      0.00000     0.76314    0.00097     0.76411
      H   17    0.22572      0.00000     0.77345    0.00083     0.77428
      H   18    0.25040      0.00000     0.74792    0.00168     0.74960
      H   19    0.23014      0.00000     0.76880    0.00106     0.76986
      H   20    0.22907      0.00000     0.77021    0.00073     0.77093
      H   21    0.23200      0.00000     0.76702    0.00098     0.76800
      H   22    0.23292      0.00000     0.76609    0.00099     0.76708
      H   23    0.23842      0.00000     0.76070    0.00088     0.76158
      H   24    0.22694      0.00000     0.77233    0.00073     0.77306
      H   25    0.23636      0.00000     0.76282    0.00082     0.76364
      H   26    0.22824      0.00000     0.77103    0.00073     0.77176
      H   27    0.23621      0.00000     0.76280    0.00099     0.76379
      H   28    0.23606      0.00000     0.76302    0.00092     0.76394
      C   29   -1.12772      1.99942     5.10729    0.02102     7.12772
      H   30    0.23740      0.00000     0.76154    0.00106     0.76260
      H   31    0.23250      0.00000     0.76650    0.00100     0.76750
      H   32    0.22872      0.00000     0.77048    0.00080     0.77128
      C   33   -1.12685      1.99942     5.10634    0.02109     7.12685
      H   34    0.23641      0.00000     0.76276    0.00083     0.76359
      H   35    0.24421      0.00000     0.75479    0.00100     0.75579
      H   36    0.22571      0.00000     0.77353    0.00077     0.77429
      C   37   -1.11872      1.99942     5.09939    0.01991     7.11872
      H   38    0.23516      0.00000     0.76401    0.00083     0.76484
      H   39    0.23718      0.00000     0.76206    0.00076     0.76282
      H   40    0.22653      0.00000     0.77273    0.00075     0.77347
     Si   41    1.91818      9.99796     2.05279    0.03107    12.08182
     Si   42    1.91149      9.99798     2.05923    0.03131    12.08851
     Si   43    1.91275      9.99798     2.05721    0.03205    12.08725
      C   44   -1.12244      1.99942     5.10275    0.02027     7.12244
      H   45    0.23258      0.00000     0.76651    0.00090     0.76742
      H   46    0.23820      0.00000     0.76102    0.00078     0.76180
      H   47    0.22847      0.00000     0.77080    0.00073     0.77153
      C   48   -1.12255      1.99942     5.10257    0.02056     7.12255
      H   49    0.23303      0.00000     0.76599    0.00098     0.76697
      H   50    0.22806      0.00000     0.77111    0.00082     0.77194
      H   51    0.23505      0.00000     0.76386    0.00109     0.76495
      C   52   -1.12824      1.99942     5.10791    0.02091     7.12824
      H   53    0.24215      0.00000     0.75693    0.00092     0.75785
      H   54    0.23402      0.00000     0.76483    0.00115     0.76598
      H   55    0.22953      0.00000     0.76972    0.00075     0.77047
     Si   56    1.91485      9.99797     2.05577    0.03141    12.08515
      O   57   -1.18108      1.99975     7.17026    0.01107     9.18108
      O   58   -1.16342      1.99977     7.15004    0.01362     9.16342
      O   59   -1.17688      1.99975     7.16532    0.01181     9.17688
      O   60   -1.16410      1.99976     7.15218    0.01216     9.16410
      C   61   -0.24293      1.99936     4.22678    0.01679     6.24293
      C   62   -0.24431      1.99935     4.22823    0.01673     6.24431
      C   63   -0.07423      1.99926     4.05466    0.02032     6.07423
      H   64    0.15392      0.00000     0.84080    0.00528     0.84608
      H   65    0.20958      0.00000     0.78772    0.00270     0.79042
      C   66   -0.07465      1.99926     4.05527    0.02013     6.07465
      H   67    0.15784      0.00000     0.83724    0.00492     0.84216
      H   68    0.21103      0.00000     0.78602    0.00294     0.78897
      H   69    0.18631      0.00000     0.81216    0.00153     0.81369
      H   70    0.15325      0.00000     0.84363    0.00312     0.84675
      H   71    0.18614      0.00000     0.81234    0.00151     0.81386
      H   72    0.15494      0.00000     0.84216    0.00290     0.84506
      N   73   -0.43163      1.99944     5.39819    0.03400     7.43163
      O   74   -0.49542      1.99981     6.48190    0.01371     8.49542
 =======================================================================
   * Total *   -0.00000    105.97693   173.17754    0.84553   280.00000

 Normal termination of Gaussian 16 at Fri Jan 24 22:04:59 2025.
