 Gaussian 16, Revision B.01,
 Gaussian 16:  ES64L-G16RevB.01 20-Dec-2017

 --------------------------------------------
 # nmr=giao b3lyp/def2TZVP pop=nbo scfcyc=200
 --------------------------------------------

 --------------
 MS-86 SPE NoRh
 --------------
 Symbolic Z-matrix:
 Charge =  0 Multiplicity = 1

                         Standard orientation:
 ---------------------------------------------------------------------
 Center     Atomic      Atomic             Coordinates (Angstroms)
 Number     Number       Type             X           Y           Z
 ---------------------------------------------------------------------
      1         15           0       -1.655040   -0.983940    0.661623
      2         15           0        1.002101   -1.759388    0.168362
      3          6           0        2.157873   -2.439532   -1.199662
      4          6           0        1.311840   -3.294866   -2.152753
      5          6           0        2.839094   -1.304478   -1.972874
      6          6           0        3.230333   -3.309831   -0.522048
      7          6           0       -0.125330   -0.337990   -0.405115
      8          6           0       -2.202347    0.308093    1.988039
      9          6           0        1.575132    0.782605    0.787985
     10          6           0        1.951385   -0.527916    1.129966
     11          6           0       -2.358223    1.737813    1.454012
     12          6           0       -1.118677    0.312955    3.082592
     13          6           0       -3.039233   -1.311134   -0.670370
     14          6           0       -4.117136   -2.243464   -0.089004
     15          6           0       -3.704320   -0.027372   -1.179539
     16          6           0       -2.403735   -2.054981   -1.860018
     17          6           0        3.588276    0.321726    2.681123
     18          6           0        2.229127    1.858285    1.392495
     19          6           0        3.229470    1.620904    2.326857
     20          6           0       -3.533367   -0.147339    2.611239
     21          1           0        4.359411    0.151152    3.420204
     22          1           0        1.947227    2.872231    1.150521
     23          1           0        3.725637    2.462555    2.794862
     24          1           0        0.791693   -4.098931   -1.630949
     25          1           0       -4.561530   -1.877226    0.833785
     26          1           0       -3.725688   -3.244397    0.081470
     27          1           0       -0.433195   -0.414529   -1.442132
     28          1           0        0.568929   -2.699489   -2.686086
     29          1           0        3.413657   -0.647764   -1.318641
     30          1           0        3.859684   -2.730007    0.154664
     31          1           0       -1.431883    2.097889    1.013412
     32          1           0       -0.169916    0.705892    2.721639
     33          1           0       -2.984821    0.693832   -1.560504
     34          1           0       -3.744481    0.488747    3.473869
     35          1           0       -3.504735   -1.178469    2.968649
     36          1           0        1.962468   -3.750659   -2.903770
     37          1           0        2.122501   -0.700260   -2.529254
     38          1           0       -3.155439    1.831624    0.720608
     39          1           0       -4.374076   -0.285386   -2.004857
     40          1           0       -4.370911   -0.043616    1.922928
     41          1           0        3.532422   -1.734554   -2.700669
     42          1           0       -2.610102    2.394063    2.291409
     43          1           0       -4.310267    0.455876   -0.414999
     44          1           0       -3.206899   -2.419439   -2.505931
     45          1           0       -1.775185   -1.414391   -2.479686
     46          1           0       -1.820358   -2.919911   -1.540424
     47          1           0        2.801428   -4.147473    0.028153
     48          1           0        3.882756   -3.728837   -1.291786
     49          1           0       -1.453384    0.960254    3.897555
     50          1           0       -0.938056   -0.680299    3.490811
     51          1           0       -4.922419   -2.332500   -0.822455
     52          6           0        2.942986   -0.753147    2.083999
     53          1           0        3.220083   -1.762186    2.360205
     54          7           0        0.547934    0.931608   -0.181705
     55          6           0        0.931464    1.727181   -1.391476
     56          1           0        1.995013    1.951668   -1.294645
     57          1           0        0.835176    1.072055   -2.262031
     58          6           0        0.198782    3.048288   -1.731242
     59          6           0       -1.277499    2.803324   -2.062742
     60          1           0       -1.752577    3.729375   -2.393718
     61          1           0       -1.386444    2.074022   -2.870078
     62          1           0       -1.827937    2.447149   -1.194427
     63          6           0        0.901000    3.599756   -2.987790
     64          1           0        0.439539    4.538272   -3.299215
     65          1           0        1.960049    3.796669   -2.802368
     66          1           0        0.829541    2.902262   -3.826938
     67          6           0        0.316378    4.085616   -0.605721
     68          1           0       -0.118385    3.728476    0.328626
     69          1           0        1.358927    4.355066   -0.420684
     70          1           0       -0.208556    5.002888   -0.882667
 ---------------------------------------------------------------------

 SCF Done:  E(RB3LYP) =  -1678.29271410     A.U. after   14 cycles

      1  P    Isotropic =   157.1302   Anisotropy =   148.2877

      2  P    Isotropic =   206.0678   Anisotropy =   148.3822

      3  C    Isotropic =   141.8669   Anisotropy =    15.9943

      4  C    Isotropic =   153.6363   Anisotropy =    40.6962

      5  C    Isotropic =   152.7992   Anisotropy =    37.1448

      6  C    Isotropic =   157.5787   Anisotropy =    40.0627

      7  C    Isotropic =   109.6542   Anisotropy =    65.9554

      8  C    Isotropic =   137.1184   Anisotropy =    22.9158

      9  C    Isotropic =    14.5394   Anisotropy =   145.4700

     10  C    Isotropic =    46.7684   Anisotropy =   157.5450

     11  C    Isotropic =   153.4713   Anisotropy =    36.7231

     12  C    Isotropic =   149.6725   Anisotropy =    43.9511

     13  C    Isotropic =   137.0034   Anisotropy =    24.8841

     14  C    Isotropic =   151.1545   Anisotropy =    46.5704

     15  C    Isotropic =   151.9972   Anisotropy =    34.7994

     16  C    Isotropic =   149.4964   Anisotropy =    38.0072

     17  C    Isotropic =    57.1695   Anisotropy =   172.6367

     18  C    Isotropic =    62.0647   Anisotropy =   155.8833

     19  C    Isotropic =    49.1235   Anisotropy =   181.9859

     20  C    Isotropic =   151.3607   Anisotropy =    40.7896

     21  H    Isotropic =    24.7095   Anisotropy =     4.0683

     22  H    Isotropic =    24.6154   Anisotropy =     9.5443

     23  H    Isotropic =    24.4352   Anisotropy =     5.6375

     24  H    Isotropic =    30.5654   Anisotropy =     7.1438

     25  H    Isotropic =    30.4839   Anisotropy =     7.0356

     26  H    Isotropic =    30.7621   Anisotropy =     8.6368

     27  H    Isotropic =    27.5816   Anisotropy =     7.2438

     28  H    Isotropic =    30.8810   Anisotropy =     6.8677

     29  H    Isotropic =    31.4978   Anisotropy =     3.5610

     30  H    Isotropic =    30.9252   Anisotropy =     8.0915

     31  H    Isotropic =    29.5126   Anisotropy =    10.2698

     32  H    Isotropic =    31.7309   Anisotropy =    13.5624

     33  H    Isotropic =    30.0186   Anisotropy =     9.8906

     34  H    Isotropic =    31.4151   Anisotropy =     9.6175

     35  H    Isotropic =    30.7588   Anisotropy =     8.1234

     36  H    Isotropic =    31.1299   Anisotropy =     9.6108

     37  H    Isotropic =    31.1166   Anisotropy =     7.0835

     38  H    Isotropic =    30.3937   Anisotropy =     4.4182

     39  H    Isotropic =    31.0482   Anisotropy =     9.0411

     40  H    Isotropic =    30.8684   Anisotropy =     7.1903

     41  H    Isotropic =    31.2348   Anisotropy =     9.9976

     42  H    Isotropic =    31.2087   Anisotropy =     8.6193

     43  H    Isotropic =    30.3049   Anisotropy =     5.4716

     44  H    Isotropic =    31.1398   Anisotropy =     8.2062

     45  H    Isotropic =    30.5693   Anisotropy =     5.1032

     46  H    Isotropic =    30.4451   Anisotropy =     8.3993

     47  H    Isotropic =    30.7375   Anisotropy =     9.0092

     48  H    Isotropic =    31.5034   Anisotropy =    10.2319

     49  H    Isotropic =    31.8660   Anisotropy =     8.5142

     50  H    Isotropic =    31.2079   Anisotropy =     6.3167

     51  H    Isotropic =    31.3495   Anisotropy =     9.6611

     52  C    Isotropic =    47.4123   Anisotropy =   180.0551

     53  H    Isotropic =    24.1634   Anisotropy =     8.0759

     54  N    Isotropic =   158.0942   Anisotropy =    92.4362

     55  C    Isotropic =    97.7713   Anisotropy =    68.8649

     56  H    Isotropic =    28.9060   Anisotropy =     7.0308

     57  H    Isotropic =    28.9837   Anisotropy =     8.0313

     58  C    Isotropic =   143.9515   Anisotropy =    12.9131

     59  C    Isotropic =   152.0782   Anisotropy =    40.5070

     60  H    Isotropic =    30.9120   Anisotropy =     8.3397

     61  H    Isotropic =    30.9639   Anisotropy =     6.7343

     62  H    Isotropic =    29.8843   Anisotropy =     9.4396

     63  C    Isotropic =   151.5581   Anisotropy =    51.4794

     64  H    Isotropic =    30.9940   Anisotropy =    10.1359

     65  H    Isotropic =    31.1734   Anisotropy =     9.0970

     66  H    Isotropic =    31.1175   Anisotropy =     8.5333

     67  C    Isotropic =   154.3521   Anisotropy =    35.0361

     68  H    Isotropic =    30.1404   Anisotropy =     4.8337

     69  H    Isotropic =    30.8109   Anisotropy =     8.8122

     70  H    Isotropic =    30.9224   Anisotropy =     9.0907

 The electronic state is 1-A.
 Alpha  occ. eigenvalues --  -77.03421 -77.03410 -14.33577 -10.21342 -10.20943
 Alpha  occ. eigenvalues --  -10.20618 -10.19190 -10.19109 -10.18729 -10.18617
 Alpha  occ. eigenvalues --  -10.17669 -10.17561 -10.17321 -10.17148 -10.16907
 Alpha  occ. eigenvalues --  -10.16533 -10.16439 -10.16243 -10.16177 -10.16120
 Alpha  occ. eigenvalues --  -10.16023 -10.15855 -10.15805 -10.15745 -10.15719
 Alpha  occ. eigenvalues --  -10.14997 -10.14994  -6.52001  -6.51891  -4.68154
 Alpha  occ. eigenvalues --   -4.68090  -4.68075  -4.67969  -4.67643  -4.67510
 Alpha  occ. eigenvalues --   -0.94840  -0.85000  -0.82723  -0.81606  -0.81119
 Alpha  occ. eigenvalues --   -0.80136  -0.75607  -0.74305  -0.71707  -0.69569
 Alpha  occ. eigenvalues --   -0.69403  -0.69028  -0.68841  -0.68816  -0.68673
 Alpha  occ. eigenvalues --   -0.68153  -0.67814  -0.66689  -0.62414  -0.60492
 Alpha  occ. eigenvalues --   -0.58364  -0.57556  -0.54809  -0.54578  -0.53797
 Alpha  occ. eigenvalues --   -0.51142  -0.49472  -0.48088  -0.47579  -0.47180
 Alpha  occ. eigenvalues --   -0.46089  -0.45782  -0.45298  -0.44802  -0.44466
 Alpha  occ. eigenvalues --   -0.44201  -0.44007  -0.43791  -0.43446  -0.43118
 Alpha  occ. eigenvalues --   -0.42666  -0.42386  -0.41900  -0.40335  -0.39745
 Alpha  occ. eigenvalues --   -0.39639  -0.39163  -0.39023  -0.38727  -0.38405
 Alpha  occ. eigenvalues --   -0.37958  -0.37853  -0.37725  -0.37700  -0.37379
 Alpha  occ. eigenvalues --   -0.36989  -0.36686  -0.36221  -0.35555  -0.35288
 Alpha  occ. eigenvalues --   -0.34850  -0.34245  -0.34001  -0.33716  -0.33498
 Alpha  occ. eigenvalues --   -0.33269  -0.32937  -0.32553  -0.32529  -0.31756
 Alpha  occ. eigenvalues --   -0.30178  -0.28264  -0.26918  -0.26279  -0.22272
 Alpha  occ. eigenvalues --   -0.20372  -0.17474
 Alpha virt. eigenvalues --   -0.02708  -0.00869   0.01241   0.01838   0.03323
 Alpha virt. eigenvalues --    0.03480   0.03968   0.04727   0.05020   0.05543
 Alpha virt. eigenvalues --    0.06147   0.06647   0.06806   0.06975   0.07418

 Mulliken charges:
               1
     1  P    0.068283
     2  P    0.056755
     3  C    0.120155
     4  C   -0.386890
     5  C   -0.352662
     6  C   -0.380664
     7  C   -0.104053
     8  C    0.145917
     9  C    0.108543
    10  C   -0.019186
    11  C   -0.373617
    12  C   -0.396837
    13  C    0.098961
    14  C   -0.359584
    15  C   -0.363373
    16  C   -0.412972
    17  C   -0.145476
    18  C   -0.298033
    19  C   -0.074318
    20  C   -0.394845
    21  H    0.102971
    22  H    0.113920
    23  H    0.105827
    24  H    0.123760
    25  H    0.121144
    26  H    0.117423
    27  H    0.074548
    28  H    0.112660
    29  H    0.125067
    30  H    0.117720
    31  H    0.114766
    32  H    0.158287
    33  H    0.119504
    34  H    0.109087
    35  H    0.128749
    36  H    0.108273
    37  H    0.092597
    38  H    0.105916
    39  H    0.098074
    40  H    0.108229
    41  H    0.099955
    42  H    0.094259
    43  H    0.108419
    44  H    0.112278
    45  H    0.105930
    46  H    0.143367
    47  H    0.120284
    48  H    0.106447
    49  H    0.099278
    50  H    0.118416
    51  H    0.103385
    52  C   -0.139998
    53  H    0.120084
    54  N   -0.054898
    55  C   -0.257462
    56  H    0.127563
    57  H    0.097668
    58  C    0.205843
    59  C   -0.382590
    60  H    0.110759
    61  H    0.102326
    62  H    0.126227
    63  C   -0.353763
    64  H    0.113041
    65  H    0.111056
    66  H    0.107556
    67  C   -0.396655
    68  H    0.136678
    69  H    0.106661
    70  H    0.113259
 Sum of Mulliken charges =  -0.00000

 Dipole moment (field-independent basis, Debye):
    X=              0.1266    Y=              1.5666    Z=             -1.8473  Tot=              2.4254
 Quadrupole moment (field-independent basis, Debye-Ang):
   XX=           -185.8128   YY=           -188.1671   ZZ=           -187.5740
   XY=             -0.3772   XZ=              2.4594   YZ=              2.4755

 Summary of Natural Population Analysis:

                                       Natural Population
                Natural  -----------------------------------------------
    Atom  No    Charge         Core      Valence    Rydberg      Total
 -----------------------------------------------------------------------
      P    1    0.75013      9.99843     4.22285    0.02860    14.24987
      P    2    0.79293      9.99821     4.17700    0.03187    14.20707
      C    3   -0.27710      1.99946     4.25317    0.02446     6.27710
      C    4   -0.60220      1.99937     4.59078    0.01204     6.60220
      C    5   -0.60126      1.99937     4.58930    0.01259     6.60126
      C    6   -0.60325      1.99936     4.59158    0.01231     6.60325
      C    7   -0.54827      1.99935     4.51403    0.03489     6.54827
      C    8   -0.27286      1.99944     4.24876    0.02466     6.27286
      C    9    0.15685      1.99883     3.82193    0.02238     5.84315
      C   10   -0.37553      1.99891     4.34468    0.03194     6.37553
      C   11   -0.61096      1.99935     4.59830    0.01331     6.61096
      C   12   -0.60297      1.99936     4.59080    0.01281     6.60297
      C   13   -0.25748      1.99943     4.23390    0.02414     6.25748
      C   14   -0.60174      1.99936     4.58968    0.01270     6.60174
      C   15   -0.60829      1.99935     4.59626    0.01267     6.60829
      C   16   -0.60406      1.99937     4.59200    0.01269     6.60406
      C   17   -0.22932      1.99918     4.21105    0.01909     6.22932
      C   18   -0.25018      1.99903     4.23151    0.01964     6.25018
      C   19   -0.18761      1.99920     4.16996    0.01844     6.18761
      C   20   -0.60200      1.99937     4.59060    0.01203     6.60200
      H   21    0.20887      0.00000     0.78994    0.00119     0.79113
      H   22    0.21359      0.00000     0.78455    0.00187     0.78641
      H   23    0.20732      0.00000     0.79149    0.00119     0.79268
      H   24    0.21218      0.00000     0.78639    0.00143     0.78782
      H   25    0.20822      0.00000     0.79052    0.00127     0.79178
      H   26    0.21108      0.00000     0.78759    0.00133     0.78892
      H   27    0.22363      0.00000     0.77188    0.00449     0.77637
      H   28    0.20086      0.00000     0.79784    0.00130     0.79914
      H   29    0.20902      0.00000     0.78948    0.00150     0.79098
      H   30    0.20857      0.00000     0.79017    0.00125     0.79143
      H   31    0.21342      0.00000     0.78458    0.00200     0.78658
      H   32    0.21440      0.00000     0.78412    0.00148     0.78560
      H   33    0.20522      0.00000     0.79351    0.00127     0.79478
      H   34    0.20374      0.00000     0.79407    0.00219     0.79626
      H   35    0.21208      0.00000     0.78632    0.00160     0.78792
      H   36    0.20336      0.00000     0.79457    0.00206     0.79664
      H   37    0.19516      0.00000     0.80346    0.00138     0.80484
      H   38    0.19973      0.00000     0.79887    0.00140     0.80027
      H   39    0.19434      0.00000     0.80324    0.00242     0.80566
      H   40    0.19838      0.00000     0.80008    0.00154     0.80162
      H   41    0.19455      0.00000     0.80295    0.00250     0.80545
      H   42    0.19320      0.00000     0.80441    0.00238     0.80680
      H   43    0.20053      0.00000     0.79791    0.00157     0.79947
      H   44    0.20583      0.00000     0.79201    0.00216     0.79417
      H   45    0.19312      0.00000     0.80561    0.00126     0.80688
      H   46    0.21571      0.00000     0.78274    0.00154     0.78429
      H   47    0.21106      0.00000     0.78751    0.00142     0.78894
      H   48    0.20298      0.00000     0.79490    0.00212     0.79702
      H   49    0.19877      0.00000     0.79915    0.00209     0.80123
      H   50    0.21437      0.00000     0.78429    0.00133     0.78563
      H   51    0.19809      0.00000     0.79983    0.00209     0.80191
      C   52   -0.18278      1.99909     4.16331    0.02039     6.18278
      H   53    0.20912      0.00000     0.78888    0.00201     0.79088
      N   54   -0.45659      1.99938     5.42349    0.03373     7.45659
      C   55   -0.19074      1.99917     4.17440    0.01718     6.19074
      H   56    0.19932      0.00000     0.79779    0.00290     0.80068
      H   57    0.18344      0.00000     0.81293    0.00362     0.81656
      C   58   -0.05703      1.99945     4.04277    0.01482     6.05703
      C   59   -0.59776      1.99937     4.58496    0.01342     6.59776
      H   60    0.20437      0.00000     0.79436    0.00127     0.79563
      H   61    0.19755      0.00000     0.80113    0.00132     0.80245
      H   62    0.21229      0.00000     0.78603    0.00168     0.78771
      C   63   -0.58715      1.99939     4.57582    0.01194     6.58715
      H   64    0.20641      0.00000     0.79241    0.00118     0.79359
      H   65    0.20219      0.00000     0.79658    0.00124     0.79781
      H   66    0.20122      0.00000     0.79755    0.00122     0.79878
      C   67   -0.59528      1.99937     4.58330    0.01261     6.59528
      H   68    0.21086      0.00000     0.78805    0.00109     0.78914
      H   69    0.19908      0.00000     0.79965    0.00126     0.80092
      H   70    0.20525      0.00000     0.79356    0.00120     0.79475
 =======================================================================
   * Total *   -0.00000     69.97895   153.42908    0.59196   224.00000

 Normal termination of Gaussian 16 at Fri Jan 24 22:02:10 2025.
