 Gaussian 16, Revision B.01,
 Gaussian 16:  ES64L-G16RevB.01 20-Dec-2017

 --------------------------------------------
 # nmr=giao b3lyp/def2TZVP pop=nbo scfcyc=200
 --------------------------------------------

 --------------
 MS-82 SPE NoRh
 --------------
 Symbolic Z-matrix:
 Charge =  0 Multiplicity = 1

                         Standard orientation:
 ---------------------------------------------------------------------
 Center     Atomic      Atomic             Coordinates (Angstroms)
 Number     Number       Type             X           Y           Z
 ---------------------------------------------------------------------
      1         15           0        1.407288   -0.214161   -0.715684
      2         15           0       -1.313972   -0.070269   -0.730413
      3          6           0       -0.004505   -0.756415    0.450053
      4          6           0        5.306204   -1.121660    0.317055
      5          6           0        4.020410   -3.769149   -0.707300
      6          6           0        3.090170    3.331495    1.395347
      7          6           0        4.221343    2.397362   -1.353360
      8          6           0       -4.010714    2.586196   -1.330649
      9          6           0       -2.381935    3.895075    0.980572
     10          1           0       -0.050711   -1.842907    0.324551
     11          1           0        6.101146   -1.669685    0.830063
     12          1           0        5.668495   -0.869229   -0.681008
     13          1           0        5.136504   -0.194089    0.867068
     14          1           0        4.763588   -4.391281   -0.202389
     15          1           0        3.097209   -4.347194   -0.783961
     16          1           0        4.384038   -3.573348   -1.718022
     17          1           0        3.529741    4.327767    1.298646
     18          1           0        2.194896    3.423162    2.012841
     19          1           0        3.806631    2.702329    1.927086
     20          1           0        4.663962    3.369829   -1.584024
     21          1           0        4.978844    1.802332   -0.842026
     22          1           0        3.993649    1.909478   -2.304634
     23          1           0       -4.361634    1.645748   -1.760889
     24          1           0       -4.885208    3.222838   -1.176301
     25          1           0       -3.368739    3.084690   -2.060822
     26          1           0       -3.179376    4.590470    1.252291
     27          1           0       -1.788853    3.706879    1.877807
     28          1           0       -1.745012    4.393871    0.246230
     29          6           0       -4.201203    1.445449    1.559688
     30          1           0       -4.666571    0.551419    1.141482
     31          1           0       -3.628255    1.151402    2.441547
     32          1           0       -5.000156    2.114853    1.886527
     33          6           0        1.374932    3.630672   -1.193514
     34          1           0        1.078496    3.147352   -2.127359
     35          1           0        0.481864    3.748649   -0.577994
     36          1           0        1.754619    4.626300   -1.434033
     37          6           0        3.043296   -2.474885    1.954339
     38          1           0        2.863432   -1.537559    2.485233
     39          1           0        2.113672   -3.047543    1.918466
     40          1           0        3.754059   -3.051955    2.550943
     41         14           0        2.683946    2.627172   -0.294409
     42         14           0        3.750723   -2.169402    0.235393
     43         14           0       -3.109901    2.306945    0.296860
     44          6           0       -5.065612   -2.440318   -0.984571
     45          1           0       -5.647161   -1.605858   -0.586677
     46          1           0       -5.027838   -2.338099   -2.071291
     47          1           0       -5.606803   -3.360755   -0.755192
     48          6           0       -3.366784   -2.600789    1.632739
     49          1           0       -4.038679   -1.858357    2.067272
     50          1           0       -3.715439   -3.588426    1.947035
     51          1           0       -2.375690   -2.439172    2.059503
     52          6           0       -2.297013   -3.854051   -1.007025
     53          1           0       -2.218042   -3.736922   -2.089103
     54          1           0       -1.285770   -3.882355   -0.594150
     55          1           0       -2.753112   -4.828499   -0.811735
     56         14           0       -3.345161   -2.489057   -0.241010
     57          8           0       -2.645535   -0.976193   -0.685832
     58          8           0       -1.737549    1.310137   -0.013760
     59          8           0        2.016707    1.073074    0.053993
     60          8           0        2.578899   -1.319448   -0.700235
     61          7           0       -0.107517   -0.411831    1.831759
     62          1           0        0.500553   -0.955442    2.430255
     63          1           0        0.044336    0.574917    1.996656
 ---------------------------------------------------------------------

 SCF Done:  E(RB3LYP) =  -2716.14454146     A.U. after   14 cycles

      1  P    Isotropic =   104.5858   Anisotropy =   204.9221

      2  P    Isotropic =    90.5835   Anisotropy =   236.5325

      3  C    Isotropic =   106.4216   Anisotropy =    23.6540

      4  C    Isotropic =   180.7627   Anisotropy =     9.6864

      5  C    Isotropic =   182.3605   Anisotropy =    12.5523

      6  C    Isotropic =   182.1545   Anisotropy =    11.0918

      7  C    Isotropic =   182.6191   Anisotropy =    10.3325

      8  C    Isotropic =   182.9112   Anisotropy =    10.3274

      9  C    Isotropic =   181.9062   Anisotropy =    11.0603

     10  H    Isotropic =    29.3388   Anisotropy =     5.4128

     11  H    Isotropic =    31.9660   Anisotropy =    10.0413

     12  H    Isotropic =    31.5208   Anisotropy =     6.9547

     13  H    Isotropic =    31.5456   Anisotropy =     7.4685

     14  H    Isotropic =    32.1079   Anisotropy =     9.9031

     15  H    Isotropic =    31.6754   Anisotropy =     8.0124

     16  H    Isotropic =    31.5393   Anisotropy =     8.1904

     17  H    Isotropic =    31.9894   Anisotropy =    10.0520

     18  H    Isotropic =    31.6161   Anisotropy =     7.3362

     19  H    Isotropic =    31.6177   Anisotropy =     7.4714

     20  H    Isotropic =    32.0567   Anisotropy =    10.0776

     21  H    Isotropic =    31.6329   Anisotropy =     8.7019

     22  H    Isotropic =    31.3499   Anisotropy =     6.7778

     23  H    Isotropic =    31.3509   Anisotropy =     7.6938

     24  H    Isotropic =    32.0880   Anisotropy =     9.8821

     25  H    Isotropic =    31.5368   Anisotropy =     7.9335

     26  H    Isotropic =    32.0561   Anisotropy =    10.0749

     27  H    Isotropic =    31.6278   Anisotropy =     6.5542

     28  H    Isotropic =    31.5241   Anisotropy =     8.1828

     29  C    Isotropic =   180.1464   Anisotropy =    10.5634

     30  H    Isotropic =    31.5326   Anisotropy =     8.4070

     31  H    Isotropic =    31.3818   Anisotropy =     5.6892

     32  H    Isotropic =    31.9981   Anisotropy =    10.1504

     33  C    Isotropic =   182.5418   Anisotropy =    10.4213

     34  H    Isotropic =    31.3455   Anisotropy =     6.2487

     35  H    Isotropic =    31.6573   Anisotropy =    11.2450

     36  H    Isotropic =    32.1456   Anisotropy =     9.8007

     37  C    Isotropic =   181.4944   Anisotropy =     8.7837

     38  H    Isotropic =    31.6860   Anisotropy =     6.1656

     39  H    Isotropic =    31.7189   Anisotropy =     7.0878

     40  H    Isotropic =    31.8635   Anisotropy =    10.1997

     41  Si   Isotropic =   289.9572   Anisotropy =    20.8794

     42  Si   Isotropic =   293.1936   Anisotropy =    24.9403

     43  Si   Isotropic =   292.9050   Anisotropy =    23.0287

     44  C    Isotropic =   182.2623   Anisotropy =    12.2564

     45  H    Isotropic =    31.5830   Anisotropy =     7.3298

     46  H    Isotropic =    31.5052   Anisotropy =     8.0224

     47  H    Isotropic =    32.0264   Anisotropy =    10.0239

     48  C    Isotropic =   181.9066   Anisotropy =     8.4905

     49  H    Isotropic =    31.5527   Anisotropy =     7.3367

     50  H    Isotropic =    32.0439   Anisotropy =    10.1483

     51  H    Isotropic =    31.1521   Anisotropy =     8.4348

     52  C    Isotropic =   181.7473   Anisotropy =    11.1915

     53  H    Isotropic =    31.5356   Anisotropy =     7.6753

     54  H    Isotropic =    31.5613   Anisotropy =     8.5087

     55  H    Isotropic =    32.0493   Anisotropy =     9.7786

     56  Si   Isotropic =   295.8687   Anisotropy =    20.0415

     57  O    Isotropic =   201.7473   Anisotropy =   130.5968

     58  O    Isotropic =   211.3244   Anisotropy =   157.3783

     59  O    Isotropic =   202.9044   Anisotropy =   145.5046

     60  O    Isotropic =   194.7558   Anisotropy =   123.4473

     61  N    Isotropic =   250.0248   Anisotropy =    56.9236

     62  H    Isotropic =    31.4970   Anisotropy =    15.1812

     63  H    Isotropic =    30.8322   Anisotropy =    12.2988

 The electronic state is 1-A.
 Alpha  occ. eigenvalues --  -77.08088 -77.07970 -66.11837 -66.11697 -66.11626
 Alpha  occ. eigenvalues --  -66.11511 -19.10986 -19.10971 -19.10742 -19.10707
 Alpha  occ. eigenvalues --  -14.29481 -10.18197 -10.15467 -10.15148 -10.14961
 Alpha  occ. eigenvalues --  -10.14940 -10.14840 -10.14815 -10.14758 -10.14666
 Alpha  occ. eigenvalues --  -10.14460 -10.14392 -10.14346 -10.14343  -6.55659
 Alpha  occ. eigenvalues --   -6.55568  -5.27561  -5.27385  -5.27322  -5.27192
 Alpha  occ. eigenvalues --   -4.71993  -4.71902  -4.71803  -4.71693  -4.71195
 Alpha  occ. eigenvalues --   -4.71122  -3.63573  -3.63416  -3.63352  -3.63281
 Alpha  occ. eigenvalues --   -3.63262  -3.63222  -3.63093  -3.63084  -3.63034
 Alpha  occ. eigenvalues --   -3.63017  -3.62905  -3.62888  -1.00301  -1.00070
 Alpha  occ. eigenvalues --   -0.96364  -0.96170  -0.87942  -0.72184  -0.71764
 Alpha  occ. eigenvalues --   -0.71540  -0.71343  -0.68891  -0.68619  -0.68506
 Alpha  occ. eigenvalues --   -0.68370  -0.68252  -0.68198  -0.68096  -0.67965
 Alpha  occ. eigenvalues --   -0.67899  -0.59982  -0.57793  -0.52763  -0.52076
 Alpha  occ. eigenvalues --   -0.49497  -0.47154  -0.44408  -0.43810  -0.43132
 Alpha  occ. eigenvalues --   -0.42695  -0.42659  -0.42331  -0.41918  -0.41881
 Alpha  occ. eigenvalues --   -0.41562  -0.41450  -0.41354  -0.41188  -0.40904
 Alpha  occ. eigenvalues --   -0.40832  -0.40644  -0.40266  -0.40123  -0.40078
 Alpha  occ. eigenvalues --   -0.39801  -0.39712  -0.39556  -0.39338  -0.39173
 Alpha  occ. eigenvalues --   -0.39145  -0.38943  -0.38646  -0.38549  -0.38515
 Alpha  occ. eigenvalues --   -0.38248  -0.38214  -0.37334  -0.37129  -0.35351
 Alpha  occ. eigenvalues --   -0.34810  -0.34375  -0.33579  -0.33431  -0.32955
 Alpha  occ. eigenvalues --   -0.30517  -0.30200  -0.30130  -0.29898  -0.29660
 Alpha  occ. eigenvalues --   -0.29429  -0.28711  -0.28459  -0.24231  -0.20389
 Alpha  occ. eigenvalues --   -0.15316
 Alpha virt. eigenvalues --   -0.00176   0.01507   0.01885   0.02251   0.03693
 Alpha virt. eigenvalues --    0.04207   0.04572   0.04822   0.05738   0.05948
 Alpha virt. eigenvalues --    0.06263   0.06432   0.06597   0.06845   0.06939

 Mulliken charges:
               1
     1  P    0.394468
     2  P    0.408150
     3  C   -0.076191
     4  C   -0.458300
     5  C   -0.446998
     6  C   -0.451061
     7  C   -0.460820
     8  C   -0.461321
     9  C   -0.467298
    10  H    0.077155
    11  H    0.115806
    12  H    0.127609
    13  H    0.120403
    14  H    0.108761
    15  H    0.118839
    16  H    0.125702
    17  H    0.111040
    18  H    0.117883
    19  H    0.117705
    20  H    0.114493
    21  H    0.120556
    22  H    0.131184
    23  H    0.132686
    24  H    0.111012
    25  H    0.124018
    26  H    0.114209
    27  H    0.116314
    28  H    0.121994
    29  C   -0.446269
    30  H    0.116815
    31  H    0.126533
    32  H    0.110203
    33  C   -0.456118
    34  H    0.135673
    35  H    0.120478
    36  H    0.110516
    37  C   -0.483898
    38  H    0.116731
    39  H    0.121290
    40  H    0.122613
    41  Si   0.558609
    42  Si   0.537093
    43  Si   0.548452
    44  C   -0.461097
    45  H    0.120928
    46  H    0.124907
    47  H    0.111296
    48  C   -0.442235
    49  H    0.122081
    50  H    0.107875
    51  H    0.136960
    52  C   -0.463622
    53  H    0.129858
    54  H    0.115342
    55  H    0.111269
    56  Si   0.537197
    57  O   -0.412872
    58  O   -0.429180
    59  O   -0.450281
    60  O   -0.408117
    61  N   -0.519444
    62  H    0.203032
    63  H    0.219386
 Sum of Mulliken charges =  -0.00000

 Dipole moment (field-independent basis, Debye):
    X=              0.7367    Y=             -0.2419    Z=              2.5074  Tot=              2.6246
 Quadrupole moment (field-independent basis, Debye-Ang):
   XX=           -180.4980   YY=           -180.5997   ZZ=           -201.0915
   XY=              0.0372   XZ=              2.4897   YZ=             -1.5229

 Summary of Natural Population Analysis:

                                       Natural Population
                Natural  -----------------------------------------------
    Atom  No    Charge         Core      Valence    Rydberg      Total
 -----------------------------------------------------------------------
      P    1    1.33690      9.99864     3.56354    0.10093    13.66310
      P    2    1.37654      9.99864     3.52156    0.10326    13.62346
      C    3   -0.69684      1.99949     4.66022    0.03713     6.69684
      C    4   -1.12344      1.99942     5.10344    0.02058     7.12344
      C    5   -1.11716      1.99942     5.09780    0.01994     7.11716
      C    6   -1.11957      1.99942     5.09955    0.02060     7.11957
      C    7   -1.12609      1.99942     5.10599    0.02068     7.12609
      C    8   -1.12575      1.99942     5.10562    0.02071     7.12575
      C    9   -1.11935      1.99942     5.09970    0.02023     7.11935
      H   10    0.21343      0.00000     0.78452    0.00205     0.78657
      H   11    0.22815      0.00000     0.77111    0.00075     0.77185
      H   12    0.23735      0.00000     0.76181    0.00085     0.76265
      H   13    0.23351      0.00000     0.76541    0.00107     0.76649
      H   14    0.22587      0.00000     0.77338    0.00075     0.77413
      H   15    0.23518      0.00000     0.76401    0.00081     0.76482
      H   16    0.23820      0.00000     0.76104    0.00075     0.76180
      H   17    0.22754      0.00000     0.77158    0.00088     0.77246
      H   18    0.23365      0.00000     0.76535    0.00100     0.76635
      H   19    0.23266      0.00000     0.76643    0.00091     0.76734
      H   20    0.22794      0.00000     0.77135    0.00072     0.77206
      H   21    0.23260      0.00000     0.76650    0.00091     0.76740
      H   22    0.24081      0.00000     0.75829    0.00090     0.75919
      H   23    0.24047      0.00000     0.75872    0.00082     0.75953
      H   24    0.22595      0.00000     0.77332    0.00073     0.77405
      H   25    0.23636      0.00000     0.76282    0.00082     0.76364
      H   26    0.22774      0.00000     0.77150    0.00076     0.77226
      H   27    0.23289      0.00000     0.76620    0.00091     0.76711
      H   28    0.23321      0.00000     0.76575    0.00104     0.76679
      C   29   -1.12465      1.99942     5.10402    0.02121     7.12465
      H   30    0.23289      0.00000     0.76600    0.00111     0.76711
      H   31    0.23886      0.00000     0.75992    0.00122     0.76114
      H   32    0.22528      0.00000     0.77386    0.00086     0.77472
      C   33   -1.12614      1.99942     5.10569    0.02104     7.12614
      H   34    0.24476      0.00000     0.75427    0.00097     0.75524
      H   35    0.23597      0.00000     0.76302    0.00101     0.76403
      H   36    0.22576      0.00000     0.77350    0.00074     0.77424
      C   37   -1.12962      1.99943     5.10877    0.02142     7.12962
      H   38    0.23070      0.00000     0.76714    0.00215     0.76930
      H   39    0.23025      0.00000     0.76885    0.00090     0.76975
      H   40    0.23090      0.00000     0.76828    0.00082     0.76910
     Si   41    1.91476      9.99803     2.05388    0.03332    12.08524
     Si   42    1.89964      9.99801     2.07133    0.03101    12.10036
     Si   43    1.91207      9.99801     2.05749    0.03243    12.08793
      C   44   -1.11948      1.99942     5.10001    0.02006     7.11948
      H   45    0.23324      0.00000     0.76581    0.00095     0.76676
      H   46    0.23751      0.00000     0.76172    0.00078     0.76249
      H   47    0.22758      0.00000     0.77169    0.00072     0.77242
      C   48   -1.12975      1.99941     5.10896    0.02137     7.12975
      H   49    0.23484      0.00000     0.76425    0.00091     0.76516
      H   50    0.22487      0.00000     0.77430    0.00083     0.77513
      H   51    0.24598      0.00000     0.75272    0.00130     0.75402
      C   52   -1.12285      1.99942     5.10309    0.02034     7.12285
      H   53    0.23854      0.00000     0.76066    0.00080     0.76146
      H   54    0.22917      0.00000     0.76981    0.00102     0.77083
      H   55    0.22764      0.00000     0.77161    0.00075     0.77236
     Si   56    1.90580      9.99801     2.06540    0.03079    12.09420
      O   57   -1.16482      1.99976     7.15349    0.01156     9.16482
      O   58   -1.16417      1.99977     7.15128    0.01313     9.16417
      O   59   -1.17208      1.99977     7.15812    0.01420     9.17208
      O   60   -1.15440      1.99977     7.14250    0.01212     9.15440
      N   61   -0.83103      1.99957     5.79874    0.03272     7.83103
      H   62    0.35593      0.00000     0.64195    0.00212     0.64407
      H   63    0.36729      0.00000     0.63080    0.00191     0.63271
 =======================================================================
   * Total *   -0.00000     95.98052   145.27944    0.74003   242.00000

 Normal termination of Gaussian 16 at Fri Jan 24 21:10:56 2025.
