 Gaussian 16, Revision B.01,
 Gaussian 16:  ES64L-G16RevB.01 20-Dec-2017

 --------------------------------------------
 # nmr=giao b3lyp/def2TZVP pop=nbo scfcyc=200
 --------------------------------------------

 --------------
 MS-80 SPE NoRh
 --------------
 Symbolic Z-matrix:
 Charge =  0 Multiplicity = 1

                         Standard orientation:
 ---------------------------------------------------------------------
 Center     Atomic      Atomic             Coordinates (Angstroms)
 Number     Number       Type             X           Y           Z
 ---------------------------------------------------------------------
      1         15           0       -1.958953   -0.433490   -1.579920
      2         15           0        0.788238   -0.103686   -0.966972
      3          7           0       -1.267807   -0.885854    1.117248
      4          7           0       -3.523202   -1.593122    0.387861
      5          7           0       -3.039124    0.784864    0.674869
      6          6           0       -0.743888   -0.936677   -0.239235
      7          1           0       -0.510629   -1.982771   -0.465099
      8          6           0       -3.298441   -1.688948   -1.051055
      9          1           0       -4.231861   -1.498983   -1.583111
     10          1           0       -2.957078   -2.691587   -1.315131
     11          6           0       -2.710341    1.080156   -0.713823
     12          1           0       -2.004758    1.907666   -0.763233
     13          1           0       -3.612030    1.380433   -1.252685
     14          6           0       -2.348126   -1.901808    1.214016
     15          1           0       -2.673173   -1.949681    2.253327
     16          1           0       -1.949526   -2.877916    0.934228
     17          6           0       -4.042194   -0.278022    0.788845
     18          1           0       -4.911305   -0.026691    0.178638
     19          1           0       -4.363411   -0.339953    1.828994
     20          6           0       -1.853796    0.429512    1.468480
     21          1           0       -2.146716    0.386085    2.517896
     22          1           0       -1.100750    1.205883    1.358661
     23          6           0        2.251537   -1.061865   -0.401194
     24          6           0        3.496971   -0.778910   -0.972446
     25          1           0        3.596640    0.005580   -1.713016
     26          6           0        4.624762   -1.487838   -0.578675
     27          1           0        5.585489   -1.260506   -1.024472
     28          6           0        4.520236   -2.487082    0.385487
     29          1           0        5.400283   -3.039498    0.690934
     30          6           0        3.287333   -2.767738    0.961907
     31          1           0        3.203722   -3.533427    1.722519
     32          6           0        2.152916   -2.059156    0.573519
     33          1           0        1.206781   -2.270354    1.052615
     34          6           0        1.051416    1.583729   -0.278569
     35          6           0        1.591273    1.768119    0.999638
     36          1           0        1.868979    0.913977    1.605228
     37          6           0        1.782025    3.051552    1.494946
     38          1           0        2.199108    3.188207    2.484662
     39          6           0        1.446250    4.160154    0.719594
     40          1           0        1.601230    5.158201    1.108715
     41          6           0        0.922318    3.982712   -0.556584
     42          1           0        0.673198    4.842013   -1.165669
     43          6           0        0.730114    2.698789   -1.057055
     44          1           0        0.335282    2.559674   -2.057251
 ---------------------------------------------------------------------

 SCF Done:  E(RB3LYP) =  -1545.82244083     A.U. after   24 cycles

      1  P    Isotropic =   351.5446   Anisotropy =    64.4052

      2  P    Isotropic =   234.0382   Anisotropy =   103.0503

      3  N    Isotropic =   200.3707   Anisotropy =    51.6862

      4  N    Isotropic =   206.2052   Anisotropy =    54.9565

      5  N    Isotropic =   212.7791   Anisotropy =    57.0493

      6  C    Isotropic =   114.5872   Anisotropy =    33.4454

      7  H    Isotropic =    27.1979   Anisotropy =     3.0680

      8  C    Isotropic =   118.5942   Anisotropy =    34.4546

      9  H    Isotropic =    27.8729   Anisotropy =     6.0407

     10  H    Isotropic =    27.8215   Anisotropy =     5.8401

     11  C    Isotropic =   127.7501   Anisotropy =    44.8322

     12  H    Isotropic =    27.8911   Anisotropy =     6.3667

     13  H    Isotropic =    28.2678   Anisotropy =     5.9869

     14  C    Isotropic =    99.3341   Anisotropy =    32.1185

     15  H    Isotropic =    27.2147   Anisotropy =     6.5686

     16  H    Isotropic =    27.2594   Anisotropy =     5.3228

     17  C    Isotropic =   102.8287   Anisotropy =    26.5107

     18  H    Isotropic =    27.5195   Anisotropy =     6.2092

     19  H    Isotropic =    27.4454   Anisotropy =     7.1501

     20  C    Isotropic =   109.8217   Anisotropy =    27.4651

     21  H    Isotropic =    27.9782   Anisotropy =     5.4491

     22  H    Isotropic =    27.9702   Anisotropy =     8.8477

     23  C    Isotropic =    31.4517   Anisotropy =   196.4368

     24  C    Isotropic =    46.9044   Anisotropy =   185.0713

     25  H    Isotropic =    24.5489   Anisotropy =    10.4292

     26  C    Isotropic =    49.5792   Anisotropy =   184.4399

     27  H    Isotropic =    24.4291   Anisotropy =     5.3717

     28  C    Isotropic =    51.7917   Anisotropy =   183.6722

     29  H    Isotropic =    24.4811   Anisotropy =     4.2691

     30  C    Isotropic =    49.8415   Anisotropy =   183.6140

     31  H    Isotropic =    24.3204   Anisotropy =     6.1331

     32  C    Isotropic =    46.8353   Anisotropy =   182.1770

     33  H    Isotropic =    23.7010   Anisotropy =    10.4597

     34  C    Isotropic =    36.8368   Anisotropy =   201.4863

     35  C    Isotropic =    39.0843   Anisotropy =   192.0825

     36  H    Isotropic =    24.1686   Anisotropy =    10.6029

     37  C    Isotropic =    49.5886   Anisotropy =   184.1234

     38  H    Isotropic =    24.4673   Anisotropy =     6.2083

     39  C    Isotropic =    48.2754   Anisotropy =   189.5126

     40  H    Isotropic =    24.3037   Anisotropy =     4.3348

     41  C    Isotropic =    49.9864   Anisotropy =   183.7645

     42  H    Isotropic =    24.2076   Anisotropy =     5.0659

     43  C    Isotropic =    40.8579   Anisotropy =   180.2393

     44  H    Isotropic =    23.4687   Anisotropy =     8.0668

 The electronic state is 1-A.
 Alpha  occ. eigenvalues --  -77.05160 -77.03470 -14.32013 -14.31258 -14.31170
 Alpha  occ. eigenvalues --  -10.22709 -10.22334 -10.22211 -10.21300 -10.19923
 Alpha  occ. eigenvalues --  -10.19904 -10.19011 -10.18586 -10.18575 -10.18411
 Alpha  occ. eigenvalues --  -10.18382 -10.18374 -10.18303 -10.17790 -10.17716
 Alpha  occ. eigenvalues --  -10.17707 -10.17659 -10.17598  -6.53725  -6.52135
 Alpha  occ. eigenvalues --   -4.69880  -4.69839  -4.69372  -4.68260  -4.68209
 Alpha  occ. eigenvalues --   -4.67818  -0.98843  -0.89826  -0.89395  -0.86717
 Alpha  occ. eigenvalues --   -0.85886  -0.77591  -0.75803  -0.75669  -0.75017
 Alpha  occ. eigenvalues --   -0.74845  -0.71102  -0.70726  -0.66048  -0.63796
 Alpha  occ. eigenvalues --   -0.62376  -0.61535  -0.60775  -0.60352  -0.59900
 Alpha  occ. eigenvalues --   -0.56546  -0.54818  -0.52561  -0.50812  -0.49268
 Alpha  occ. eigenvalues --   -0.49085  -0.48558  -0.47347  -0.46397  -0.45979
 Alpha  occ. eigenvalues --   -0.45454  -0.45000  -0.44422  -0.43347  -0.43133
 Alpha  occ. eigenvalues --   -0.42605  -0.41294  -0.39766  -0.39448  -0.39311
 Alpha  occ. eigenvalues --   -0.38045  -0.37747  -0.37580  -0.37288  -0.37159
 Alpha  occ. eigenvalues --   -0.35763  -0.35522  -0.35038  -0.34985  -0.34339
 Alpha  occ. eigenvalues --   -0.32685  -0.32533  -0.27303  -0.26938  -0.26641
 Alpha  occ. eigenvalues --   -0.25970  -0.22340  -0.21399  -0.20454  -0.19516
 Alpha virt. eigenvalues --   -0.03941  -0.02748  -0.02276  -0.01363   0.02012
 Alpha virt. eigenvalues --    0.02567   0.03641   0.04485   0.04779   0.05354
 Alpha virt. eigenvalues --    0.05858   0.06345   0.06526   0.07086   0.07630

 Mulliken charges:
               1
     1  P    0.065612
     2  P    0.102603
     3  N   -0.134702
     4  N   -0.108717
     5  N   -0.123251
     6  C   -0.140462
     7  H    0.109677
     8  C   -0.234269
     9  H    0.116416
    10  H    0.114365
    11  C   -0.241398
    12  H    0.140422
    13  H    0.113022
    14  C   -0.142071
    15  H    0.118146
    16  H    0.121481
    17  C   -0.137218
    18  H    0.118816
    19  H    0.116196
    20  C   -0.177535
    21  H    0.116587
    22  H    0.163521
    23  C    0.051580
    24  C   -0.164892
    25  H    0.108612
    26  C   -0.109539
    27  H    0.108397
    28  C   -0.099078
    29  H    0.108248
    30  C   -0.140497
    31  H    0.106146
    32  C   -0.155265
    33  H    0.146216
    34  C   -0.029319
    35  C   -0.149890
    36  H    0.141736
    37  C   -0.102670
    38  H    0.111888
    39  C   -0.093370
    40  H    0.113644
    41  C   -0.103908
    42  H    0.113130
    43  C   -0.169542
    44  H    0.131130
 Sum of Mulliken charges =  -0.00000

 Dipole moment (field-independent basis, Debye):
    X=              0.0263    Y=              0.6624    Z=              1.6578  Tot=              1.7855
 Quadrupole moment (field-independent basis, Debye-Ang):
   XX=           -145.8887   YY=           -142.5198   ZZ=           -153.7466
   XY=              0.2258   XZ=              2.4160   YZ=             -3.4621

 Summary of Natural Population Analysis:

                                       Natural Population
                Natural  -----------------------------------------------
    Atom  No    Charge         Core      Valence    Rydberg      Total
 -----------------------------------------------------------------------
      P    1    0.66632      9.99874     4.30553    0.02942    14.33368
      P    2    0.82519      9.99799     4.14390    0.03291    14.17481
      N    3   -0.46986      1.99953     5.43833    0.03201     7.46986
      N    4   -0.44997      1.99958     5.42248    0.02791     7.44997
      N    5   -0.44828      1.99958     5.41975    0.02896     7.44828
      C    6   -0.60649      1.99935     4.56795    0.03919     6.60649
      H    7    0.23223      0.00000     0.76464    0.00312     0.76777
      C    8   -0.48511      1.99939     4.46052    0.02520     6.48511
      H    9    0.20779      0.00000     0.79023    0.00199     0.79221
      H   10    0.20698      0.00000     0.79115    0.00187     0.79302
      C   11   -0.49384      1.99938     4.46890    0.02556     6.49384
      H   12    0.21783      0.00000     0.78040    0.00177     0.78217
      H   13    0.21066      0.00000     0.78741    0.00193     0.78934
      C   14   -0.06374      1.99934     4.04379    0.02060     6.06374
      H   15    0.19262      0.00000     0.80513    0.00225     0.80738
      H   16    0.18553      0.00000     0.81201    0.00246     0.81447
      C   17   -0.06324      1.99935     4.04352    0.02038     6.06324
      H   18    0.18598      0.00000     0.81095    0.00307     0.81402
      H   19    0.18969      0.00000     0.80808    0.00223     0.81031
      C   20   -0.07374      1.99933     4.05185    0.02256     6.07374
      H   21    0.19237      0.00000     0.80562    0.00201     0.80763
      H   22    0.20526      0.00000     0.79219    0.00256     0.79474
      C   23   -0.32399      1.99901     4.29294    0.03204     6.32399
      C   24   -0.19801      1.99909     4.17921    0.01972     6.19801
      H   25    0.21082      0.00000     0.78743    0.00175     0.78918
      C   26   -0.19757      1.99919     4.17976    0.01862     6.19757
      H   27    0.20865      0.00000     0.79008    0.00127     0.79135
      C   28   -0.20993      1.99919     4.19140    0.01934     6.20993
      H   29    0.20783      0.00000     0.79099    0.00117     0.79217
      C   30   -0.19929      1.99919     4.18130    0.01881     6.19929
      H   31    0.20708      0.00000     0.79163    0.00129     0.79292
      C   32   -0.21390      1.99908     4.19484    0.01998     6.21390
      H   33    0.21326      0.00000     0.78427    0.00247     0.78674
      C   34   -0.33937      1.99899     4.30639    0.03400     6.33937
      C   35   -0.19424      1.99908     4.17502    0.02014     6.19424
      H   36    0.21786      0.00000     0.77989    0.00225     0.78214
      C   37   -0.20318      1.99919     4.18522    0.01877     6.20318
      H   38    0.20990      0.00000     0.78874    0.00136     0.79010
      C   39   -0.19558      1.99919     4.17735    0.01903     6.19558
      H   40    0.20984      0.00000     0.78899    0.00117     0.79016
      C   41   -0.20638      1.99918     4.18766    0.01954     6.20638
      H   42    0.21114      0.00000     0.78759    0.00126     0.78886
      C   43   -0.19923      1.99910     4.17918    0.02096     6.19923
      H   44    0.22010      0.00000     0.77832    0.00158     0.77990
 =======================================================================
   * Total *   -0.00000     61.98102   117.41251    0.60646   180.00000

 Normal termination of Gaussian 16 at Fri Jan 24 21:02:21 2025.
