 Gaussian 16, Revision B.01,
 Gaussian 16:  ES64L-G16RevB.01 20-Dec-2017

 --------------------------------------------
 # nmr=giao b3lyp/def2TZVP pop=nbo scfcyc=200
 --------------------------------------------

 --------------
 MS-87 SPE NoRh
 --------------
 Symbolic Z-matrix:
 Charge =  0 Multiplicity = 1

                         Standard orientation:
 ---------------------------------------------------------------------
 Center     Atomic      Atomic             Coordinates (Angstroms)
 Number     Number       Type             X           Y           Z
 ---------------------------------------------------------------------
      1         15           0        1.429126    0.060089   -1.136123
      2         15           0       -1.276418    0.260999   -0.974135
      3          6           0        0.101817   -0.632636    0.021880
      4          6           0        5.327412   -1.826393   -1.773555
      5          6           0        3.136349   -3.738869   -0.679138
      6          6           0        3.203150    3.214523    1.465809
      7          6           0        4.496173    2.450560   -1.264865
      8          6           0       -3.229262    3.674770   -1.203898
      9          6           0       -1.960794    3.788341    1.636145
     10          1           0       -0.012835   -1.681610   -0.276555
     11          1           0        6.146134   -2.457842   -1.419816
     12          1           0        5.088626   -2.134434   -2.794076
     13          1           0        5.690736   -0.797749   -1.806824
     14          1           0        3.870508   -4.451313   -0.296091
     15          1           0        2.239046   -3.827474   -0.064813
     16          1           0        2.881611   -4.040204   -1.697295
     17          1           0        3.757899    4.154821    1.521355
     18          1           0        2.264407    3.350759    2.007449
     19          1           0        3.787022    2.451551    1.984483
     20          1           0        5.057802    3.384827   -1.344194
     21          1           0        5.134323    1.726890   -0.753284
     22          1           0        4.318002    2.087868   -2.279301
     23          1           0       -3.732161    3.048874   -1.944513
     24          1           0       -3.907278    4.497184   -0.962463
     25          1           0       -2.337422    4.106750   -1.661609
     26          1           0       -2.634979    4.579243    1.974643
     27          1           0       -1.667445    3.204885    2.511441
     28          1           0       -1.067601    4.265717    1.229692
     29          6           0       -4.319072    1.841051    1.050656
     30          1           0       -4.785129    1.193165    0.305445
     31          1           0       -4.066914    1.231452    1.919719
     32          1           0       -5.063657    2.578304    1.362420
     33          6           0        1.790060    3.982394   -1.201984
     34          1           0        1.534081    3.646357   -2.209177
     35          1           0        0.860460    4.138006   -0.652344
     36          1           0        2.294907    4.947875   -1.287266
     37          6           0        4.182058   -1.401514    1.100706
     38          1           0        4.640136   -0.410746    1.106128
     39          1           0        3.264721   -1.352478    1.689821
     40          1           0        4.870470   -2.087670    1.601363
     41         14           0        2.892730    2.739247   -0.321792
     42         14           0        3.835819   -1.994728   -0.647326
     43         14           0       -2.805249    2.708274    0.354612
     44          6           0       -4.906949   -1.070154   -2.631182
     45          1           0       -5.495452   -0.342228   -2.067592
     46          1           0       -4.469767   -0.556485   -3.489611
     47          1           0       -5.598551   -1.822459   -3.016994
     48          6           0       -4.408125   -2.706809   -0.048257
     49          1           0       -4.980689   -1.989693    0.542298
     50          1           0       -5.093929   -3.492388   -0.373734
     51          1           0       -3.664008   -3.166333    0.604601
     52          6           0       -2.527183   -3.086291   -2.493907
     53          1           0       -1.984104   -2.591541   -3.301544
     54          1           0       -1.795242   -3.570349   -1.843464
     55          1           0       -3.140071   -3.874269   -2.939027
     56         14           0       -3.613091   -1.884015   -1.535695
     57          8           0       -2.619804   -0.635943   -0.900008
     58          8           0       -1.620851    1.529429   -0.043925
     59          8           0        2.043121    1.246077   -0.220724
     60          8           0        2.628587   -0.984129   -1.355934
     61          7           0        0.269518   -0.507071    1.420948
     62          1           0        0.543362    0.430783    1.685318
     63         14           0       -0.354194   -1.550714    2.720470
     64          6           0        0.743054   -1.219075    4.216214
     65          1           0        0.388562   -1.777529    5.085357
     66          1           0        1.778902   -1.509724    4.030559
     67          1           0        0.735760   -0.160150    4.489292
     68          6           0       -0.225297   -3.342115    2.135043
     69          1           0       -0.591626   -4.010938    2.918020
     70          1           0       -0.825215   -3.537398    1.243281
     71          1           0        0.807600   -3.623593    1.920802
     72          6           0       -2.150130   -1.149176    3.152359
     73          1           0       -2.240641   -0.129013    3.535667
     74          1           0       -2.803289   -1.239545    2.283098
     75          1           0       -2.526515   -1.824991    3.925385
 ---------------------------------------------------------------------

 SCF Done:  E(RB3LYP) =  -3124.91953073     A.U. after   17 cycles

      1  P    Isotropic =   105.0376   Anisotropy =   213.7363

      2  P    Isotropic =    93.4002   Anisotropy =   218.6508

      3  C    Isotropic =   101.8031   Anisotropy =    31.1372

      4  C    Isotropic =   182.1342   Anisotropy =    12.4548

      5  C    Isotropic =   181.9087   Anisotropy =    10.8471

      6  C    Isotropic =   182.0443   Anisotropy =    10.7999

      7  C    Isotropic =   182.0212   Anisotropy =    10.2416

      8  C    Isotropic =   182.9924   Anisotropy =    10.6263

      9  C    Isotropic =   181.9846   Anisotropy =    10.8325

     10  H    Isotropic =    29.3088   Anisotropy =     2.5460

     11  H    Isotropic =    32.0713   Anisotropy =    10.0108

     12  H    Isotropic =    31.5671   Anisotropy =     8.4382

     13  H    Isotropic =    31.6399   Anisotropy =     7.9320

     14  H    Isotropic =    32.0987   Anisotropy =     9.8525

     15  H    Isotropic =    31.5873   Anisotropy =     9.8001

     16  H    Isotropic =    31.6513   Anisotropy =     7.9603

     17  H    Isotropic =    32.0017   Anisotropy =    10.3942

     18  H    Isotropic =    31.6183   Anisotropy =     7.3878

     19  H    Isotropic =    31.5882   Anisotropy =     6.8549

     20  H    Isotropic =    31.9928   Anisotropy =    10.3700

     21  H    Isotropic =    31.6203   Anisotropy =     7.3450

     22  H    Isotropic =    31.3748   Anisotropy =     6.5754

     23  H    Isotropic =    31.4744   Anisotropy =     7.7253

     24  H    Isotropic =    32.0868   Anisotropy =     9.9635

     25  H    Isotropic =    31.5567   Anisotropy =     8.0300

     26  H    Isotropic =    32.0399   Anisotropy =    10.3345

     27  H    Isotropic =    31.5689   Anisotropy =     6.5230

     28  H    Isotropic =    31.5864   Anisotropy =     8.3539

     29  C    Isotropic =   180.5104   Anisotropy =     9.7012

     30  H    Isotropic =    31.5196   Anisotropy =     8.0119

     31  H    Isotropic =    31.4203   Anisotropy =     7.5234

     32  H    Isotropic =    32.0299   Anisotropy =    10.3592

     33  C    Isotropic =   182.9973   Anisotropy =    10.2700

     34  H    Isotropic =    31.3369   Anisotropy =     6.5930

     35  H    Isotropic =    31.7186   Anisotropy =     9.8881

     36  H    Isotropic =    32.0990   Anisotropy =    10.1297

     37  C    Isotropic =   181.1875   Anisotropy =     7.7283

     38  H    Isotropic =    31.6118   Anisotropy =     7.1535

     39  H    Isotropic =    31.1081   Anisotropy =    10.3902

     40  H    Isotropic =    31.9558   Anisotropy =     9.9107

     41  Si   Isotropic =   291.7944   Anisotropy =    22.0803

     42  Si   Isotropic =   292.3651   Anisotropy =    19.1037

     43  Si   Isotropic =   293.7758   Anisotropy =    24.3531

     44  C    Isotropic =   182.4650   Anisotropy =    11.6956

     45  H    Isotropic =    31.6079   Anisotropy =     7.0710

     46  H    Isotropic =    31.4343   Anisotropy =     7.5560

     47  H    Isotropic =    32.0681   Anisotropy =    10.2885

     48  C    Isotropic =   180.6468   Anisotropy =     9.7494

     49  H    Isotropic =    31.5992   Anisotropy =     6.1816

     50  H    Isotropic =    32.0443   Anisotropy =    10.3881

     51  H    Isotropic =    31.6392   Anisotropy =     7.8849

     52  C    Isotropic =   182.1429   Anisotropy =    10.2306

     53  H    Isotropic =    31.3844   Anisotropy =     7.1519

     54  H    Isotropic =    31.6108   Anisotropy =     7.6200

     55  H    Isotropic =    31.9941   Anisotropy =    10.2404

     56  Si   Isotropic =   297.6896   Anisotropy =    20.3513

     57  O    Isotropic =   199.6638   Anisotropy =   135.2981

     58  O    Isotropic =   209.0221   Anisotropy =   148.9389

     59  O    Isotropic =   204.3722   Anisotropy =   152.4223

     60  O    Isotropic =   195.9760   Anisotropy =   127.7303

     61  N    Isotropic =   231.9638   Anisotropy =    49.8542

     62  H    Isotropic =    31.1048   Anisotropy =    11.8387

     63  Si   Isotropic =   309.1060   Anisotropy =    34.7373

     64  C    Isotropic =   183.8549   Anisotropy =    10.8917

     65  H    Isotropic =    31.9750   Anisotropy =    10.5550

     66  H    Isotropic =    31.7426   Anisotropy =     8.3154

     67  H    Isotropic =    31.7436   Anisotropy =     6.9348

     68  C    Isotropic =   185.9749   Anisotropy =    14.3331

     69  H    Isotropic =    31.9938   Anisotropy =     9.8474

     70  H    Isotropic =    31.4431   Anisotropy =     7.5601

     71  H    Isotropic =    31.8968   Anisotropy =     9.8239

     72  C    Isotropic =   178.7604   Anisotropy =    10.4386

     73  H    Isotropic =    31.8406   Anisotropy =     6.4695

     74  H    Isotropic =    31.5541   Anisotropy =     8.7676

     75  H    Isotropic =    31.9273   Anisotropy =     9.8506

 The electronic state is 1-A.
 Alpha  occ. eigenvalues --  -77.08096 -77.07856 -66.11921 -66.11707 -66.11624
 Alpha  occ. eigenvalues --  -66.11382 -66.09690 -19.10812 -19.10776 -19.10673
 Alpha  occ. eigenvalues --  -19.10583 -14.27961 -10.18157 -10.14877 -10.14874
 Alpha  occ. eigenvalues --  -10.14858 -10.14848 -10.14811 -10.14791 -10.14703
 Alpha  occ. eigenvalues --  -10.14670 -10.14636 -10.14578 -10.14526 -10.14501
 Alpha  occ. eigenvalues --  -10.14498 -10.14422 -10.13846  -6.55647  -6.55441
 Alpha  occ. eigenvalues --   -5.27573  -5.27387  -5.27298  -5.27110  -5.25560
 Alpha  occ. eigenvalues --   -4.71989  -4.71777  -4.71774  -4.71569  -4.71201
 Alpha  occ. eigenvalues --   -4.70996  -3.63605  -3.63414  -3.63328  -3.63284
 Alpha  occ. eigenvalues --   -3.63276  -3.63131  -3.63097  -3.63089  -3.63009
 Alpha  occ. eigenvalues --   -3.63000  -3.62816  -3.62814  -3.61454  -3.61347
 Alpha  occ. eigenvalues --   -3.61293  -1.00204  -0.99964  -0.96210  -0.96127
 Alpha  occ. eigenvalues --   -0.86208  -0.72015  -0.71767  -0.71472  -0.71390
 Alpha  occ. eigenvalues --   -0.71091  -0.68426  -0.68414  -0.68381  -0.68309
 Alpha  occ. eigenvalues --   -0.68282  -0.68148  -0.68137  -0.68086  -0.68040
 Alpha  occ. eigenvalues --   -0.67473  -0.67282  -0.60113  -0.57736  -0.52710
 Alpha  occ. eigenvalues --   -0.52069  -0.49276  -0.47810  -0.44177  -0.43735
 Alpha  occ. eigenvalues --   -0.42978  -0.42743  -0.42726  -0.42525  -0.41945
 Alpha  occ. eigenvalues --   -0.41787  -0.41711  -0.41564  -0.41448  -0.41323
 Alpha  occ. eigenvalues --   -0.41210  -0.41060  -0.40912  -0.40694  -0.40475
 Alpha  occ. eigenvalues --   -0.40466  -0.40343  -0.40135  -0.39923  -0.39846
 Alpha  occ. eigenvalues --   -0.39693  -0.39595  -0.39508  -0.39258  -0.39083
 Alpha  occ. eigenvalues --   -0.38966  -0.38891  -0.38738  -0.38679  -0.38577
 Alpha  occ. eigenvalues --   -0.38486  -0.38419  -0.38286  -0.38003  -0.37728
 Alpha  occ. eigenvalues --   -0.37102  -0.35830  -0.34752  -0.34366  -0.34216
 Alpha  occ. eigenvalues --   -0.33673  -0.33306  -0.32861  -0.30528  -0.30491
 Alpha  occ. eigenvalues --   -0.30345  -0.30262  -0.29987  -0.29824  -0.29173
 Alpha  occ. eigenvalues --   -0.29099  -0.28664  -0.28394  -0.22825  -0.20376
 Alpha  occ. eigenvalues --   -0.14783
 Alpha virt. eigenvalues --    0.00104   0.01115   0.01999   0.02196   0.03081
 Alpha virt. eigenvalues --    0.03788   0.04058   0.04468   0.05051   0.05381
 Alpha virt. eigenvalues --    0.05910   0.06271   0.06349   0.06466   0.06753

 Mulliken charges:
               1
     1  P    0.385714
     2  P    0.394775
     3  C   -0.076013
     4  C   -0.457310
     5  C   -0.464973
     6  C   -0.456641
     7  C   -0.460003
     8  C   -0.459814
     9  C   -0.455866
    10  H    0.076159
    11  H    0.108359
    12  H    0.123307
    13  H    0.124818
    14  H    0.110183
    15  H    0.120914
    16  H    0.122145
    17  H    0.111340
    18  H    0.120194
    19  H    0.123446
    20  H    0.116792
    21  H    0.113635
    22  H    0.133381
    23  H    0.123875
    24  H    0.110905
    25  H    0.127071
    26  H    0.111307
    27  H    0.116675
    28  H    0.120672
    29  C   -0.457864
    30  H    0.116748
    31  H    0.128206
    32  H    0.111546
    33  C   -0.457544
    34  H    0.132868
    35  H    0.114727
    36  H    0.111218
    37  C   -0.457056
    38  H    0.113770
    39  H    0.139892
    40  H    0.111984
    41  Si   0.558792
    42  Si   0.549154
    43  Si   0.549789
    44  C   -0.460619
    45  H    0.118898
    46  H    0.128243
    47  H    0.112679
    48  C   -0.460787
    49  H    0.125231
    50  H    0.116204
    51  H    0.124796
    52  C   -0.467426
    53  H    0.135480
    54  H    0.118833
    55  H    0.114311
    56  Si   0.536243
    57  O   -0.419835
    58  O   -0.411136
    59  O   -0.445585
    60  O   -0.411232
    61  N   -0.429910
    62  H    0.196686
    63  Si   0.483312
    64  C   -0.452073
    65  H    0.111020
    66  H    0.122173
    67  H    0.113839
    68  C   -0.480567
    69  H    0.119551
    70  H    0.119287
    71  H    0.118862
    72  C   -0.457916
    73  H    0.106199
    74  H    0.137541
    75  H    0.106419
 Sum of Mulliken charges =  -0.00000

 Dipole moment (field-independent basis, Debye):
    X=             -0.2100    Y=             -0.1908    Z=              1.6969  Tot=              1.7204
 Quadrupole moment (field-independent basis, Debye-Ang):
   XX=           -214.6766   YY=           -216.0662   ZZ=           -234.2421
   XY=              1.6472   XZ=              2.7682   YZ=              2.8596

 Summary of Natural Population Analysis:

                                       Natural Population
                Natural  -----------------------------------------------
    Atom  No    Charge         Core      Valence    Rydberg      Total
 -----------------------------------------------------------------------
      P    1    1.35833      9.99859     3.54068    0.10239    13.64167
      P    2    1.34150      9.99862     3.55735    0.10253    13.65850
      C    3   -0.66948      1.99948     4.62942    0.04058     6.66948
      C    4   -1.11879      1.99942     5.09937    0.01999     7.11879
      C    5   -1.12028      1.99942     5.10071    0.02015     7.12028
      C    6   -1.12031      1.99942     5.10042    0.02047     7.12031
      C    7   -1.12472      1.99942     5.10465    0.02064     7.12472
      C    8   -1.12384      1.99942     5.10365    0.02077     7.12384
      C    9   -1.11733      1.99942     5.09774    0.02017     7.11733
      H   10    0.21616      0.00000     0.78190    0.00193     0.78384
      H   11    0.22621      0.00000     0.77307    0.00072     0.77379
      H   12    0.23700      0.00000     0.76224    0.00076     0.76300
      H   13    0.23453      0.00000     0.76457    0.00090     0.76547
      H   14    0.22633      0.00000     0.77290    0.00077     0.77367
      H   15    0.23190      0.00000     0.76709    0.00102     0.76810
      H   16    0.23583      0.00000     0.76339    0.00078     0.76417
      H   17    0.22707      0.00000     0.77209    0.00085     0.77293
      H   18    0.23407      0.00000     0.76507    0.00087     0.76593
      H   19    0.23498      0.00000     0.76409    0.00094     0.76502
      H   20    0.22811      0.00000     0.77116    0.00073     0.77189
      H   21    0.22922      0.00000     0.76967    0.00111     0.77078
      H   22    0.24076      0.00000     0.75839    0.00085     0.75924
      H   23    0.23596      0.00000     0.76318    0.00085     0.76404
      H   24    0.22609      0.00000     0.77317    0.00073     0.77391
      H   25    0.23705      0.00000     0.76210    0.00086     0.76295
      H   26    0.22680      0.00000     0.77242    0.00079     0.77320
      H   27    0.23313      0.00000     0.76589    0.00098     0.76687
      H   28    0.23188      0.00000     0.76700    0.00111     0.76812
      C   29   -1.12273      1.99942     5.10234    0.02097     7.12273
      H   30    0.23499      0.00000     0.76395    0.00106     0.76501
      H   31    0.23718      0.00000     0.76183    0.00099     0.76282
      H   32    0.22578      0.00000     0.77344    0.00078     0.77422
      C   33   -1.12354      1.99942     5.10325    0.02087     7.12354
      H   34    0.24286      0.00000     0.75619    0.00094     0.75714
      H   35    0.23257      0.00000     0.76627    0.00116     0.76743
      H   36    0.22604      0.00000     0.77323    0.00073     0.77396
      C   37   -1.12872      1.99942     5.10799    0.02131     7.12872
      H   38    0.23140      0.00000     0.76751    0.00109     0.76860
      H   39    0.24477      0.00000     0.75362    0.00160     0.75523
      H   40    0.22556      0.00000     0.77359    0.00085     0.77444
     Si   41    1.91730      9.99803     2.05217    0.03251    12.08270
     Si   42    1.90117      9.99801     2.07046    0.03036    12.09883
     Si   43    1.91338      9.99799     2.05635    0.03228    12.08662
      C   44   -1.12168      1.99942     5.10204    0.02022     7.12168
      H   45    0.23167      0.00000     0.76734    0.00098     0.76833
      H   46    0.23799      0.00000     0.76119    0.00081     0.76201
      H   47    0.22757      0.00000     0.77170    0.00073     0.77243
      C   48   -1.12259      1.99942     5.10235    0.02082     7.12259
      H   49    0.23573      0.00000     0.76336    0.00090     0.76427
      H   50    0.22711      0.00000     0.77204    0.00085     0.77289
      H   51    0.23312      0.00000     0.76594    0.00094     0.76688
      C   52   -1.12607      1.99942     5.10607    0.02058     7.12607
      H   53    0.24120      0.00000     0.75786    0.00093     0.75880
      H   54    0.23090      0.00000     0.76813    0.00097     0.76910
      H   55    0.22862      0.00000     0.77063    0.00075     0.77138
     Si   56    1.91561      9.99797     2.05491    0.03151    12.08439
      O   57   -1.17967      1.99975     7.16822    0.01171     9.17967
      O   58   -1.16446      1.99976     7.15132    0.01338     9.16446
      O   59   -1.17347      1.99976     7.16062    0.01309     9.17347
      O   60   -1.15466      1.99977     7.14280    0.01209     9.15466
      N   61   -1.04436      1.99948     6.01229    0.03259     8.04436
      H   62    0.39314      0.00000     0.60371    0.00316     0.60686
     Si   63    1.79821      9.99808     2.17185    0.03186    12.20179
      C   64   -1.10308      1.99943     5.08390    0.01976     7.10308
      H   65    0.22657      0.00000     0.77263    0.00080     0.77343
      H   66    0.23112      0.00000     0.76788    0.00100     0.76888
      H   67    0.22886      0.00000     0.77033    0.00081     0.77114
      C   68   -1.10747      1.99943     5.08805    0.01999     7.10747
      H   69    0.23009      0.00000     0.76919    0.00072     0.76991
      H   70    0.22767      0.00000     0.77119    0.00114     0.77233
      H   71    0.22890      0.00000     0.77004    0.00106     0.77110
      C   72   -1.11567      1.99943     5.09418    0.02206     7.11567
      H   73    0.22575      0.00000     0.77324    0.00101     0.77425
      H   74    0.23577      0.00000     0.76317    0.00106     0.76423
      H   75    0.22144      0.00000     0.77760    0.00096     0.77856
 =======================================================================
   * Total *    0.00000    111.97661   169.18136    0.84203   282.00000

 Normal termination of Gaussian 16 at Fri Jan 24 21:54:51 2025.
