 Gaussian 16, Revision B.01,
 Gaussian 16:  ES64L-G16RevB.01 20-Dec-2017

 --------------------------------------------
 # nmr=giao b3lyp/def2TZVP pop=nbo scfcyc=200
 --------------------------------------------

 --------------
 MS-92 SPE NoRh
 --------------
 Symbolic Z-matrix:
 Charge =  0 Multiplicity = 1

                         Standard orientation:
 ---------------------------------------------------------------------
 Center     Atomic      Atomic             Coordinates (Angstroms)
 Number     Number       Type             X           Y           Z
 ---------------------------------------------------------------------
      1         15           0        2.353306   -0.917075   -0.033396
      2         15           0        1.578877    1.710373   -0.714193
      3          6           0        0.900898    2.775502   -2.154353
      4          6           0        1.387749    2.148711   -3.468404
      5          6           0       -0.629274    2.839798   -2.138536
      6          6           0        1.465630    4.196359   -1.994556
      7          6           0        0.682929    0.062145   -0.496288
      8          6           0        2.413784   -1.476654    1.822860
      9          6           0       -0.228673    1.353897    1.234768
     10          6           0        0.774178    2.265468    0.830425
     11          6           0        1.115676   -2.110157    2.340263
     12          6           0        2.709859   -0.224607    2.668110
     13          6           0        2.335727   -2.444268   -1.239172
     14          6           0        3.744287   -3.051328   -1.366541
     15          6           0        1.354445   -3.537499   -0.791742
     16          6           0        1.941617   -1.949209   -2.644904
     17          6           0        0.383680    3.633766    2.774997
     18          6           0       -0.892905    1.598264    2.443168
     19          6           0       -0.592429    2.730504    3.190195
     20          6           0        3.568140   -2.476719    2.008412
     21          1           0        0.614117    4.505689    3.373146
     22          1           0       -1.629735    0.904284    2.818217
     23          1           0       -1.118555    2.899214    4.121878
     24          1           0        2.474567    2.058510   -3.505553
     25          1           0        4.198602   -3.311947   -0.413997
     26          1           0        4.414597   -2.385161   -1.905670
     27          1           0        0.380696   -0.364912   -1.442461
     28          1           0        0.962367    1.155246   -3.628004
     29          1           0       -1.010123    3.242815   -1.199384
     30          1           0        1.115372    4.670817   -1.076198
     31          1           0        0.288983   -1.408129    2.303971
     32          1           0        1.899474    0.499841    2.632425
     33          1           0        0.353986   -3.153368   -0.597125
     34          1           0        3.708566   -2.640751    3.080215
     35          1           0        4.516184   -2.114268    1.609550
     36          1           0        1.074089    2.775609   -4.307259
     37          1           0       -1.079823    1.862030   -2.307201
     38          1           0        0.834465   -3.009536    1.797478
     39          1           0        1.269953   -4.281788   -1.588746
     40          1           0        3.355359   -3.447563    1.561706
     41          1           0       -0.967178    3.497372   -2.943447
     42          1           0        1.265555   -2.394932    3.385672
     43          1           0        1.698798   -4.060132    0.099425
     44          1           0        2.152890   -2.746116   -3.362229
     45          1           0        0.879282   -1.722518   -2.738659
     46          1           0        2.517446   -1.072841   -2.948461
     47          1           0        2.555369    4.222674   -2.005291
     48          1           0        1.117946    4.811927   -2.828618
     49          1           0        2.830860   -0.531704    3.710915
     50          1           0        3.624908    0.277728    2.354652
     51          1           0        3.669773   -3.971344   -1.954010
     52          6           0        1.076891    3.386621    1.597378
     53          1           0        1.858153    4.066666    1.283006
     54          7           0       -0.436286    0.241306    0.393899
     55          6           0       -1.824515   -0.331620    0.124769
     56          6           0       -2.898950    0.784522    0.123956
     57          6           0       -1.880403   -1.016673   -1.259662
     58          6           0       -2.198019   -1.398463    1.181218
     59          1           0       -2.655642    1.522444   -0.642855
     60          1           0       -2.913266    1.314468    1.074203
     61          6           0       -4.299868    0.198153   -0.138081
     62          1           0       -1.148724   -1.825493   -1.312621
     63          1           0       -1.638384   -0.298246   -2.049370
     64          6           0       -3.280194   -1.603596   -1.534830
     65          1           0       -2.158034   -0.972549    2.185665
     66          1           0       -1.466349   -2.207660    1.152338
     67          6           0       -3.606127   -1.968037    0.918694
     68          1           0       -5.025508    1.015040   -0.113730
     69          6           0       -4.325225   -0.478642   -1.515976
     70          6           0       -4.640425   -0.831471    0.951688
     71          1           0       -3.263229   -2.078898   -2.518603
     72          6           0       -3.626172   -2.645607   -0.459626
     73          1           0       -3.836187   -2.701904    1.695457
     74          1           0       -4.112021    0.253385   -2.302408
     75          1           0       -5.319123   -0.885844   -1.723225
     76          1           0       -4.645834   -0.352381    1.936522
     77          1           0       -5.644434   -1.232560    0.790377
     78          1           0       -4.612271   -3.073696   -0.658397
     79          1           0       -2.910533   -3.473091   -0.486140
 ---------------------------------------------------------------------

 SCF Done:  E(RB3LYP) =  -1871.30111199     A.U. after   14 cycles

      1  P    Isotropic =   141.2401   Anisotropy =   167.9034

      2  P    Isotropic =   228.5547   Anisotropy =   178.4724

      3  C    Isotropic =   139.9318   Anisotropy =    18.8892

      4  C    Isotropic =   154.1902   Anisotropy =    40.8619

      5  C    Isotropic =   153.3039   Anisotropy =    38.9904

      6  C    Isotropic =   157.5573   Anisotropy =    40.8985

      7  C    Isotropic =   120.8182   Anisotropy =    42.1771

      8  C    Isotropic =   136.1539   Anisotropy =    23.9068

      9  C    Isotropic =    23.5262   Anisotropy =   141.6748

     10  C    Isotropic =    46.3335   Anisotropy =   154.8586

     11  C    Isotropic =   154.4393   Anisotropy =    35.9199

     12  C    Isotropic =   149.7345   Anisotropy =    44.8310

     13  C    Isotropic =   137.6056   Anisotropy =    23.0774

     14  C    Isotropic =   151.4032   Anisotropy =    46.5254

     15  C    Isotropic =   151.2127   Anisotropy =    32.9486

     16  C    Isotropic =   150.2921   Anisotropy =    37.5438

     17  C    Isotropic =    59.9871   Anisotropy =   167.4193

     18  C    Isotropic =    62.1342   Anisotropy =   154.5323

     19  C    Isotropic =    50.9489   Anisotropy =   179.4819

     20  C    Isotropic =   150.7413   Anisotropy =    40.1964

     21  H    Isotropic =    24.8739   Anisotropy =     3.6460

     22  H    Isotropic =    24.6993   Anisotropy =    10.0697

     23  H    Isotropic =    24.5480   Anisotropy =     5.5868

     24  H    Isotropic =    30.5051   Anisotropy =     7.5453

     25  H    Isotropic =    30.4956   Anisotropy =     7.1450

     26  H    Isotropic =    30.8644   Anisotropy =     8.9022

     27  H    Isotropic =    26.6122   Anisotropy =     5.5772

     28  H    Isotropic =    30.8572   Anisotropy =     6.3164

     29  H    Isotropic =    31.2405   Anisotropy =     3.6315

     30  H    Isotropic =    30.9022   Anisotropy =     7.8564

     31  H    Isotropic =    30.0742   Anisotropy =    10.2181

     32  H    Isotropic =    32.1035   Anisotropy =    14.5442

     33  H    Isotropic =    30.0507   Anisotropy =     8.2678

     34  H    Isotropic =    31.4478   Anisotropy =     9.6782

     35  H    Isotropic =    30.7831   Anisotropy =     8.1751

     36  H    Isotropic =    31.1560   Anisotropy =     9.7077

     37  H    Isotropic =    30.9804   Anisotropy =     9.1131

     38  H    Isotropic =    30.5069   Anisotropy =     4.3864

     39  H    Isotropic =    30.8791   Anisotropy =     8.8468

     40  H    Isotropic =    30.8295   Anisotropy =     7.0129

     41  H    Isotropic =    31.2848   Anisotropy =     9.4856

     42  H    Isotropic =    31.3565   Anisotropy =     8.4912

     43  H    Isotropic =    30.2124   Anisotropy =     5.2374

     44  H    Isotropic =    31.1124   Anisotropy =     8.2769

     45  H    Isotropic =    30.3526   Anisotropy =     6.2648

     46  H    Isotropic =    30.4545   Anisotropy =     7.5786

     47  H    Isotropic =    30.8014   Anisotropy =     9.2869

     48  H    Isotropic =    31.5358   Anisotropy =    10.2627

     49  H    Isotropic =    31.9464   Anisotropy =     8.4759

     50  H    Isotropic =    31.1185   Anisotropy =     6.7777

     51  H    Isotropic =    31.3594   Anisotropy =     9.7110

     52  C    Isotropic =    45.5583   Anisotropy =   180.8835

     53  H    Isotropic =    24.1885   Anisotropy =     7.8953

     54  N    Isotropic =   142.5766   Anisotropy =   108.0908

     55  C    Isotropic =   115.8481   Anisotropy =    60.0442

     56  C    Isotropic =   141.7055   Anisotropy =    19.0985

     57  C    Isotropic =   135.5085   Anisotropy =     6.7751

     58  C    Isotropic =   134.8230   Anisotropy =    13.3529

     59  H    Isotropic =    30.6768   Anisotropy =     7.3172

     60  H    Isotropic =    29.0264   Anisotropy =     8.5638

     61  C    Isotropic =   146.1332   Anisotropy =     9.5730

     62  H    Isotropic =    29.2702   Anisotropy =     8.9472

     63  H    Isotropic =    29.7402   Anisotropy =     6.4395

     64  C    Isotropic =   145.7826   Anisotropy =     9.1751

     65  H    Isotropic =    29.4136   Anisotropy =     4.5603

     66  H    Isotropic =    29.5117   Anisotropy =     7.6966

     67  C    Isotropic =   146.2326   Anisotropy =     9.7960

     68  H    Isotropic =    29.9118   Anisotropy =    10.3049

     69  C    Isotropic =   141.9241   Anisotropy =     7.0261

     70  C    Isotropic =   142.6195   Anisotropy =     6.1435

     71  H    Isotropic =    29.6802   Anisotropy =     9.3709

     72  C    Isotropic =   142.5420   Anisotropy =     8.2743

     73  H    Isotropic =    29.8355   Anisotropy =    10.0974

     74  H    Isotropic =    30.2158   Anisotropy =     7.9185

     75  H    Isotropic =    30.1915   Anisotropy =     9.7955

     76  H    Isotropic =    30.1160   Anisotropy =     8.8254

     77  H    Isotropic =    30.2225   Anisotropy =     9.9568

     78  H    Isotropic =    30.1848   Anisotropy =     9.6284

     79  H    Isotropic =    30.0941   Anisotropy =     7.3353

 The electronic state is 1-A.
 Alpha  occ. eigenvalues --  -77.03134 -77.03091 -14.33186 -10.22594 -10.21048
 Alpha  occ. eigenvalues --  -10.20942 -10.19014 -10.18660 -10.18429 -10.17936
 Alpha  occ. eigenvalues --  -10.17598 -10.17582 -10.17559 -10.17190 -10.17158
 Alpha  occ. eigenvalues --  -10.16803 -10.16781 -10.16770 -10.16704 -10.16682
 Alpha  occ. eigenvalues --  -10.16668 -10.16473 -10.16393 -10.16320 -10.16078
 Alpha  occ. eigenvalues --  -10.16008 -10.15872 -10.15760 -10.15646 -10.15616
 Alpha  occ. eigenvalues --  -10.14898 -10.14740  -6.51691  -6.51602  -4.67842
 Alpha  occ. eigenvalues --   -4.67779  -4.67772  -4.67685  -4.67337  -4.67230
 Alpha  occ. eigenvalues --   -0.94612  -0.87734  -0.84237  -0.81501  -0.81022
 Alpha  occ. eigenvalues --   -0.79994  -0.78015  -0.77891  -0.77694  -0.74967
 Alpha  occ. eigenvalues --   -0.73101  -0.69884  -0.69102  -0.68784  -0.68727
 Alpha  occ. eigenvalues --   -0.68501  -0.68052  -0.67765  -0.67539  -0.67457
 Alpha  occ. eigenvalues --   -0.62205  -0.61079  -0.59984  -0.59341  -0.59153
 Alpha  occ. eigenvalues --   -0.57548  -0.56240  -0.54471  -0.53498  -0.53178
 Alpha  occ. eigenvalues --   -0.50851  -0.49432  -0.48136  -0.46877  -0.46624
 Alpha  occ. eigenvalues --   -0.46548  -0.46083  -0.45907  -0.45307  -0.44876
 Alpha  occ. eigenvalues --   -0.44327  -0.44156  -0.43863  -0.43736  -0.43596
 Alpha  occ. eigenvalues --   -0.42929  -0.42603  -0.42530  -0.41903  -0.41684
 Alpha  occ. eigenvalues --   -0.41440  -0.40979  -0.40218  -0.39874  -0.39502
 Alpha  occ. eigenvalues --   -0.39268  -0.39059  -0.38556  -0.38147  -0.37786
 Alpha  occ. eigenvalues --   -0.37664  -0.37474  -0.36849  -0.36714  -0.36224
 Alpha  occ. eigenvalues --   -0.35961  -0.34999  -0.34875  -0.34063  -0.33963
 Alpha  occ. eigenvalues --   -0.33779  -0.33711  -0.33596  -0.33540  -0.33279
 Alpha  occ. eigenvalues --   -0.33094  -0.32529  -0.32336  -0.32135  -0.30684
 Alpha  occ. eigenvalues --   -0.30069  -0.29231  -0.29051  -0.28045  -0.26496
 Alpha  occ. eigenvalues --   -0.25921  -0.22277  -0.18909  -0.17353
 Alpha virt. eigenvalues --   -0.02188  -0.00387   0.00840   0.02051   0.02970
 Alpha virt. eigenvalues --    0.03334   0.04033   0.04560   0.04835   0.05009
 Alpha virt. eigenvalues --    0.05330   0.05777   0.05956   0.06232   0.06953

 Mulliken charges:
               1
     1  P    0.052963
     2  P    0.057675
     3  C    0.122976
     4  C   -0.384056
     5  C   -0.382671
     6  C   -0.383923
     7  C   -0.118299
     8  C    0.139172
     9  C    0.104825
    10  C   -0.069762
    11  C   -0.379566
    12  C   -0.395174
    13  C    0.131293
    14  C   -0.363427
    15  C   -0.386383
    16  C   -0.431752
    17  C   -0.162470
    18  C   -0.326769
    19  C   -0.063356
    20  C   -0.397920
    21  H    0.099563
    22  H    0.102042
    23  H    0.102094
    24  H    0.125697
    25  H    0.122502
    26  H    0.117123
    27  H    0.078692
    28  H    0.112098
    29  H    0.135810
    30  H    0.119486
    31  H    0.149172
    32  H    0.165781
    33  H    0.115192
    34  H    0.109120
    35  H    0.129528
    36  H    0.106781
    37  H    0.092685
    38  H    0.103369
    39  H    0.101000
    40  H    0.107859
    41  H    0.098542
    42  H    0.091151
    43  H    0.115069
    44  H    0.111864
    45  H    0.123016
    46  H    0.140200
    47  H    0.121061
    48  H    0.105673
    49  H    0.096618
    50  H    0.115556
    51  H    0.102586
    52  C   -0.107636
    53  H    0.116440
    54  N    0.018915
    55  C    0.253611
    56  C   -0.324000
    57  C   -0.389957
    58  C   -0.371678
    59  H    0.116327
    60  H    0.115302
    61  C    0.102643
    62  H    0.097949
    63  H    0.109214
    64  C    0.114149
    65  H    0.103895
    66  H    0.115435
    67  C    0.123763
    68  H    0.057993
    69  C   -0.249802
    70  C   -0.254779
    71  H    0.058266
    72  C   -0.255987
    73  H    0.058046
    74  H    0.083396
    75  H    0.086742
    76  H    0.080320
    77  H    0.088244
    78  H    0.087815
    79  H    0.085069
 Sum of Mulliken charges =  -0.00000

 Dipole moment (field-independent basis, Debye):
    X=             -2.8861    Y=             -1.3671    Z=             -0.7247  Tot=              3.2747
 Quadrupole moment (field-independent basis, Debye-Ang):
   XX=           -220.3829   YY=           -214.9420   ZZ=           -213.7165
   XY=             -0.3251   XZ=             -0.7597   YZ=              0.5965

 Summary of Natural Population Analysis:

                                       Natural Population
                Natural  -----------------------------------------------
    Atom  No    Charge         Core      Valence    Rydberg      Total
 -----------------------------------------------------------------------
      P    1    0.73395      9.99844     4.23957    0.02803    14.26605
      P    2    0.80736      9.99818     4.16232    0.03214    14.19264
      C    3   -0.27743      1.99946     4.25346    0.02452     6.27743
      C    4   -0.60200      1.99937     4.59068    0.01195     6.60200
      C    5   -0.60164      1.99937     4.58908    0.01319     6.60164
      C    6   -0.60321      1.99936     4.59170    0.01214     6.60321
      C    7   -0.54118      1.99929     4.50773    0.03416     6.54118
      C    8   -0.26705      1.99943     4.24322    0.02440     6.26705
      C    9    0.16804      1.99882     3.81074    0.02240     5.83196
      C   10   -0.38040      1.99895     4.34921    0.03224     6.38040
      C   11   -0.60780      1.99935     4.59511    0.01334     6.60780
      C   12   -0.60328      1.99936     4.59107    0.01285     6.60328
      C   13   -0.26354      1.99944     4.23975    0.02435     6.26354
      C   14   -0.60166      1.99936     4.58952    0.01278     6.60166
      C   15   -0.60516      1.99935     4.59306    0.01274     6.60516
      C   16   -0.60445      1.99937     4.59240    0.01269     6.60445
      C   17   -0.24000      1.99918     4.22134    0.01948     6.24000
      C   18   -0.26206      1.99904     4.24356    0.01946     6.26206
      C   19   -0.18784      1.99920     4.17024    0.01841     6.18784
      C   20   -0.60255      1.99937     4.59104    0.01214     6.60255
      H   21    0.20819      0.00000     0.79062    0.00120     0.79181
      H   22    0.20455      0.00000     0.79343    0.00202     0.79545
      H   23    0.20615      0.00000     0.79265    0.00120     0.79385
      H   24    0.21327      0.00000     0.78535    0.00138     0.78673
      H   25    0.20908      0.00000     0.78966    0.00126     0.79092
      H   26    0.21061      0.00000     0.78809    0.00130     0.78939
      H   27    0.23571      0.00000     0.76046    0.00383     0.76429
      H   28    0.19981      0.00000     0.79901    0.00118     0.80019
      H   29    0.21042      0.00000     0.78806    0.00152     0.78958
      H   30    0.20906      0.00000     0.78969    0.00125     0.79094
      H   31    0.21303      0.00000     0.78529    0.00169     0.78697
      H   32    0.21618      0.00000     0.78225    0.00157     0.78382
      H   33    0.19587      0.00000     0.80250    0.00163     0.80413
      H   34    0.20358      0.00000     0.79418    0.00224     0.79642
      H   35    0.21130      0.00000     0.78708    0.00162     0.78870
      H   36    0.20275      0.00000     0.79518    0.00207     0.79725
      H   37    0.19218      0.00000     0.80583    0.00199     0.80782
      H   38    0.19893      0.00000     0.79962    0.00145     0.80107
      H   39    0.19407      0.00000     0.80343    0.00249     0.80593
      H   40    0.19806      0.00000     0.80040    0.00154     0.80194
      H   41    0.19403      0.00000     0.80340    0.00256     0.80597
      H   42    0.19294      0.00000     0.80467    0.00238     0.80706
      H   43    0.20211      0.00000     0.79632    0.00158     0.79789
      H   44    0.20575      0.00000     0.79209    0.00216     0.79425
      H   45    0.19374      0.00000     0.80510    0.00116     0.80626
      H   46    0.21489      0.00000     0.78359    0.00152     0.78511
      H   47    0.21145      0.00000     0.78711    0.00144     0.78855
      H   48    0.20251      0.00000     0.79535    0.00214     0.79749
      H   49    0.19766      0.00000     0.80024    0.00210     0.80234
      H   50    0.21338      0.00000     0.78528    0.00134     0.78662
      H   51    0.19707      0.00000     0.80081    0.00212     0.80293
      C   52   -0.18236      1.99908     4.16317    0.02011     6.18236
      H   53    0.20842      0.00000     0.78959    0.00200     0.79158
      N   54   -0.46782      1.99934     5.43137    0.03711     7.46782
      C   55    0.19576      1.99920     3.78272    0.02233     5.80424
      C   56   -0.41883      1.99927     4.40404    0.01552     6.41883
      C   57   -0.41349      1.99929     4.39856    0.01564     6.41349
      C   58   -0.41002      1.99927     4.39488    0.01586     6.41002
      H   59    0.20929      0.00000     0.78908    0.00162     0.79071
      H   60    0.21389      0.00000     0.78418    0.00193     0.78611
      C   61   -0.20624      1.99939     4.19006    0.01680     6.20624
      H   62    0.20400      0.00000     0.79360    0.00239     0.79600
      H   63    0.20237      0.00000     0.79570    0.00192     0.79763
      C   64   -0.20188      1.99938     4.18651    0.01599     6.20188
      H   65    0.19977      0.00000     0.79855    0.00168     0.80023
      H   66    0.20675      0.00000     0.79096    0.00230     0.79325
      C   67   -0.21002      1.99939     4.19375    0.01688     6.21002
      H   68    0.20791      0.00000     0.79033    0.00176     0.79209
      C   69   -0.38823      1.99936     4.37479    0.01408     6.38823
      C   70   -0.38835      1.99936     4.37465    0.01434     6.38835
      H   71    0.20343      0.00000     0.79504    0.00154     0.79657
      C   72   -0.38800      1.99936     4.37459    0.01405     6.38800
      H   73    0.20735      0.00000     0.79087    0.00178     0.79265
      H   74    0.19964      0.00000     0.79892    0.00145     0.80036
      H   75    0.20050      0.00000     0.79783    0.00167     0.79950
      H   76    0.19909      0.00000     0.79946    0.00145     0.80091
      H   77    0.20032      0.00000     0.79803    0.00165     0.79968
      H   78    0.20099      0.00000     0.79734    0.00166     0.79901
      H   79    0.19938      0.00000     0.79913    0.00149     0.80062
 =======================================================================
   * Total *   -0.00000     79.97539   177.32925    0.69536   258.00000

 Normal termination of Gaussian 16 at Fri Jan 24 22:51:32 2025.
