 Gaussian 16, Revision B.01,
 Gaussian 16:  ES64L-G16RevB.01 20-Dec-2017

 --------------------------------------------
 # nmr=giao b3lyp/def2TZVP pop=nbo scfcyc=200
 --------------------------------------------

 -------------
 MS-9 SPE NoRh
 -------------
 Symbolic Z-matrix:
 Charge =  0 Multiplicity = 1

                         Standard orientation:
 ---------------------------------------------------------------------
 Center     Atomic      Atomic             Coordinates (Angstroms)
 Number     Number       Type             X           Y           Z
 ---------------------------------------------------------------------
      1         15           0       -0.991802    0.025173   -0.645560
      2         15           0        1.391479   -1.426263   -0.701731
      3          6           0        0.110052   -0.899524    0.591466
      4          1           0        0.501287   -0.191781    1.319239
      5          6           0       -0.387469   -2.193647    1.268823
      6          1           0        0.141315   -2.294825    2.220413
      7          1           0       -1.450862   -2.144663    1.506664
      8          6           0       -0.063317   -3.410419    0.383038
      9          1           0       -0.785630   -3.488835   -0.432881
     10          1           0       -0.128328   -4.337356    0.954459
     11          6           0        1.345460   -3.220506   -0.196068
     12          1           0        1.550616   -3.874469   -1.042353
     13          1           0        2.111190   -3.400910    0.560081
     14          6           0        3.035056   -0.721480   -0.291006
     15          6           0        3.585158    0.237844   -1.145438
     16          6           0        3.732774   -1.089888    0.865630
     17          6           0        4.816525    0.815352   -0.853209
     18          1           0        3.045943    0.536505   -2.034686
     19          6           0        4.963302   -0.511172    1.152306
     20          1           0        3.326533   -1.824015    1.549585
     21          6           0        5.506688    0.439518    0.293589
     22          1           0        5.236159    1.556626   -1.522146
     23          1           0        5.497195   -0.803397    2.047899
     24          1           0        6.467282    0.886770    0.519328
     25          6           0       -2.769870   -0.333906   -0.311826
     26          6           0       -3.634494    0.598112    0.268978
     27          6           0       -3.276360   -1.583444   -0.692158
     28          6           0       -4.971923    0.276500    0.481841
     29          1           0       -3.276233    1.578463    0.549775
     30          6           0       -4.609141   -1.904353   -0.468859
     31          1           0       -2.629683   -2.306295   -1.174945
     32          6           0       -5.461012   -0.973106    0.120116
     33          1           0       -5.631616    1.008990    0.929434
     34          1           0       -4.986158   -2.875907   -0.762018
     35          1           0       -6.501058   -1.218888    0.288178
     36          6           0       -0.715556    1.792233   -0.196989
     37          6           0       -0.416454    2.723353   -1.193967
     38          6           0       -0.788702    2.219807    1.134046
     39          6           0       -0.204793    4.060084   -0.870269
     40          1           0       -0.334039    2.403322   -2.224084
     41          6           0       -0.576930    3.554926    1.455216
     42          1           0       -1.014975    1.518009    1.927510
     43          6           0       -0.286504    4.477684    0.452508
     44          1           0        0.027891    4.772283   -1.651094
     45          1           0       -0.637438    3.875564    2.488280
     46          1           0       -0.119492    5.517338    0.706108
 ---------------------------------------------------------------------

 SCF Done:  E(RB3LYP) =  -1534.63349841     A.U. after   14 cycles

      1  P    Isotropic =   229.2067   Anisotropy =   149.9577

      2  P    Isotropic =   225.1372   Anisotropy =   155.1672

      3  C    Isotropic =   132.4477   Anisotropy =    16.3375

      4  H    Isotropic =    29.3360   Anisotropy =     5.3436

      5  C    Isotropic =   148.2855   Anisotropy =    28.1540

      6  H    Isotropic =    29.8081   Anisotropy =     9.9043

      7  H    Isotropic =    29.8483   Anisotropy =     6.6827

      8  C    Isotropic =   150.4364   Anisotropy =    23.9141

      9  H    Isotropic =    29.5948   Anisotropy =     8.6920

     10  H    Isotropic =    29.6814   Anisotropy =    10.9972

     11  C    Isotropic =   148.5655   Anisotropy =    29.6209

     12  H    Isotropic =    29.4338   Anisotropy =     9.2484

     13  H    Isotropic =    29.5064   Anisotropy =     8.7656

     14  C    Isotropic =    35.6126   Anisotropy =   208.6194

     15  C    Isotropic =    40.3863   Anisotropy =   180.8196

     16  C    Isotropic =    45.9930   Anisotropy =   186.7467

     17  C    Isotropic =    50.2360   Anisotropy =   183.1413

     18  H    Isotropic =    23.9141   Anisotropy =     8.4832

     19  C    Isotropic =    50.0611   Anisotropy =   183.1704

     20  H    Isotropic =    24.0205   Anisotropy =    11.6004

     21  C    Isotropic =    49.0854   Anisotropy =   187.4810

     22  H    Isotropic =    24.4735   Anisotropy =     5.7216

     23  H    Isotropic =    24.4618   Anisotropy =     5.8028

     24  H    Isotropic =    24.4605   Anisotropy =     4.3966

     25  C    Isotropic =    35.4594   Anisotropy =   199.3211

     26  C    Isotropic =    47.8309   Anisotropy =   185.3358

     27  C    Isotropic =    44.5531   Anisotropy =   182.7638

     28  C    Isotropic =    49.7332   Anisotropy =   183.3658

     29  H    Isotropic =    24.8251   Anisotropy =    13.3313

     30  C    Isotropic =    50.7154   Anisotropy =   181.9196

     31  H    Isotropic =    24.0443   Anisotropy =     9.9180

     32  C    Isotropic =    51.9389   Anisotropy =   182.7477

     33  H    Isotropic =    24.5459   Anisotropy =     6.6240

     34  H    Isotropic =    24.3002   Anisotropy =     5.9722

     35  H    Isotropic =    24.5375   Anisotropy =     4.2740

     36  C    Isotropic =    36.1035   Anisotropy =   206.4854

     37  C    Isotropic =    40.8119   Anisotropy =   180.6733

     38  C    Isotropic =    38.7108   Anisotropy =   189.6190

     39  C    Isotropic =    49.8893   Anisotropy =   184.2713

     40  H    Isotropic =    23.7692   Anisotropy =     8.3671

     41  C    Isotropic =    48.9997   Anisotropy =   184.9559

     42  H    Isotropic =    23.9109   Anisotropy =    10.6398

     43  C    Isotropic =    48.6735   Anisotropy =   188.9028

     44  H    Isotropic =    24.2797   Anisotropy =     5.1418

     45  H    Isotropic =    24.2951   Anisotropy =     5.7750

     46  H    Isotropic =    24.3374   Anisotropy =     4.1030

 The electronic state is 1-A.
 Alpha  occ. eigenvalues --  -77.04143 -77.03464 -10.18417 -10.18383 -10.18209
 Alpha  occ. eigenvalues --  -10.18185 -10.18082 -10.18076 -10.18043 -10.18037
 Alpha  occ. eigenvalues --  -10.18014 -10.18005 -10.17959 -10.17866 -10.17837
 Alpha  occ. eigenvalues --  -10.17822 -10.17792 -10.17645 -10.17572 -10.17550
 Alpha  occ. eigenvalues --  -10.17432 -10.17375 -10.17269 -10.17027  -6.52710
 Alpha  occ. eigenvalues --   -6.52108  -4.68849  -4.68840  -4.68337  -4.68261
 Alpha  occ. eigenvalues --   -4.68218  -4.67722  -0.86373  -0.86076  -0.85613
 Alpha  occ. eigenvalues --   -0.82215  -0.76684  -0.75523  -0.75384  -0.75194
 Alpha  occ. eigenvalues --   -0.74848  -0.74474  -0.72163  -0.68280  -0.63552
 Alpha  occ. eigenvalues --   -0.61281  -0.61095  -0.60689  -0.60467  -0.60011
 Alpha  occ. eigenvalues --   -0.58142  -0.55414  -0.54012  -0.52309  -0.51021
 Alpha  occ. eigenvalues --   -0.50013  -0.47459  -0.46876  -0.45920  -0.45772
 Alpha  occ. eigenvalues --   -0.45629  -0.45207  -0.45026  -0.44558  -0.42923
 Alpha  occ. eigenvalues --   -0.42845  -0.42393  -0.41996  -0.41010  -0.40221
 Alpha  occ. eigenvalues --   -0.38235  -0.37898  -0.37754  -0.37409  -0.36551
 Alpha  occ. eigenvalues --   -0.35372  -0.35272  -0.35241  -0.35147  -0.34614
 Alpha  occ. eigenvalues --   -0.33820  -0.32262  -0.31846  -0.30577  -0.26919
 Alpha  occ. eigenvalues --   -0.26456  -0.26310  -0.26146  -0.25749  -0.25105
 Alpha  occ. eigenvalues --   -0.21931  -0.18548
 Alpha virt. eigenvalues --   -0.03836  -0.02972  -0.02249  -0.02070  -0.01604
 Alpha virt. eigenvalues --   -0.01153   0.01161   0.03457   0.04358   0.04505
 Alpha virt. eigenvalues --    0.05621   0.05968   0.06465   0.06924   0.07101

 Mulliken charges:
               1
     1  P    0.108851
     2  P    0.126872
     3  C   -0.192803
     4  H    0.108789
     5  C   -0.200424
     6  H    0.092469
     7  H    0.130732
     8  C   -0.180290
     9  H    0.092173
    10  H    0.099222
    11  C   -0.266149
    12  H    0.113957
    13  H    0.100454
    14  C    0.063520
    15  C   -0.156560
    16  C   -0.186744
    17  C   -0.100297
    18  H    0.114035
    19  C   -0.111433
    20  H    0.107196
    21  C   -0.100211
    22  H    0.109157
    23  H    0.106021
    24  H    0.110413
    25  C    0.049885
    26  C   -0.153974
    27  C   -0.184564
    28  C   -0.131206
    29  H    0.149960
    30  C   -0.117454
    31  H    0.116287
    32  C   -0.104301
    33  H    0.104942
    34  H    0.106749
    35  H    0.107166
    36  C    0.082601
    37  C   -0.163996
    38  C   -0.236303
    39  C   -0.101169
    40  H    0.115896
    41  C   -0.097296
    42  H    0.137009
    43  C   -0.099306
    44  H    0.110205
    45  H    0.108404
    46  H    0.111515
 Sum of Mulliken charges =  -0.00000

 Dipole moment (field-independent basis, Debye):
    X=              0.5781    Y=              0.3465    Z=              2.3428  Tot=              2.4378
 Quadrupole moment (field-independent basis, Debye-Ang):
   XX=           -149.9314   YY=           -143.9965   ZZ=           -156.5654
   XY=              4.2695   XZ=             -0.1518   YZ=             -2.4315

 Summary of Natural Population Analysis:

                                       Natural Population
                Natural  -----------------------------------------------
    Atom  No    Charge         Core      Valence    Rydberg      Total
 -----------------------------------------------------------------------
      P    1    0.80598      9.99810     4.16175    0.03417    14.19402
      P    2    0.77595      9.99846     4.19155    0.03403    14.22405
      C    3   -0.75081      1.99944     4.72001    0.03135     6.75081
      H    4    0.24188      0.00000     0.75593    0.00219     0.75812
      C    5   -0.40259      1.99940     4.38669    0.01650     6.40259
      H    6    0.20261      0.00000     0.79555    0.00184     0.79739
      H    7    0.21696      0.00000     0.78079    0.00225     0.78304
      C    8   -0.39456      1.99944     4.38119    0.01393     6.39456
      H    9    0.19656      0.00000     0.80175    0.00169     0.80344
      H   10    0.21075      0.00000     0.78782    0.00144     0.78925
      C   11   -0.67658      1.99944     4.65662    0.02052     6.67658
      H   12    0.22905      0.00000     0.76991    0.00105     0.77095
      H   13    0.20287      0.00000     0.79440    0.00273     0.79713
      C   14   -0.33471      1.99901     4.30590    0.02979     6.33471
      C   15   -0.18442      1.99910     4.16457    0.02074     6.18442
      C   16   -0.19343      1.99908     4.17429    0.02006     6.19343
      C   17   -0.20445      1.99918     4.18560    0.01967     6.20445
      H   18    0.21839      0.00000     0.77992    0.00168     0.78161
      C   19   -0.20512      1.99919     4.18653    0.01940     6.20512
      H   20    0.19837      0.00000     0.79846    0.00317     0.80163
      C   21   -0.19824      1.99919     4.17970    0.01935     6.19824
      H   22    0.20912      0.00000     0.78956    0.00132     0.79088
      H   23    0.20638      0.00000     0.79218    0.00143     0.79362
      H   24    0.20807      0.00000     0.79070    0.00122     0.79193
      C   25   -0.32496      1.99898     4.29533    0.03064     6.32496
      C   26   -0.20614      1.99908     4.18706    0.02000     6.20614
      C   27   -0.20552      1.99908     4.18579    0.02065     6.20552
      C   28   -0.19970      1.99919     4.18150    0.01901     6.19970
      H   29    0.21382      0.00000     0.78421    0.00197     0.78618
      C   30   -0.20205      1.99918     4.18397    0.01890     6.20205
      H   31    0.20527      0.00000     0.79214    0.00259     0.79473
      C   32   -0.20960      1.99919     4.19092    0.01949     6.20960
      H   33    0.20636      0.00000     0.79229    0.00135     0.79364
      H   34    0.20788      0.00000     0.79081    0.00131     0.79212
      H   35    0.20722      0.00000     0.79157    0.00121     0.79278
      C   36   -0.32734      1.99901     4.29510    0.03323     6.32734
      C   37   -0.18547      1.99911     4.16572    0.02064     6.18547
      C   38   -0.20342      1.99908     4.18431    0.02002     6.20342
      C   39   -0.20487      1.99918     4.18633    0.01936     6.20487
      H   40    0.21887      0.00000     0.77952    0.00161     0.78113
      C   41   -0.20598      1.99919     4.18772    0.01907     6.20598
      H   42    0.20741      0.00000     0.79041    0.00218     0.79259
      C   43   -0.19646      1.99919     4.17829    0.01898     6.19646
      H   44    0.20974      0.00000     0.78900    0.00126     0.79026
      H   45    0.20808      0.00000     0.79052    0.00139     0.79192
      H   46    0.20881      0.00000     0.79001    0.00118     0.79119
 =======================================================================
   * Total *    0.00000     63.97851   119.44394    0.57755   184.00000

 Normal termination of Gaussian 16 at Fri Jan 24 04:57:53 2025.
