 Gaussian 16, Revision B.01,
 Gaussian 16:  ES64L-G16RevB.01 20-Dec-2017

 ------------------------------------------
 # nmr=giao b3lyp/genecp pop=nbo scfcyc=200
 ------------------------------------------

 --------
 dcpa_SPE
 --------
 Symbolic Z-matrix:
 Charge =  1 Multiplicity = 1

                         Standard orientation:
 ---------------------------------------------------------------------
 Center     Atomic      Atomic             Coordinates (Angstroms)
 Number     Number       Type             X           Y           Z
 ---------------------------------------------------------------------
      1         15           0       -1.420440    0.145530   -0.596870
      2         15           0        1.311700   -0.009791   -0.603110
      3          7           0       -0.066180    0.016710   -1.672760
      4          6           0       -0.042360    0.226420   -3.121880
      5          1           0       -1.025190    0.024360   -3.543240
      6          1           0        0.662300   -0.460040   -3.595180
      7          1           0        0.236110    1.249640   -3.390300
      8          6           0       -2.678140   -1.201089   -0.970540
      9          1           0       -3.420230   -1.031319   -0.179230
     10          6           0       -2.100471   -2.610949   -0.765610
     11          1           0       -1.583031   -2.674880    0.194370
     12          1           0       -1.350531   -2.804300   -1.537040
     13          6           0       -3.200441   -3.677649   -0.854690
     14          1           0       -2.757352   -4.669939   -0.739330
     15          1           0       -3.897171   -3.549659   -0.018360
     16          6           0       -3.969051   -3.588999   -2.176300
     17          1           0       -3.300761   -3.857889   -3.002310
     18          1           0       -4.783832   -4.316388   -2.188810
     19          6           0       -4.517931   -2.178909   -2.409300
     20          1           0       -5.288421   -1.957478   -1.662150
     21          1           0       -5.006011   -2.116378   -3.384880
     22          6           0       -3.413080   -1.114479   -2.322320
     23          1           0       -3.847850   -0.125469   -2.477250
     24          1           0       -2.700850   -1.282639   -3.135760
     25          6           0       -2.321899    1.742881   -1.003810
     26          1           0       -2.592899    1.674301   -2.063430
     27          6           0       -3.620929    1.883131   -0.184220
     28          1           0       -3.379259    1.870941    0.884040
     29          1           0       -4.288900    1.039101   -0.364540
     30          6           0       -4.355979    3.190671   -0.512170
     31          1           0       -4.708979    3.154162   -1.548760
     32          1           0       -5.246579    3.271302    0.115560
     33          6           0       -3.454538    4.412561   -0.324250
     34          1           0       -3.202588    4.519851    0.737140
     35          1           0       -3.988368    5.321891   -0.608990
     36          6           0       -2.168228    4.277091   -1.141550
     37          1           0       -1.508148    5.128690   -0.959180
     38          1           0       -2.412838    4.297451   -2.209470
     39          6           0       -1.421179    2.975390   -0.818780
     40          1           0       -1.058829    3.007280    0.214610
     41          1           0       -0.540669    2.896430   -1.459000
     42          6           0        2.419120   -1.414991   -1.167880
     43          1           0        2.761860   -1.146021   -2.172340
     44          6           0        1.670169   -2.752941   -1.258220
     45          1           0        0.827169   -2.664550   -1.944770
     46          1           0        1.250599   -3.002111   -0.277720
     47          6           0        2.600669   -3.882931   -1.720340
     48          1           0        2.047528   -4.825251   -1.735990
     49          1           0        2.915319   -3.691551   -2.752440
     50          6           0        3.838049   -4.004822   -0.827470
     51          1           0        4.504698   -4.780732   -1.210290
     52          1           0        3.532928   -4.325351    0.175420
     53          6           0        4.582659   -2.671282   -0.729020
     54          1           0        4.999549   -2.412582   -1.708650
     55          1           0        5.429729   -2.755682   -0.044080
     56          6           0        3.658919   -1.538551   -0.258780
     57          1           0        4.217760   -0.601592   -0.227960
     58          1           0        3.338159   -1.745401    0.767260
     59          6           0        2.263641    1.584819   -0.979590
     60          1           0        1.446151    2.267629   -1.232170
     61          6           0        2.972551    2.180229    0.251560
     62          1           0        3.768931    1.508238    0.588400
     63          1           0        2.263431    2.272869    1.075950
     64          6           0        3.578111    3.555049   -0.065930
     65          1           0        2.766932    4.265199   -0.263200
     66          1           0        4.110381    3.929288    0.811990
     67          6           0        4.512771    3.505068   -1.276870
     68          1           0        4.883682    4.506198   -1.507640
     69          1           0        5.391821    2.897088   -1.034450
     70          6           0        3.805381    2.909678   -2.496450
     71          1           0        4.497371    2.829668   -3.338260
     72          1           0        3.002071    3.582539   -2.817410
     73          6           0        3.216361    1.524389   -2.189360
     74          1           0        4.038540    0.834458   -1.980610
     75          1           0        2.703680    1.141729   -3.074300
     76         45           0       -0.081040   -0.119950    1.320270
     77          6           0       -1.426170    0.522580    3.027710
     78          6           0       -1.711960   -0.793030    2.719010
     79          6           0        1.157050   -1.188011    2.919910
     80          6           0        1.460000    0.154719    2.966020
     81          1           0       -2.052650    1.280011    2.570750
     82          6           0       -0.614350    0.991500    4.221280
     83          1           0       -2.571410   -0.975239    2.082800
     84          6           0       -1.209341   -2.016550    3.444050
     85          6           0        0.261879   -1.924470    3.898380
     86          1           0        1.809439   -1.818291    2.326850
     87          1           0        2.354410    0.476559    2.446310
     88          6           0        0.888540    1.173490    3.919710
     89          1           0       -0.753790    0.299140    5.051400
     90          1           0       -1.017619    1.947620    4.558940
     91          1           0       -1.852321   -2.226089    4.308040
     92          1           0       -1.324441   -2.871900    2.774910
     93          1           0        0.649679   -2.936410    4.026930
     94          1           0        0.327970   -1.452660    4.878450
     95          1           0        1.457660    1.166079    4.857660
     96          1           0        1.047891    2.162679    3.484630
 ---------------------------------------------------------------------

 SCF Done:  E(RB3LYP) =  -2141.51510915     A.U. after   15 cycles

      1  P    Isotropic =   209.8592   Anisotropy =    55.4138

      2  P    Isotropic =   219.0018   Anisotropy =    62.6284

      3  N    Isotropic =   185.9084   Anisotropy =    65.5380

      4  C    Isotropic =   148.6659   Anisotropy =    57.5440

      5  H    Isotropic =    29.3671   Anisotropy =     8.2378

      6  H    Isotropic =    29.3809   Anisotropy =     9.1506

      7  H    Isotropic =    29.1708   Anisotropy =     8.6959

      8  C    Isotropic =   133.7250   Anisotropy =    27.7761

      9  H    Isotropic =    30.2664   Anisotropy =     2.9683

     10  C    Isotropic =   149.7491   Anisotropy =     8.3097

     11  H    Isotropic =    29.4812   Anisotropy =     9.5140

     12  H    Isotropic =    30.1850   Anisotropy =     8.0374

     13  C    Isotropic =   153.7692   Anisotropy =     8.9942

     14  H    Isotropic =    29.9047   Anisotropy =     9.3352

     15  H    Isotropic =    30.4613   Anisotropy =     7.5500

     16  C    Isotropic =   155.4157   Anisotropy =     2.9990

     17  H    Isotropic =    30.5213   Anisotropy =     8.3536

     18  H    Isotropic =    30.0382   Anisotropy =    11.7972

     19  C    Isotropic =   153.1038   Anisotropy =     8.2971

     20  H    Isotropic =    30.6301   Anisotropy =     8.3421

     21  H    Isotropic =    29.9907   Anisotropy =    11.1449

     22  C    Isotropic =   151.4782   Anisotropy =    12.9670

     23  H    Isotropic =    29.9882   Anisotropy =     6.8909

     24  H    Isotropic =    30.4889   Anisotropy =     4.6643

     25  C    Isotropic =   141.7126   Anisotropy =    20.7083

     26  H    Isotropic =    29.5032   Anisotropy =     3.3658

     27  C    Isotropic =   154.9435   Anisotropy =    11.5525

     28  H    Isotropic =    31.1914   Anisotropy =     6.4357

     29  H    Isotropic =    30.5592   Anisotropy =     7.0317

     30  C    Isotropic =   155.1128   Anisotropy =     5.8947

     31  H    Isotropic =    30.5733   Anisotropy =     9.1246

     32  H    Isotropic =    30.0956   Anisotropy =    10.8382

     33  C    Isotropic =   155.9231   Anisotropy =     3.2464

     34  H    Isotropic =    30.6442   Anisotropy =     7.6394

     35  H    Isotropic =    30.0558   Anisotropy =    11.9233

     36  C    Isotropic =   155.0391   Anisotropy =     7.0406

     37  H    Isotropic =    29.9482   Anisotropy =     9.5849

     38  H    Isotropic =    30.4764   Anisotropy =     8.7265

     39  C    Isotropic =   151.4827   Anisotropy =    11.1566

     40  H    Isotropic =    30.3318   Anisotropy =     7.1814

     41  H    Isotropic =    30.0991   Anisotropy =     8.9678

     42  C    Isotropic =   142.4157   Anisotropy =    19.9598

     43  H    Isotropic =    29.3792   Anisotropy =     4.2921

     44  C    Isotropic =   151.5841   Anisotropy =     9.3539

     45  H    Isotropic =    29.9996   Anisotropy =     8.1121

     46  H    Isotropic =    30.5199   Anisotropy =     7.3141

     47  C    Isotropic =   155.1081   Anisotropy =     6.9468

     48  H    Isotropic =    29.9656   Anisotropy =     9.7594

     49  H    Isotropic =    30.5061   Anisotropy =     8.8431

     50  C    Isotropic =   155.7694   Anisotropy =     2.8726

     51  H    Isotropic =    30.0640   Anisotropy =    11.9757

     52  H    Isotropic =    30.6472   Anisotropy =     7.5900

     53  C    Isotropic =   155.5161   Anisotropy =     5.5090

     54  H    Isotropic =    30.5562   Anisotropy =     8.9644

     55  H    Isotropic =    30.1213   Anisotropy =    10.7381

     56  C    Isotropic =   154.7622   Anisotropy =    10.7168

     57  H    Isotropic =    30.4405   Anisotropy =     7.8113

     58  H    Isotropic =    31.1803   Anisotropy =     6.8621

     59  C    Isotropic =   131.2228   Anisotropy =    36.8402

     60  H    Isotropic =    29.6614   Anisotropy =     7.2818

     61  C    Isotropic =   148.9958   Anisotropy =    14.6780

     62  H    Isotropic =    30.6238   Anisotropy =     3.8449

     63  H    Isotropic =    29.6956   Anisotropy =     9.6275

     64  C    Isotropic =   153.0866   Anisotropy =     8.5473

     65  H    Isotropic =    30.4974   Anisotropy =     6.9823

     66  H    Isotropic =    29.9655   Anisotropy =     9.9924

     67  C    Isotropic =   156.0564   Anisotropy =     2.1457

     68  H    Isotropic =    30.1051   Anisotropy =    11.7243

     69  H    Isotropic =    30.6136   Anisotropy =     8.8991

     70  C    Isotropic =   154.2416   Anisotropy =     6.5820

     71  H    Isotropic =    30.0273   Anisotropy =    11.0825

     72  H    Isotropic =    30.5146   Anisotropy =     7.4731

     73  C    Isotropic =   150.7003   Anisotropy =    14.5550

     74  H    Isotropic =    30.3859   Anisotropy =     6.1558

     75  H    Isotropic =    30.0926   Anisotropy =     5.0729

     76  Rh   Isotropic =  -293.5664   Anisotropy =   337.1993

     77  C    Isotropic =    80.9255   Anisotropy =   119.5385

     78  C    Isotropic =    82.1860   Anisotropy =   110.2630

     79  C    Isotropic =    76.9583   Anisotropy =   125.6364

     80  C    Isotropic =    80.9507   Anisotropy =   114.4069

     81  H    Isotropic =    26.8721   Anisotropy =     7.2218

     82  C    Isotropic =   153.9249   Anisotropy =    26.0417

     83  H    Isotropic =    27.0531   Anisotropy =     3.8787

     84  C    Isotropic =   147.4685   Anisotropy =    29.5890

     85  C    Isotropic =   153.8583   Anisotropy =    25.9459

     86  H    Isotropic =    26.5722   Anisotropy =     6.7061

     87  H    Isotropic =    26.5438   Anisotropy =     4.0983

     88  C    Isotropic =   148.6587   Anisotropy =    29.1179

     89  H    Isotropic =    29.7865   Anisotropy =     9.8098

     90  H    Isotropic =    29.8448   Anisotropy =    11.4738

     91  H    Isotropic =    29.1370   Anisotropy =    12.5655

     92  H    Isotropic =    29.2080   Anisotropy =     7.0962

     93  H    Isotropic =    29.8302   Anisotropy =    11.3405

     94  H    Isotropic =    29.7915   Anisotropy =     9.7379

     95  H    Isotropic =    29.1982   Anisotropy =    12.6933

     96  H    Isotropic =    29.2246   Anisotropy =     7.2046

 The electronic state is 1-A.
 Alpha  occ. eigenvalues --  -77.24443 -77.24368 -14.43893 -10.30949 -10.29150
 Alpha  occ. eigenvalues --  -10.29119 -10.29056 -10.29043 -10.28976 -10.28971
 Alpha  occ. eigenvalues --  -10.28961 -10.28801 -10.27555 -10.27512 -10.27317
 Alpha  occ. eigenvalues --  -10.27316 -10.27234 -10.27114 -10.27055 -10.27012
 Alpha  occ. eigenvalues --  -10.26929 -10.26833 -10.26607 -10.26598 -10.25616
 Alpha  occ. eigenvalues --  -10.25606 -10.25508 -10.25505 -10.25499 -10.25466
 Alpha  occ. eigenvalues --  -10.25445 -10.25396 -10.25050 -10.24918 -10.24912
 Alpha  occ. eigenvalues --  -10.24899  -6.70162  -6.70079  -4.86571  -4.86487
 Alpha  occ. eigenvalues --   -4.86282  -4.86202  -4.86079  -4.85988  -3.31366
 Alpha  occ. eigenvalues --   -2.08299  -2.07621  -2.04737  -1.01767  -0.94499
 Alpha  occ. eigenvalues --   -0.93897  -0.93474  -0.92982  -0.92841  -0.89178
 Alpha  occ. eigenvalues --   -0.88044  -0.86040  -0.85633  -0.84234  -0.84100
 Alpha  occ. eigenvalues --   -0.84038  -0.83930  -0.83625  -0.83566  -0.81317
 Alpha  occ. eigenvalues --   -0.80348  -0.77841  -0.75542  -0.72519  -0.71169
 Alpha  occ. eigenvalues --   -0.70969  -0.70924  -0.70735  -0.70572  -0.70230
 Alpha  occ. eigenvalues --   -0.70026  -0.66792  -0.66009  -0.65591  -0.65322
 Alpha  occ. eigenvalues --   -0.65239  -0.64779  -0.64436  -0.62510  -0.60240
 Alpha  occ. eigenvalues --   -0.58706  -0.58433  -0.57872  -0.57332  -0.57109
 Alpha  occ. eigenvalues --   -0.56596  -0.56343  -0.55907  -0.55074  -0.54218
 Alpha  occ. eigenvalues --   -0.53986  -0.53926  -0.53675  -0.53617  -0.53511
 Alpha  occ. eigenvalues --   -0.53455  -0.53364  -0.53342  -0.53193  -0.52774
 Alpha  occ. eigenvalues --   -0.52648  -0.52624  -0.51249  -0.50067  -0.49009
 Alpha  occ. eigenvalues --   -0.48559  -0.48395  -0.48164  -0.48063  -0.47993
 Alpha  occ. eigenvalues --   -0.47923  -0.47835  -0.47694  -0.47535  -0.47180
 Alpha  occ. eigenvalues --   -0.46449  -0.46219  -0.46031  -0.45935  -0.45491
 Alpha  occ. eigenvalues --   -0.45189  -0.44489  -0.44371  -0.44298  -0.44246
 Alpha  occ. eigenvalues --   -0.43979  -0.43881  -0.43389  -0.43286  -0.42848
 Alpha  occ. eigenvalues --   -0.41922  -0.41485  -0.41388  -0.41322  -0.41189
 Alpha  occ. eigenvalues --   -0.41004  -0.40662  -0.40146  -0.40059  -0.39938
 Alpha  occ. eigenvalues --   -0.39750  -0.39493  -0.38513  -0.36964  -0.36259
 Alpha  occ. eigenvalues --   -0.34962  -0.34908  -0.34303  -0.33490  -0.30559
 Alpha virt. eigenvalues --   -0.15670  -0.13559  -0.09618  -0.09075  -0.08325
 Alpha virt. eigenvalues --   -0.07773  -0.07078  -0.06922  -0.05953  -0.05566
 Alpha virt. eigenvalues --   -0.05035  -0.04808  -0.04533  -0.04293  -0.03889

 Mulliken charges:
               1
     1  P    0.526438
     2  P    0.526829
     3  N   -0.522657
     4  C   -0.259631
     5  H    0.157808
     6  H    0.157083
     7  H    0.148786
     8  C   -0.218710
     9  H    0.156179
    10  C   -0.240901
    11  H    0.137517
    12  H    0.115842
    13  C   -0.237156
    14  H    0.141562
    15  H    0.120233
    16  C   -0.234502
    17  H    0.115628
    18  H    0.148601
    19  C   -0.247179
    20  H    0.121648
    21  H    0.147843
    22  C   -0.268904
    23  H    0.156477
    24  H    0.121879
    25  C   -0.135063
    26  H    0.170771
    27  C   -0.287589
    28  H    0.119221
    29  H    0.152456
    30  C   -0.237156
    31  H    0.122542
    32  H    0.147857
    33  C   -0.230643
    34  H    0.112331
    35  H    0.150485
    36  C   -0.233357
    37  H    0.141172
    38  H    0.121488
    39  C   -0.254524
    40  H    0.123780
    41  H    0.117576
    42  C   -0.192015
    43  H    0.176615
    44  C   -0.247931
    45  H    0.126601
    46  H    0.115076
    47  C   -0.231982
    48  H    0.141664
    49  H    0.121012
    50  C   -0.228211
    51  H    0.149949
    52  H    0.110571
    53  C   -0.240644
    54  H    0.122978
    55  H    0.146935
    56  C   -0.283338
    57  H    0.140782
    58  H    0.127995
    59  C   -0.142438
    60  H    0.111711
    61  C   -0.295972
    62  H    0.131329
    63  H    0.142013
    64  C   -0.251242
    65  H    0.121264
    66  H    0.144098
    67  C   -0.224549
    68  H    0.148484
    69  H    0.116191
    70  C   -0.246778
    71  H    0.148547
    72  H    0.118600
    73  C   -0.262426
    74  H    0.136827
    75  H    0.144633
    76  Rh  -0.583282
    77  C   -0.025842
    78  C   -0.096282
    79  C   -0.018239
    80  C   -0.108993
    81  H    0.176707
    82  C   -0.342584
    83  H    0.191063
    84  C   -0.240367
    85  C   -0.346812
    86  H    0.170452
    87  H    0.209979
    88  C   -0.235600
    89  H    0.168320
    90  H    0.167957
    91  H    0.170650
    92  H    0.132985
    93  H    0.168268
    94  H    0.169951
    95  H    0.171400
    96  H    0.131860
 Sum of Mulliken charges =   1.00000

 Dipole moment (field-independent basis, Debye):
    X=             -0.2623    Y=              0.1892    Z=             -0.3123  Tot=              0.4496
 Quadrupole moment (field-independent basis, Debye-Ang):
   XX=           -218.3606   YY=           -229.9831   ZZ=           -225.4338
   XY=             -0.4414   XZ=             -0.1694   YZ=             -1.3111

 Summary of Natural Population Analysis:

                                       Natural Population
                Natural  -----------------------------------------------
    Atom  No    Charge         Core      Valence    Rydberg      Total
 -----------------------------------------------------------------------
      P    1    1.34580      9.99647     3.59854    0.05919    13.65420
      P    2    1.31383      9.99658     3.63242    0.05718    13.68617
      N    3   -1.02404      1.99958     6.00021    0.02425     8.02404
      C    4   -0.41313      1.99936     4.39550    0.01827     6.41313
      H    5    0.21153      0.00000     0.78663    0.00184     0.78847
      H    6    0.20567      0.00000     0.79250    0.00183     0.79433
      H    7    0.19129      0.00000     0.80647    0.00224     0.80871
      C    8   -0.50196      1.99934     4.48365    0.01897     6.50196
      H    9    0.22099      0.00000     0.77628    0.00273     0.77901
      C   10   -0.38510      1.99938     4.37510    0.01063     6.38510
      H   11    0.21370      0.00000     0.78401    0.00229     0.78630
      H   12    0.19671      0.00000     0.80074    0.00254     0.80329
      C   13   -0.38386      1.99942     4.37488    0.00957     6.38386
      H   14    0.21294      0.00000     0.78566    0.00140     0.78706
      H   15    0.19171      0.00000     0.80644    0.00186     0.80829
      C   16   -0.38882      1.99942     4.37991    0.00950     6.38882
      H   17    0.19246      0.00000     0.80574    0.00180     0.80754
      H   18    0.21593      0.00000     0.78271    0.00136     0.78407
      C   19   -0.38256      1.99942     4.37336    0.00978     6.38256
      H   20    0.19345      0.00000     0.80470    0.00186     0.80655
      H   21    0.21566      0.00000     0.78293    0.00141     0.78434
      C   22   -0.39205      1.99937     4.38178    0.01090     6.39205
      H   23    0.20400      0.00000     0.79413    0.00187     0.79600
      H   24    0.19129      0.00000     0.80606    0.00266     0.80871
      C   25   -0.50689      1.99934     4.48754    0.02001     6.50689
      H   26    0.22002      0.00000     0.77618    0.00381     0.77998
      C   27   -0.38885      1.99938     4.37860    0.01087     6.38885
      H   28    0.19361      0.00000     0.80416    0.00223     0.80639
      H   29    0.20550      0.00000     0.79263    0.00187     0.79450
      C   30   -0.38307      1.99942     4.37365    0.01001     6.38307
      H   31    0.19522      0.00000     0.80296    0.00182     0.80478
      H   32    0.21540      0.00000     0.78322    0.00137     0.78460
      C   33   -0.38880      1.99942     4.37992    0.00947     6.38880
      H   34    0.19131      0.00000     0.80688    0.00181     0.80869
      H   35    0.21648      0.00000     0.78219    0.00134     0.78352
      C   36   -0.38360      1.99941     4.37437    0.00981     6.38360
      H   37    0.21300      0.00000     0.78561    0.00139     0.78700
      H   38    0.19453      0.00000     0.80361    0.00186     0.80547
      C   39   -0.38544      1.99938     4.37486    0.01120     6.38544
      H   40    0.20387      0.00000     0.79406    0.00207     0.79613
      H   41    0.19807      0.00000     0.79954    0.00240     0.80193
      C   42   -0.50524      1.99935     4.48595    0.01994     6.50524
      H   43    0.22202      0.00000     0.77402    0.00396     0.77798
      C   44   -0.38643      1.99938     4.37591    0.01114     6.38643
      H   45    0.20588      0.00000     0.79186    0.00226     0.79412
      H   46    0.20126      0.00000     0.79662    0.00212     0.79874
      C   47   -0.38388      1.99942     4.37473    0.00973     6.38388
      H   48    0.21318      0.00000     0.78545    0.00137     0.78682
      H   49    0.19390      0.00000     0.80426    0.00184     0.80610
      C   50   -0.38861      1.99942     4.37973    0.00946     6.38861
      H   51    0.21606      0.00000     0.78260    0.00134     0.78394
      H   52    0.19077      0.00000     0.80742    0.00181     0.80923
      C   53   -0.38308      1.99941     4.37374    0.00993     6.38308
      H   54    0.19512      0.00000     0.80307    0.00181     0.80488
      H   55    0.21488      0.00000     0.78375    0.00138     0.78512
      C   56   -0.38912      1.99938     4.37894    0.01080     6.38912
      H   57    0.20464      0.00000     0.79325    0.00211     0.79536
      H   58    0.19382      0.00000     0.80399    0.00219     0.80618
      C   59   -0.49297      1.99934     4.47410    0.01953     6.49297
      H   60    0.22093      0.00000     0.77570    0.00337     0.77907
      C   61   -0.38564      1.99938     4.37621    0.01006     6.38564
      H   62    0.19278      0.00000     0.80485    0.00236     0.80722
      H   63    0.21074      0.00000     0.78711    0.00214     0.78926
      C   64   -0.38431      1.99942     4.37517    0.00973     6.38431
      H   65    0.19223      0.00000     0.80590    0.00187     0.80777
      H   66    0.21407      0.00000     0.78454    0.00140     0.78593
      C   67   -0.38950      1.99942     4.38056    0.00952     6.38950
      H   68    0.21585      0.00000     0.78280    0.00135     0.78415
      H   69    0.19334      0.00000     0.80485    0.00181     0.80666
      C   70   -0.38228      1.99942     4.37309    0.00977     6.38228
      H   71    0.21559      0.00000     0.78301    0.00140     0.78441
      H   72    0.19146      0.00000     0.80666    0.00188     0.80854
      C   73   -0.39512      1.99938     4.38505    0.01070     6.39512
      H   74    0.19605      0.00000     0.80153    0.00243     0.80395
      H   75    0.20155      0.00000     0.79624    0.00221     0.79845
     Rh   76   -0.37791     35.98597     9.36575    0.02619    45.37791
      C   77   -0.17505      1.99909     4.15604    0.01992     6.17505
      C   78   -0.17269      1.99910     4.15352    0.02008     6.17269
      C   79   -0.17089      1.99909     4.15165    0.02015     6.17089
      C   80   -0.18000      1.99910     4.16062    0.02028     6.18000
      H   81    0.22107      0.00000     0.77671    0.00223     0.77893
      C   82   -0.42254      1.99935     4.41124    0.01194     6.42254
      H   83    0.21914      0.00000     0.77883    0.00203     0.78086
      C   84   -0.41592      1.99935     4.40395    0.01262     6.41592
      C   85   -0.42372      1.99935     4.41235    0.01202     6.42372
      H   86    0.22117      0.00000     0.77656    0.00227     0.77883
      H   87    0.22571      0.00000     0.77215    0.00215     0.77429
      C   88   -0.41697      1.99935     4.40489    0.01273     6.41697
      H   89    0.21553      0.00000     0.78259    0.00188     0.78447
      H   90    0.22797      0.00000     0.77058    0.00144     0.77203
      H   91    0.23228      0.00000     0.76589    0.00183     0.76772
      H   92    0.21512      0.00000     0.78315    0.00173     0.78488
      H   93    0.22819      0.00000     0.77036    0.00145     0.77181
      H   94    0.21562      0.00000     0.78251    0.00188     0.78438
      H   95    0.23268      0.00000     0.76548    0.00184     0.76732
      H   96    0.21553      0.00000     0.78273    0.00174     0.78447
 =======================================================================
   * Total *    1.00000    123.95714   213.33052    0.71234   338.00000

 Normal termination of Gaussian 16 at Sun Jan 19 22:01:34 2025.
