 Gaussian 16, Revision B.01,
 Gaussian 16:  ES64L-G16RevB.01 20-Dec-2017

 ------------------------------------------
 # nmr=giao b3lyp/genecp pop=nbo scfcyc=200
 ------------------------------------------

 ----------
 diprpa_SPE
 ----------
 Symbolic Z-matrix:
 Charge =  1 Multiplicity = 1

                         Standard orientation:
 ---------------------------------------------------------------------
 Center     Atomic      Atomic             Coordinates (Angstroms)
 Number     Number       Type             X           Y           Z
 ---------------------------------------------------------------------
      1         15           0       -1.111064   -1.277907    0.070200
      2         15           0       -0.958546    1.444642   -0.095820
      3          7           0       -2.095460    0.159146    0.151890
      4          6           0       -3.558469    0.225260    0.100810
      5          1           0       -3.997061   -0.452669    0.835420
      6          1           0       -3.953040   -0.029649   -0.886910
      7          1           0       -3.894456    1.230501    0.346890
      8          6           0       -1.589927   -2.355166    1.532850
      9          1           0       -2.638718   -2.621753    1.377650
     10          6           0       -1.470345   -1.605246    2.860340
     11          1           0       -1.757617   -2.268215    3.679440
     12          1           0       -2.121302   -0.733014    2.895810
     13          1           0       -0.446984   -1.272329    3.043970
     14          6           0       -0.762301   -3.648698    1.544440
     15          1           0        0.299680   -3.445212    1.692830
     16          1           0       -0.870382   -4.232518    0.630880
     17          1           0       -1.090513   -4.279957    2.372620
     18          6           0       -1.714477   -2.207256   -1.470140
     19          1           0       -1.965384   -1.376205   -2.133560
     20          6           0       -2.978439   -3.053982   -1.267840
     21          1           0       -3.335150   -3.398791   -2.241230
     22          1           0       -3.793977   -2.500629   -0.802360
     23          1           0       -2.784992   -3.941982   -0.664920
     24          6           0       -0.606889   -3.014469   -2.158980
     25          1           0       -0.243511   -3.835910   -1.538930
     26          1           0        0.240983   -2.386161   -2.429880
     27          1           0       -0.999740   -3.454978   -3.078010
     28          6           0       -1.120042    2.722533    1.278370
     29          1           0       -0.308140    3.413890    1.025920
     30          6           0       -0.811124    2.117002    2.650520
     31          1           0       -0.702881    2.915081    3.387970
     32          1           0        0.108575    1.531269    2.644680
     33          1           0       -1.621036    1.468814    2.985280
     34          6           0       -2.429870    3.521736    1.311980
     35          1           0       -3.269471    2.901199    1.628340
     36          1           0       -2.680858    3.980497    0.355930
     37          1           0       -2.338397    4.328416    2.042910
     38          6           0       -1.476093    2.370204   -1.648580
     39          1           0       -2.505602    2.696627   -1.473880
     40          6           0       -1.460396    1.459164   -2.878960
     41          1           0       -1.740044    2.034134   -3.764230
     42          1           0       -2.170738    0.637426   -2.790050
     43          1           0       -0.468147    1.037581   -3.053370
     44          6           0       -0.604499    3.614981   -1.870340
     45          1           0        0.444360    3.350228   -2.018480
     46          1           0       -0.662167    4.327831   -1.048130
     47          1           0       -0.936818    4.133232   -2.771990
     48         45           0        0.889790   -0.006353   -0.033440
     49          6           0        2.518706   -1.347538    0.859110
     50          6           0        2.402165   -1.643208   -0.480700
     51          6           0        2.603064    1.238402   -0.853600
     52          6           0        2.452735    1.533792    0.486780
     53          1           0        1.957644   -1.966946    1.549250
     54          6           0        3.620998   -0.516491    1.487420
     55          1           0        1.797313   -2.502266   -0.744790
     56          6           0        3.272397   -1.123110   -1.596800
     57          6           0        3.686081    0.356368   -1.447020
     58          1           0        2.108216    1.896433   -1.558750
     59          1           0        1.893497    2.429574    0.735020
     60          6           0        3.266493    0.977950    1.628540
     61          1           0        4.539578   -0.636934    0.913800
     62          1           0        3.833017   -0.918032    2.479660
     63          1           0        4.167615   -1.749863   -1.692840
     64          1           0        2.723136   -1.247009   -2.532810
     65          1           0        3.944542    0.744358   -2.433560
     66          1           0        4.592241    0.438806   -0.847310
     67          1           0        4.183765    1.567327    1.750360
     68          1           0        2.696163    1.125301    2.548120
 ---------------------------------------------------------------------

 SCF Done:  E(RB3LYP) =  -1674.42335995     A.U. after   15 cycles

      1  P    Isotropic =   213.5486   Anisotropy =    62.6410

      2  P    Isotropic =   202.3544   Anisotropy =    55.1351

      3  N    Isotropic =   183.6547   Anisotropy =    65.3581

      4  C    Isotropic =   148.8771   Anisotropy =    57.8730

      5  H    Isotropic =    29.2567   Anisotropy =     9.9884

      6  H    Isotropic =    29.0527   Anisotropy =     9.6348

      7  H    Isotropic =    29.3147   Anisotropy =     8.9475

      8  C    Isotropic =   150.9378   Anisotropy =    21.0734

      9  H    Isotropic =    29.1258   Anisotropy =     5.3364

     10  C    Isotropic =   163.8777   Anisotropy =    26.6038

     11  H    Isotropic =    30.5367   Anisotropy =    11.5433

     12  H    Isotropic =    30.4195   Anisotropy =     7.7075

     13  H    Isotropic =    30.7363   Anisotropy =     5.3624

     14  C    Isotropic =   167.5941   Anisotropy =    28.8844

     15  H    Isotropic =    31.4296   Anisotropy =     5.4545

     16  H    Isotropic =    30.9741   Anisotropy =     7.8308

     17  H    Isotropic =    30.5880   Anisotropy =    12.2524

     18  C    Isotropic =   140.3473   Anisotropy =    34.7083

     19  H    Isotropic =    29.3735   Anisotropy =     6.2980

     20  C    Isotropic =   164.0240   Anisotropy =    30.6727

     21  H    Isotropic =    30.3529   Anisotropy =    11.7200

     22  H    Isotropic =    30.5404   Anisotropy =     7.2326

     23  H    Isotropic =    30.6281   Anisotropy =     7.2715

     24  C    Isotropic =   161.9190   Anisotropy =    28.1580

     25  H    Isotropic =    30.8515   Anisotropy =     5.8244

     26  H    Isotropic =    30.0891   Anisotropy =     7.3434

     27  H    Isotropic =    30.4563   Anisotropy =    11.0903

     28  C    Isotropic =   142.7252   Anisotropy =    26.4137

     29  H    Isotropic =    29.9248   Anisotropy =     3.9219

     30  C    Isotropic =   162.7703   Anisotropy =    28.1697

     31  H    Isotropic =    30.2790   Anisotropy =    10.8052

     32  H    Isotropic =    29.8717   Anisotropy =     7.6781

     33  H    Isotropic =    30.4916   Anisotropy =     5.8262

     34  C    Isotropic =   165.2338   Anisotropy =    30.5990

     35  H    Isotropic =    30.7990   Anisotropy =     6.9367

     36  H    Isotropic =    30.3442   Anisotropy =     7.8016

     37  H    Isotropic =    30.4263   Anisotropy =    12.1168

     38  C    Isotropic =   149.3113   Anisotropy =    20.0408

     39  H    Isotropic =    29.2610   Anisotropy =     5.4649

     40  C    Isotropic =   164.1704   Anisotropy =    28.7671

     41  H    Isotropic =    30.4674   Anisotropy =    11.5600

     42  H    Isotropic =    30.6188   Anisotropy =     7.5482

     43  H    Isotropic =    30.5448   Anisotropy =     5.3289

     44  C    Isotropic =   167.4601   Anisotropy =    29.7138

     45  H    Isotropic =    31.4244   Anisotropy =     5.7147

     46  H    Isotropic =    30.9576   Anisotropy =     8.3621

     47  H    Isotropic =    30.6173   Anisotropy =    12.2463

     48  Rh   Isotropic =  -290.7482   Anisotropy =   337.7587

     49  C    Isotropic =    76.2890   Anisotropy =   126.5611

     50  C    Isotropic =    80.0289   Anisotropy =   115.6385

     51  C    Isotropic =    80.0908   Anisotropy =   120.8517

     52  C    Isotropic =    81.0078   Anisotropy =   112.0304

     53  H    Isotropic =    26.5346   Anisotropy =     6.7256

     54  C    Isotropic =   153.8273   Anisotropy =    25.9655

     55  H    Isotropic =    26.4202   Anisotropy =     4.2357

     56  C    Isotropic =   148.6388   Anisotropy =    28.9676

     57  C    Isotropic =   153.9011   Anisotropy =    25.9844

     58  H    Isotropic =    26.8504   Anisotropy =     7.3369

     59  H    Isotropic =    26.9558   Anisotropy =     4.1669

     60  C    Isotropic =   147.4654   Anisotropy =    29.5037

     61  H    Isotropic =    29.7228   Anisotropy =     9.5181

     62  H    Isotropic =    29.8006   Anisotropy =    11.5550

     63  H    Isotropic =    29.1445   Anisotropy =    12.6353

     64  H    Isotropic =    29.1801   Anisotropy =     7.5252

     65  H    Isotropic =    29.8161   Anisotropy =    11.6658

     66  H    Isotropic =    29.7317   Anisotropy =     9.5887

     67  H    Isotropic =    29.0988   Anisotropy =    12.5684

     68  H    Isotropic =    29.1505   Anisotropy =     7.3058

 The electronic state is 1-A.
 Alpha  occ. eigenvalues --  -77.25293 -77.25233 -14.44771 -10.31713 -10.30490
 Alpha  occ. eigenvalues --  -10.30478 -10.30402 -10.30313 -10.29756 -10.29675
 Alpha  occ. eigenvalues --  -10.29664 -10.29492 -10.28135 -10.28089 -10.27878
 Alpha  occ. eigenvalues --  -10.27876 -10.27631 -10.27546 -10.27458 -10.27439
 Alpha  occ. eigenvalues --  -10.27346 -10.27256 -10.27036 -10.27022  -6.71034
 Alpha  occ. eigenvalues --   -6.70962  -4.87440  -4.87369  -4.87152  -4.87084
 Alpha  occ. eigenvalues --   -4.86947  -4.86869  -3.32133  -2.09082  -2.08393
 Alpha  occ. eigenvalues --   -2.05488  -1.02630  -0.95132  -0.92407  -0.91621
 Alpha  occ. eigenvalues --   -0.90082  -0.89858  -0.89840  -0.88645  -0.82791
 Alpha  occ. eigenvalues --   -0.80993  -0.80224  -0.79965  -0.79932  -0.79683
 Alpha  occ. eigenvalues --   -0.78449  -0.77335  -0.73144  -0.71200  -0.70252
 Alpha  occ. eigenvalues --   -0.70161  -0.66586  -0.65882  -0.64862  -0.63176
 Alpha  occ. eigenvalues --   -0.60856  -0.59889  -0.58922  -0.58087  -0.57903
 Alpha  occ. eigenvalues --   -0.57636  -0.57393  -0.56886  -0.56442  -0.55143
 Alpha  occ. eigenvalues --   -0.54743  -0.54258  -0.54156  -0.53317  -0.53291
 Alpha  occ. eigenvalues --   -0.53047  -0.52357  -0.51925  -0.51558  -0.51227
 Alpha  occ. eigenvalues --   -0.50220  -0.50068  -0.49771  -0.49544  -0.49399
 Alpha  occ. eigenvalues --   -0.48858  -0.48450  -0.47785  -0.47162  -0.46784
 Alpha  occ. eigenvalues --   -0.46727  -0.46469  -0.46336  -0.46232  -0.46065
 Alpha  occ. eigenvalues --   -0.45815  -0.45762  -0.44471  -0.43950  -0.43772
 Alpha  occ. eigenvalues --   -0.43689  -0.43269  -0.41878  -0.41266  -0.37766
 Alpha  occ. eigenvalues --   -0.37251  -0.36254  -0.35734  -0.35083  -0.34271
 Alpha  occ. eigenvalues --   -0.31343
 Alpha virt. eigenvalues --   -0.16420  -0.14384  -0.10397  -0.09884  -0.08992
 Alpha virt. eigenvalues --   -0.07933  -0.07390  -0.07028  -0.06237  -0.05691
 Alpha virt. eigenvalues --   -0.05044  -0.05029  -0.04586  -0.04212  -0.03853

 Mulliken charges:
               1
     1  P    0.490825
     2  P    0.498303
     3  N   -0.516699
     4  C   -0.264168
     5  H    0.159786
     6  H    0.152408
     7  H    0.156984
     8  C   -0.177828
     9  H    0.170153
    10  C   -0.365355
    11  H    0.159314
    12  H    0.128003
    13  H    0.123348
    14  C   -0.406282
    15  H    0.135860
    16  H    0.139568
    17  H    0.161495
    18  C   -0.148826
    19  H    0.132396
    20  C   -0.384869
    21  H    0.156099
    22  H    0.147380
    23  H    0.143861
    24  C   -0.433824
    25  H    0.139015
    26  H    0.147052
    27  H    0.158523
    28  C   -0.182987
    29  H    0.159881
    30  C   -0.387503
    31  H    0.158591
    32  H    0.131065
    33  H    0.130649
    34  C   -0.399078
    35  H    0.134091
    36  H    0.150210
    37  H    0.157389
    38  C   -0.148469
    39  H    0.167593
    40  C   -0.392520
    41  H    0.162711
    42  H    0.128851
    43  H    0.132246
    44  C   -0.399064
    45  H    0.130854
    46  H    0.150983
    47  H    0.159773
    48  Rh  -0.579831
    49  C   -0.018700
    50  C   -0.101052
    51  C   -0.021881
    52  C   -0.094679
    53  H    0.163561
    54  C   -0.345473
    55  H    0.202341
    56  C   -0.228676
    57  C   -0.344364
    58  H    0.170424
    59  H    0.189037
    60  C   -0.234557
    61  H    0.171238
    62  H    0.170998
    63  H    0.174317
    64  H    0.132084
    65  H    0.170818
    66  H    0.169634
    67  H    0.173630
    68  H    0.133345
 Sum of Mulliken charges =   1.00000

 Dipole moment (field-independent basis, Debye):
    X=             -1.7166    Y=              0.3396    Z=             -0.2044  Tot=              1.7617
 Quadrupole moment (field-independent basis, Debye-Ang):
   XX=           -150.9881   YY=           -155.3471   ZZ=           -168.8934
   XY=              0.0264   XZ=              0.7576   YZ=             -0.5466

 Summary of Natural Population Analysis:

                                       Natural Population
                Natural  -----------------------------------------------
    Atom  No    Charge         Core      Valence    Rydberg      Total
 -----------------------------------------------------------------------
      P    1    1.29192      9.99657     3.65458    0.05694    13.70808
      P    2    1.32313      9.99646     3.62124    0.05917    13.67687
      N    3   -1.02352      1.99959     5.99995    0.02398     8.02352
      C    4   -0.41533      1.99936     4.39697    0.01900     6.41533
      H    5    0.20647      0.00000     0.79160    0.00193     0.79353
      H    6    0.19227      0.00000     0.80546    0.00228     0.80773
      H    7    0.21231      0.00000     0.78577    0.00192     0.78769
      C    8   -0.49671      1.99940     4.48050    0.01681     6.49671
      H    9    0.22269      0.00000     0.77464    0.00267     0.77731
      C   10   -0.59010      1.99941     4.58308    0.00761     6.59010
      H   11    0.22267      0.00000     0.77585    0.00148     0.77733
      H   12    0.20961      0.00000     0.78866    0.00173     0.79039
      H   13    0.21060      0.00000     0.78794    0.00146     0.78940
      C   14   -0.59492      1.99941     4.58814    0.00737     6.59492
      H   15    0.20438      0.00000     0.79410    0.00152     0.79562
      H   16    0.20827      0.00000     0.78993    0.00180     0.79173
      H   17    0.22754      0.00000     0.77096    0.00150     0.77246
      C   18   -0.48384      1.99940     4.46761    0.01683     6.48384
      H   19    0.22220      0.00000     0.77527    0.00253     0.77780
      C   20   -0.60359      1.99941     4.59584    0.00834     6.60359
      H   21    0.22584      0.00000     0.77262    0.00155     0.77416
      H   22    0.20644      0.00000     0.79195    0.00160     0.79356
      H   23    0.20809      0.00000     0.79031    0.00160     0.79191
      C   24   -0.59130      1.99941     4.58472    0.00717     6.59130
      H   25    0.20340      0.00000     0.79494    0.00166     0.79660
      H   26    0.21383      0.00000     0.78462    0.00155     0.78617
      H   27    0.22266      0.00000     0.77571    0.00164     0.77734
      C   28   -0.49166      1.99940     4.47610    0.01616     6.49166
      H   29    0.22261      0.00000     0.77555    0.00183     0.77739
      C   30   -0.58870      1.99941     4.58154    0.00775     6.58870
      H   31    0.22164      0.00000     0.77689    0.00147     0.77836
      H   32    0.21649      0.00000     0.78185    0.00165     0.78351
      H   33    0.20630      0.00000     0.79187    0.00183     0.79370
      C   34   -0.60048      1.99941     4.59273    0.00835     6.60048
      H   35    0.20368      0.00000     0.79458    0.00174     0.79632
      H   36    0.20858      0.00000     0.78989    0.00153     0.79142
      H   37    0.22664      0.00000     0.77188    0.00148     0.77336
      C   38   -0.50002      1.99940     4.48390    0.01673     6.50002
      H   39    0.22087      0.00000     0.77650    0.00262     0.77913
      C   40   -0.58978      1.99941     4.58272    0.00765     6.58978
      H   41    0.22454      0.00000     0.77396    0.00150     0.77546
      H   42    0.20212      0.00000     0.79610    0.00178     0.79788
      H   43    0.21354      0.00000     0.78504    0.00141     0.78646
      C   44   -0.59596      1.99941     4.58906    0.00749     6.59596
      H   45    0.20449      0.00000     0.79399    0.00152     0.79551
      H   46    0.21065      0.00000     0.78791    0.00143     0.78935
      H   47    0.22718      0.00000     0.77130    0.00152     0.77282
     Rh   48   -0.38593     35.98592     9.37299    0.02702    45.38593
      C   49   -0.16756      1.99909     4.14816    0.02031     6.16756
      C   50   -0.17767      1.99910     4.15804    0.02054     6.17767
      C   51   -0.17249      1.99909     4.15334    0.02006     6.17249
      C   52   -0.16951      1.99910     4.15013    0.02028     6.16951
      H   53    0.22103      0.00000     0.77668    0.00229     0.77897
      C   54   -0.42508      1.99936     4.41360    0.01213     6.42508
      H   55    0.22568      0.00000     0.77225    0.00208     0.77432
      C   56   -0.41801      1.99935     4.40575    0.01292     6.41801
      C   57   -0.42377      1.99936     4.41236    0.01206     6.42377
      H   58    0.22104      0.00000     0.77669    0.00227     0.77896
      H   59    0.21914      0.00000     0.77882    0.00204     0.78086
      C   60   -0.41707      1.99935     4.40491    0.01282     6.41707
      H   61    0.21653      0.00000     0.78158    0.00189     0.78347
      H   62    0.22974      0.00000     0.76882    0.00144     0.77026
      H   63    0.23469      0.00000     0.76347    0.00184     0.76531
      H   64    0.21579      0.00000     0.78238    0.00183     0.78421
      H   65    0.22947      0.00000     0.76909    0.00144     0.77053
      H   66    0.21645      0.00000     0.78166    0.00189     0.78355
      H   67    0.23433      0.00000     0.76385    0.00182     0.76567
      H   68    0.21548      0.00000     0.78271    0.00181     0.78452
 =======================================================================
   * Total *    1.00000     99.96455   149.51360    0.52185   250.00000

 Normal termination of Gaussian 16 at Sun Jan 19 21:30:46 2025.
