 Gaussian 16, Revision B.01,
 Gaussian 16:  ES64L-G16RevB.01 20-Dec-2017

 ------------------------------------------
 # nmr=giao b3lyp/genecp pop=nbo scfcyc=200
 ------------------------------------------

 ---------
 DS-19_SPE
 ---------
 Symbolic Z-matrix:
 Charge =  1 Multiplicity = 1

                         Standard orientation:
 ---------------------------------------------------------------------
 Center     Atomic      Atomic             Coordinates (Angstroms)
 Number     Number       Type             X           Y           Z
 ---------------------------------------------------------------------
      1          6           0        2.823911    0.203972   -0.564069
      2          6           0        3.347750    1.102492    0.394491
      3          6           0        4.731500    1.272033    0.483961
      4          6           0        5.626580    0.560583   -0.301199
      5          6           0        5.096251   -0.389407   -1.169139
      6          6           0        3.727361   -0.594838   -1.313359
      7          6           0        2.545170    1.862481    1.423131
      8          6           0        7.110260    0.793154   -0.211949
      9          6           0        3.333662   -1.720628   -2.245569
     10          6           0        0.943491    0.215800   -2.784089
     11          6           0        0.147242   -1.433960   -0.065559
     12          6           0        1.031842   -1.649990    1.173371
     13          6           0        2.140882   -2.509099    1.090071
     14          6           0        3.001612   -2.695118    2.161461
     15          6           0        2.795202   -2.012848    3.356521
     16          6           0        1.726151   -1.134669    3.450461
     17          6           0        0.862391   -0.951040    2.372791
     18          6           0       -0.079818   -2.703200   -0.882219
     19          6           0       -0.404368   -2.666700   -2.243309
     20          6           0       -0.666887   -3.824791   -2.968119
     21          6           0       -0.632646   -5.065711   -2.346719
     22          6           0       -0.337706   -5.127940   -0.989229
     23          6           0       -0.065207   -3.969600   -0.272459
     24          6           0       -2.884109   -0.031722    2.626301
     25          6           0       -4.399449   -0.203053    2.728121
     26          6           0       -2.311308   -2.409372    2.092491
     27          6           0       -1.974607   -2.747371    3.543741
     28          6           0       -3.353778   -2.034892   -1.073699
     29          6           0       -4.794788   -2.076543   -0.564519
     30          7           0       -2.180109   -0.981172    1.746951
     31          7           0       -2.657919   -0.733682   -0.952129
     32         15           0        0.992541    0.159130   -0.923409
     33         15           0       -1.516929   -0.399491    0.289731
     34          6           0       -2.764269    0.149788   -2.120879
     35          6           0       -4.169740    0.665457   -2.427939
     36          1           0        5.114469    1.975933    1.215061
     37          1           0        5.772341   -1.008136   -1.749619
     38          1           0        2.843949    2.912322    1.448571
     39          1           0        2.741310    1.443562    2.411761
     40          1           0        1.468520    1.816631    1.257391
     41          1           0        7.438380    1.485825   -0.992499
     42          1           0        7.390320    1.225415    0.749031
     43          1           0        7.668241   -0.134585   -0.346779
     44          1           0        3.363092   -1.408328   -3.292579
     45          1           0        2.349252   -2.133559   -2.042309
     46          1           0        4.050182   -2.536598   -2.144659
     47          1           0        1.563590    1.070031   -3.060189
     48          1           0       -0.073950    0.406790   -3.115589
     49          1           0        1.332041   -0.664059   -3.280339
     50          1           0        2.335873   -3.049079    0.175441
     51          1           0        3.838713   -3.374528    2.059531
     52          1           0        3.462102   -2.161108    4.196451
     53          1           0        1.552621   -0.585739    4.368251
     54          1           0        0.042301   -0.261770    2.489931
     55          1           0       -0.476598   -1.724690   -2.758739
     56          1           0       -0.903947   -3.750391   -4.022429
     57          1           0       -0.835235   -5.969021   -2.907829
     58          1           0       -0.313325   -6.083990   -0.480929
     59          1           0        0.171033   -4.061230    0.777411
     60          1           0       -2.445499   -0.093252    3.627231
     61          1           0       -2.671410    0.968798    2.260641
     62          1           0       -4.796260    0.526457    3.437621
     63          1           0       -4.887489   -0.039393    1.767401
     64          1           0       -4.680298   -1.192593    3.091321
     65          1           0       -1.651787   -2.972891    1.439131
     66          1           0       -3.328157   -2.754912    1.876881
     67          1           0       -0.962218   -2.442091    3.804951
     68          1           0       -2.048307   -3.828552    3.677891
     69          1           0       -2.668968   -2.289712    4.249281
     70          1           0       -2.775687   -2.801152   -0.562129
     71          1           0       -3.334528   -2.315232   -2.130529
     72          1           0       -5.207347   -3.072544   -0.744149
     73          1           0       -5.435928   -1.356344   -1.069259
     74          1           0       -4.848608   -1.881753    0.504481
     75          1           0       -2.380179   -0.369072   -3.009519
     76          1           0       -2.106640    1.001388   -1.935489
     77          1           0       -4.840469   -0.128493   -2.755209
     78          1           0       -4.614000    1.152077   -1.557919
     79          1           0       -4.116830    1.394777   -3.240119
     80          6           0        0.585658    3.703350   -0.602339
     81          1           0        1.625419    3.408561   -0.667809
     82          6           0       -0.230491    3.338940   -1.654949
     83          1           0        0.236069    2.812510   -2.479149
     84          6           0       -1.576982    3.932329   -1.993309
     85          1           0       -2.071461    3.265758   -2.702049
     86          1           0       -1.427212    4.876759   -2.531729
     87          6           0       -2.505372    4.164808   -0.782609
     88          1           0       -3.538772    4.171218   -1.132399
     89          1           0       -2.328353    5.152418   -0.355749
     90          6           0       -2.364281    3.116398    0.303891
     91          1           0       -3.182751    2.410918    0.388691
     92          6           0       -1.493701    3.206869    1.367011
     93          1           0       -1.688621    2.582619    2.231481
     94          6           0       -0.504902    4.316339    1.633551
     95          1           0        0.205498    3.954490    2.378801
     96          1           0       -1.026343    5.159609    2.103581
     97          6           0        0.270478    4.804360    0.392091
     98          1           0       -0.280813    5.600530   -0.109939
     99          1           0        1.206647    5.255591    0.724351
    100         45           0       -0.535330    1.761849   -0.082019
 ---------------------------------------------------------------------

 SCF Done:  E(RB3LYP) =  -2423.09313379     A.U. after   17 cycles

      1  C    Isotropic =    46.1866   Anisotropy =   130.3193

      2  C    Isotropic =    34.8166   Anisotropy =   197.2889

      3  C    Isotropic =    48.9638   Anisotropy =   144.5766

      4  C    Isotropic =    33.5726   Anisotropy =   207.9480

      5  C    Isotropic =    47.9850   Anisotropy =   143.0616

      6  C    Isotropic =    34.8592   Anisotropy =   190.9394

      7  C    Isotropic =   154.6950   Anisotropy =    25.4065

      8  C    Isotropic =   162.3465   Anisotropy =    43.4573

      9  C    Isotropic =   157.9128   Anisotropy =    28.7089

     10  C    Isotropic =   161.7610   Anisotropy =    18.3355

     11  C    Isotropic =    72.4546   Anisotropy =    51.9140

     12  C    Isotropic =    39.7373   Anisotropy =   181.9802

     13  C    Isotropic =    45.1356   Anisotropy =   191.2015

     14  C    Isotropic =    50.8043   Anisotropy =   188.8334

     15  C    Isotropic =    49.6791   Anisotropy =   192.5605

     16  C    Isotropic =    51.2761   Anisotropy =   185.8630

     17  C    Isotropic =    47.1768   Anisotropy =   193.7096

     18  C    Isotropic =    37.1858   Anisotropy =   184.3705

     19  C    Isotropic =    46.9864   Anisotropy =   186.5950

     20  C    Isotropic =    50.3459   Anisotropy =   186.8290

     21  C    Isotropic =    49.2630   Anisotropy =   192.0543

     22  C    Isotropic =    49.9557   Anisotropy =   187.0403

     23  C    Isotropic =    49.3167   Anisotropy =   181.6827

     24  C    Isotropic =   137.7744   Anisotropy =    47.2589

     25  C    Isotropic =   170.9158   Anisotropy =    19.5838

     26  C    Isotropic =   140.6714   Anisotropy =    44.6239

     27  C    Isotropic =   173.5210   Anisotropy =    20.2405

     28  C    Isotropic =   133.3552   Anisotropy =    50.0038

     29  C    Isotropic =   164.5205   Anisotropy =    32.8423

     30  N    Isotropic =   178.1970   Anisotropy =    75.8304

     31  N    Isotropic =   156.0446   Anisotropy =    46.7888

     32  P    Isotropic =   274.0238   Anisotropy =    53.1343

     33  P    Isotropic =   193.8974   Anisotropy =   104.5181

     34  C    Isotropic =   125.4701   Anisotropy =    51.4077

     35  C    Isotropic =   163.2975   Anisotropy =    27.9078

     36  H    Isotropic =    25.1136   Anisotropy =    10.6791

     37  H    Isotropic =    24.9574   Anisotropy =    10.0643

     38  H    Isotropic =    29.5834   Anisotropy =     6.9351

     39  H    Isotropic =    29.8413   Anisotropy =     4.6840

     40  H    Isotropic =    26.9743   Anisotropy =    10.9165

     41  H    Isotropic =    29.5504   Anisotropy =    10.0066

     42  H    Isotropic =    29.9175   Anisotropy =     7.9624

     43  H    Isotropic =    29.7573   Anisotropy =     8.4116

     44  H    Isotropic =    29.5126   Anisotropy =     7.5775

     45  H    Isotropic =    30.4229   Anisotropy =    11.7979

     46  H    Isotropic =    29.9201   Anisotropy =     8.9770

     47  H    Isotropic =    30.5997   Anisotropy =     6.8326

     48  H    Isotropic =    29.6883   Anisotropy =     5.6895

     49  H    Isotropic =    28.9397   Anisotropy =     8.1940

     50  H    Isotropic =    24.8532   Anisotropy =     9.2925

     51  H    Isotropic =    24.8313   Anisotropy =     5.5856

     52  H    Isotropic =    24.5487   Anisotropy =     2.8918

     53  H    Isotropic =    24.3830   Anisotropy =     6.7160

     54  H    Isotropic =    23.8400   Anisotropy =     8.1977

     55  H    Isotropic =    24.1508   Anisotropy =     8.3035

     56  H    Isotropic =    24.1647   Anisotropy =     6.9992

     57  H    Isotropic =    24.2228   Anisotropy =     3.0928

     58  H    Isotropic =    24.3389   Anisotropy =     6.3302

     59  H    Isotropic =    24.4220   Anisotropy =    12.3309

     60  H    Isotropic =    28.3579   Anisotropy =     6.9888

     61  H    Isotropic =    29.3065   Anisotropy =     8.8674

     62  H    Isotropic =    30.9372   Anisotropy =    12.1041

     63  H    Isotropic =    30.8801   Anisotropy =     6.1163

     64  H    Isotropic =    30.4202   Anisotropy =     8.1652

     65  H    Isotropic =    29.0060   Anisotropy =     8.0311

     66  H    Isotropic =    28.9268   Anisotropy =     6.0083

     67  H    Isotropic =    31.3448   Anisotropy =     9.3238

     68  H    Isotropic =    31.4754   Anisotropy =    12.2416

     69  H    Isotropic =    30.7591   Anisotropy =     9.2658

     70  H    Isotropic =    30.3358   Anisotropy =     8.8970

     71  H    Isotropic =    29.6570   Anisotropy =     5.4820

     72  H    Isotropic =    31.2918   Anisotropy =    12.1030

     73  H    Isotropic =    30.7418   Anisotropy =     7.0215

     74  H    Isotropic =    30.7345   Anisotropy =     6.7819

     75  H    Isotropic =    28.4498   Anisotropy =     4.4111

     76  H    Isotropic =    25.4551   Anisotropy =     8.6961

     77  H    Isotropic =    30.1242   Anisotropy =     8.2850

     78  H    Isotropic =    30.6657   Anisotropy =     5.2325

     79  H    Isotropic =    30.4455   Anisotropy =    10.1551

     80  C    Isotropic =    86.2203   Anisotropy =   113.2233

     81  H    Isotropic =    27.8557   Anisotropy =     5.2219

     82  C    Isotropic =    74.6486   Anisotropy =   118.1442

     83  H    Isotropic =    26.5584   Anisotropy =     3.2222

     84  C    Isotropic =   147.3182   Anisotropy =    28.0662

     85  H    Isotropic =    29.1361   Anisotropy =     6.6266

     86  H    Isotropic =    29.1669   Anisotropy =    12.8687

     87  C    Isotropic =   154.1869   Anisotropy =    25.4064

     88  H    Isotropic =    29.7672   Anisotropy =    10.3973

     89  H    Isotropic =    29.7808   Anisotropy =    10.0504

     90  C    Isotropic =    82.5340   Anisotropy =   121.7339

     91  H    Isotropic =    26.8919   Anisotropy =     4.8862

     92  C    Isotropic =    73.4393   Anisotropy =   120.0143

     93  H    Isotropic =    25.6673   Anisotropy =     3.3479

     94  C    Isotropic =   146.0264   Anisotropy =    29.3413

     95  H    Isotropic =    28.8938   Anisotropy =     6.7720

     96  H    Isotropic =    29.0721   Anisotropy =    12.7976

     97  C    Isotropic =   154.8019   Anisotropy =    23.5570

     98  H    Isotropic =    29.8648   Anisotropy =    10.1283

     99  H    Isotropic =    29.8428   Anisotropy =    11.0446

    100  Rh   Isotropic =  -366.8245   Anisotropy =   393.8116

 The electronic state is 1-A.
 Alpha  occ. eigenvalues --  -77.26280 -77.23504 -14.41977 -14.41880 -10.32515
 Alpha  occ. eigenvalues --  -10.29733 -10.29700 -10.29338 -10.29186 -10.29139
 Alpha  occ. eigenvalues --  -10.29099 -10.28931 -10.28842 -10.28707 -10.28670
 Alpha  occ. eigenvalues --  -10.28386 -10.28373 -10.28232 -10.28219 -10.27586
 Alpha  occ. eigenvalues --  -10.27390 -10.27324 -10.27185 -10.27118 -10.26941
 Alpha  occ. eigenvalues --  -10.26827 -10.26737 -10.26637 -10.26545 -10.26535
 Alpha  occ. eigenvalues --  -10.26455 -10.26294 -10.26211 -10.26155 -10.25855
 Alpha  occ. eigenvalues --  -10.25471 -10.25419 -10.25407 -10.25265 -10.24977
 Alpha  occ. eigenvalues --  -10.24565 -10.24543 -10.24290  -6.71477  -6.69320
 Alpha  occ. eigenvalues --   -4.87814  -4.87726  -4.87440  -4.85601  -4.85539
 Alpha  occ. eigenvalues --   -4.85248  -3.31449  -2.08306  -2.07579  -2.05023
 Alpha  occ. eigenvalues --   -1.02666  -0.99891  -0.96617  -0.95825  -0.94928
 Alpha  occ. eigenvalues --   -0.94418  -0.89624  -0.89129  -0.88033  -0.87881
 Alpha  occ. eigenvalues --   -0.87605  -0.85774  -0.85498  -0.84784  -0.84376
 Alpha  occ. eigenvalues --   -0.83854  -0.83811  -0.83565  -0.81463  -0.80277
 Alpha  occ. eigenvalues --   -0.79719  -0.78610  -0.77741  -0.77427  -0.76894
 Alpha  occ. eigenvalues --   -0.73541  -0.73256  -0.72449  -0.70945  -0.70532
 Alpha  occ. eigenvalues --   -0.70225  -0.69712  -0.69045  -0.67634  -0.67054
 Alpha  occ. eigenvalues --   -0.66843  -0.65948  -0.64823  -0.64452  -0.62305
 Alpha  occ. eigenvalues --   -0.61571  -0.60761  -0.59999  -0.59659  -0.58451
 Alpha  occ. eigenvalues --   -0.58022  -0.57710  -0.57056  -0.56534  -0.56406
 Alpha  occ. eigenvalues --   -0.56074  -0.55602  -0.55167  -0.54931  -0.54192
 Alpha  occ. eigenvalues --   -0.53978  -0.53719  -0.53511  -0.53119  -0.52666
 Alpha  occ. eigenvalues --   -0.52636  -0.52343  -0.52233  -0.52132  -0.51855
 Alpha  occ. eigenvalues --   -0.51621  -0.51354  -0.51079  -0.50808  -0.50434
 Alpha  occ. eigenvalues --   -0.50189  -0.49968  -0.49687  -0.49579  -0.49311
 Alpha  occ. eigenvalues --   -0.48569  -0.48361  -0.48134  -0.48049  -0.47819
 Alpha  occ. eigenvalues --   -0.47632  -0.47453  -0.46828  -0.46725  -0.46261
 Alpha  occ. eigenvalues --   -0.46137  -0.46053  -0.45870  -0.45784  -0.45744
 Alpha  occ. eigenvalues --   -0.45151  -0.44912  -0.44329  -0.44229  -0.44114
 Alpha  occ. eigenvalues --   -0.43821  -0.43475  -0.43318  -0.43147  -0.42990
 Alpha  occ. eigenvalues --   -0.42794  -0.42714  -0.42369  -0.41679  -0.41254
 Alpha  occ. eigenvalues --   -0.40980  -0.37578  -0.36751  -0.35510  -0.35181
 Alpha  occ. eigenvalues --   -0.35052  -0.34759  -0.34348  -0.34183  -0.33413
 Alpha  occ. eigenvalues --   -0.33356  -0.33046  -0.32466  -0.31431  -0.30438
 Alpha virt. eigenvalues --   -0.16104  -0.13605  -0.12775  -0.12010  -0.11040
 Alpha virt. eigenvalues --   -0.10860  -0.10486  -0.09268  -0.09243  -0.07820
 Alpha virt. eigenvalues --   -0.07329  -0.06636  -0.06107  -0.05637  -0.05478

 Mulliken charges:
               1
     1  C    0.017887
     2  C    0.128371
     3  C   -0.208048
     4  C    0.190024
     5  C   -0.183282
     6  C    0.176324
     7  C   -0.491910
     8  C   -0.441697
     9  C   -0.552183
    10  C   -0.517767
    11  C   -0.348061
    12  C   -0.152883
    13  C   -0.101214
    14  C   -0.095311
    15  C   -0.067538
    16  C   -0.155313
    17  C   -0.052455
    18  C    0.014345
    19  C   -0.149697
    20  C   -0.123292
    21  C   -0.093997
    22  C   -0.092794
    23  C   -0.151850
    24  C   -0.131494
    25  C   -0.399832
    26  C   -0.105967
    27  C   -0.422496
    28  C   -0.110013
    29  C   -0.374257
    30  N   -0.321468
    31  N   -0.274104
    32  P    0.272100
    33  P    0.481335
    34  C   -0.161495
    35  C   -0.402017
    36  H    0.111736
    37  H    0.115028
    38  H    0.155037
    39  H    0.170621
    40  H    0.211727
    41  H    0.155870
    42  H    0.140138
    43  H    0.140748
    44  H    0.168743
    45  H    0.184477
    46  H    0.163026
    47  H    0.192871
    48  H    0.172247
    49  H    0.199150
    50  H    0.168171
    51  H    0.121689
    52  H    0.123743
    53  H    0.117164
    54  H    0.165102
    55  H    0.144780
    56  H    0.120681
    57  H    0.129938
    58  H    0.128503
    59  H    0.184053
    60  H    0.165831
    61  H    0.090295
    62  H    0.145296
    63  H    0.135503
    64  H    0.144657
    65  H    0.133252
    66  H    0.159166
    67  H    0.160097
    68  H    0.141784
    69  H    0.139214
    70  H    0.160675
    71  H    0.146967
    72  H    0.141141
    73  H    0.131527
    74  H    0.127499
    75  H    0.138657
    76  H    0.155867
    77  H    0.148283
    78  H    0.130049
    79  H    0.135807
    80  C   -0.008065
    81  H    0.200832
    82  C   -0.111374
    83  H    0.196249
    84  C   -0.243635
    85  H    0.136771
    86  H    0.174438
    87  C   -0.360843
    88  H    0.169058
    89  H    0.171420
    90  C   -0.043196
    91  H    0.184559
    92  C   -0.050166
    93  H    0.196076
    94  C   -0.237805
    95  H    0.142943
    96  H    0.170669
    97  C   -0.364501
    98  H    0.167836
    99  H    0.167913
   100  Rh  -0.773938
 Sum of Mulliken charges =   1.00000

 Dipole moment (field-independent basis, Debye):
    X=             -0.2414    Y=              1.1486    Z=             -0.8434  Tot=              1.4453
 Quadrupole moment (field-independent basis, Debye-Ang):
   XX=           -242.5504   YY=           -244.8639   ZZ=           -263.1955
   XY=             -1.6570   XZ=              1.0543   YZ=              3.7147

 Summary of Natural Population Analysis:

                                       Natural Population
                Natural  -----------------------------------------------
    Atom  No    Charge         Core      Valence    Rydberg      Total
 -----------------------------------------------------------------------
      C    1   -0.35293      1.99882     4.32965    0.02446     6.35293
      C    2    0.02024      1.99905     3.96227    0.01844     5.97976
      C    3   -0.20577      1.99901     4.19335    0.01341     6.20577
      C    4    0.03207      1.99910     3.95444    0.01439     5.96793
      C    5   -0.20543      1.99901     4.19298    0.01344     6.20543
      C    6    0.01736      1.99904     3.96624    0.01736     5.98264
      C    7   -0.60640      1.99939     4.59775    0.00926     6.60640
      C    8   -0.61613      1.99941     4.60993    0.00680     6.61613
      C    9   -0.63062      1.99939     4.62162    0.00961     6.63062
      C   10   -0.91445      1.99939     4.90438    0.01069     6.91445
      C   11   -0.51939      1.99917     4.48417    0.03605     6.51939
      C   12   -0.07658      1.99899     4.05129    0.02631     6.07658
      C   13   -0.19724      1.99907     4.18180    0.01636     6.19724
      C   14   -0.19525      1.99919     4.18082    0.01524     6.19525
      C   15   -0.18947      1.99918     4.17536    0.01493     6.18947
      C   16   -0.20845      1.99919     4.19357    0.01569     6.20845
      C   17   -0.20425      1.99907     4.18889    0.01629     6.20425
      C   18   -0.08148      1.99898     4.05550    0.02700     6.08148
      C   19   -0.21320      1.99907     4.19796    0.01616     6.21320
      C   20   -0.19910      1.99919     4.18451    0.01539     6.19910
      C   21   -0.19168      1.99919     4.17761    0.01489     6.19168
      C   22   -0.19430      1.99919     4.17987    0.01525     6.19430
      C   23   -0.21474      1.99907     4.20100    0.01467     6.21474
      C   24   -0.19774      1.99934     4.18438    0.01402     6.19774
      C   25   -0.61148      1.99945     4.60536    0.00667     6.61148
      C   26   -0.21248      1.99934     4.19674    0.01640     6.21248
      C   27   -0.60944      1.99944     4.60191    0.00809     6.60944
      C   28   -0.21425      1.99935     4.19770    0.01719     6.21425
      C   29   -0.60228      1.99944     4.59517    0.00766     6.60228
      N   30   -0.76750      1.99952     5.74435    0.02363     7.76750
      N   31   -0.76590      1.99952     5.73816    0.02821     7.76590
      P   32    1.10645      9.99636     3.84551    0.05168    13.89355
      P   33    1.52026      9.99593     3.41345    0.07036    13.47974
      C   34   -0.19529      1.99936     4.18074    0.01519     6.19529
      C   35   -0.60471      1.99945     4.59731    0.00794     6.60471
      H   36    0.20729      0.00000     0.79090    0.00181     0.79271
      H   37    0.20777      0.00000     0.79031    0.00193     0.79223
      H   38    0.21410      0.00000     0.78390    0.00200     0.78590
      H   39    0.23312      0.00000     0.76521    0.00167     0.76688
      H   40    0.21610      0.00000     0.78002    0.00388     0.78390
      H   41    0.22664      0.00000     0.77204    0.00132     0.77336
      H   42    0.21834      0.00000     0.78050    0.00116     0.78166
      H   43    0.22030      0.00000     0.77849    0.00121     0.77970
      H   44    0.22114      0.00000     0.77730    0.00156     0.77886
      H   45    0.21311      0.00000     0.78477    0.00212     0.78689
      H   46    0.22962      0.00000     0.76915    0.00122     0.77038
      H   47    0.24738      0.00000     0.75129    0.00133     0.75262
      H   48    0.23586      0.00000     0.76271    0.00142     0.76414
      H   49    0.24450      0.00000     0.75354    0.00197     0.75550
      H   50    0.21788      0.00000     0.77980    0.00231     0.78212
      H   51    0.21866      0.00000     0.77998    0.00136     0.78134
      H   52    0.21946      0.00000     0.77942    0.00112     0.78054
      H   53    0.21541      0.00000     0.78321    0.00138     0.78459
      H   54    0.22035      0.00000     0.77699    0.00266     0.77965
      H   55    0.20584      0.00000     0.79111    0.00305     0.79416
      H   56    0.21707      0.00000     0.78152    0.00141     0.78293
      H   57    0.22147      0.00000     0.77741    0.00112     0.77853
      H   58    0.22037      0.00000     0.77835    0.00128     0.77963
      H   59    0.22358      0.00000     0.77453    0.00189     0.77642
      H   60    0.18876      0.00000     0.80857    0.00267     0.81124
      H   61    0.19631      0.00000     0.80101    0.00268     0.80369
      H   62    0.21919      0.00000     0.77969    0.00112     0.78081
      H   63    0.20632      0.00000     0.79215    0.00153     0.79368
      H   64    0.20694      0.00000     0.79174    0.00132     0.79306
      H   65    0.20585      0.00000     0.79124    0.00292     0.79415
      H   66    0.18287      0.00000     0.81386    0.00328     0.81713
      H   67    0.21490      0.00000     0.78373    0.00138     0.78510
      H   68    0.22007      0.00000     0.77884    0.00108     0.77993
      H   69    0.20355      0.00000     0.79512    0.00133     0.79645
      H   70    0.20235      0.00000     0.79431    0.00334     0.79765
      H   71    0.19728      0.00000     0.79993    0.00279     0.80272
      H   72    0.21533      0.00000     0.78349    0.00118     0.78467
      H   73    0.20569      0.00000     0.79280    0.00151     0.79431
      H   74    0.20209      0.00000     0.79632    0.00159     0.79791
      H   75    0.17189      0.00000     0.82515    0.00296     0.82811
      H   76    0.21302      0.00000     0.78334    0.00364     0.78698
      H   77    0.20955      0.00000     0.78908    0.00136     0.79045
      H   78    0.20412      0.00000     0.79437    0.00151     0.79588
      H   79    0.21268      0.00000     0.78612    0.00120     0.78732
      C   80   -0.19994      1.99905     4.18101    0.01988     6.19994
      H   81    0.22952      0.00000     0.76850    0.00198     0.77048
      C   82   -0.14390      1.99906     4.12483    0.02001     6.14390
      H   83    0.22025      0.00000     0.77762    0.00213     0.77975
      C   84   -0.41830      1.99935     4.40605    0.01290     6.41830
      H   85    0.21139      0.00000     0.78676    0.00186     0.78861
      H   86    0.23419      0.00000     0.76383    0.00198     0.76581
      C   87   -0.42393      1.99936     4.41241    0.01216     6.42393
      H   88    0.22804      0.00000     0.77044    0.00152     0.77196
      H   89    0.21666      0.00000     0.78130    0.00204     0.78334
      C   90   -0.17806      1.99905     4.15927    0.01974     6.17806
      H   91    0.22604      0.00000     0.77181    0.00215     0.77396
      C   92   -0.16253      1.99906     4.14325    0.02021     6.16253
      H   93    0.22132      0.00000     0.77650    0.00218     0.77868
      C   94   -0.41718      1.99935     4.40521    0.01262     6.41718
      H   95    0.21635      0.00000     0.78203    0.00162     0.78365
      H   96    0.23336      0.00000     0.76465    0.00199     0.76664
      C   97   -0.42177      1.99935     4.41030    0.01211     6.42177
      H   98    0.21492      0.00000     0.78301    0.00207     0.78508
      H   99    0.22760      0.00000     0.77088    0.00152     0.77240
     Rh  100   -0.40659     35.98493     9.39589    0.02576    45.40659
 =======================================================================
   * Total *    1.00000    137.94523   239.14462    0.91015   378.00000

 Normal termination of Gaussian 16 at Mon Jan 20 00:23:52 2025.
