 Gaussian 16, Revision B.01,
 Gaussian 16:  ES64L-G16RevB.01 20-Dec-2017

 ------------------------------------------
 # nmr=giao b3lyp/genecp pop=nbo scfcyc=200
 ------------------------------------------

 ---------
 DS-12_SPE
 ---------
 Symbolic Z-matrix:
 Charge =  1 Multiplicity = 1

                         Standard orientation:
 ---------------------------------------------------------------------
 Center     Atomic      Atomic             Coordinates (Angstroms)
 Number     Number       Type             X           Y           Z
 ---------------------------------------------------------------------
      1         15           0       -1.421319   -0.269101    0.106071
      2         15           0        1.393931   -0.328498    0.140551
      3          6           0        2.335233   -2.949247   -0.378909
      4          6           0        2.757504   -3.975597   -1.213819
      5          6           0        2.801854   -3.784347   -2.592849
      6          6           0        2.420573   -2.564337   -3.139249
      7          6           0        1.992872   -1.533538   -2.309049
      8          6           0        1.953342   -1.717338   -0.924679
      9          1           0        2.319323   -3.111028    0.691031
     10          1           0        3.053745   -4.925127   -0.786419
     11          1           0        3.133464   -4.587267   -3.239079
     12          1           0        2.452512   -2.414247   -4.210949
     13          1           0        1.682281   -0.589858   -2.737999
     14          6           0        4.068481   -0.377936    1.069561
     15          6           0        5.100910    0.035865    1.905561
     16          6           0        4.850459    0.929225    2.940021
     17          6           0        3.563079    1.423414    3.135901
     18          6           0        2.531209    1.025533    2.297771
     19          6           0        2.774680    0.108203    1.268131
     20          1           0        4.276371   -1.081166    0.274951
     21          1           0        6.100651   -0.348814    1.749451
     22          1           0        5.654969    1.240915    3.593821
     23          1           0        3.364768    2.119623    3.940921
     24          1           0        1.535579    1.425482    2.450341
     25          6           0       -2.587651    1.075948    2.256041
     26          6           0       -3.634011    1.481117    3.072501
     27          6           0       -4.925531    1.018786    2.831721
     28          6           0       -5.165850    0.149656    1.774391
     29          6           0       -4.119599   -0.270833    0.959311
     30          6           0       -2.821970    0.183778    1.202361
     31          1           0       -1.587791    1.448319    2.446521
     32          1           0       -3.443522    2.157477    3.896101
     33          1           0       -5.741161    1.335755    3.468961
     34          1           0       -6.168640   -0.211045    1.584291
     35          1           0       -4.319329   -0.955773    0.146731
     36          6           0       -2.070109   -1.375241   -2.375139
     37          6           0       -2.518818   -2.370572   -3.236789
     38          6           0       -2.883207   -3.614082   -2.732979
     39          6           0       -2.802536   -3.863832   -1.365109
     40          6           0       -2.360047   -2.872632   -0.498569
     41          6           0       -1.993358   -1.618601   -1.001409
     42          1           0       -1.774349   -0.412191   -2.770849
     43          1           0       -2.580478   -2.174782   -4.299799
     44          1           0       -3.230526   -4.389592   -3.403959
     45          1           0       -3.086495   -4.831352   -0.971019
     46          1           0       -2.317037   -3.079172    0.562901
     47          6           0       -0.040889   -1.012470    1.117571
     48         45           0        0.035459    1.340770   -0.783189
     49          6           0       -1.337742    2.719189   -1.995619
     50          6           0       -1.393502    3.101279   -0.672989
     51          6           0        1.531938    3.085132   -0.802369
     52          6           0        1.579118    2.442802   -2.020329
     53          6           0       -0.548233    3.417840   -3.086979
     54          1           0       -2.119212    2.049239   -2.339369
     55          1           0       -2.225352    2.728298   -0.085779
     56          6           0       -0.627533    4.225460   -0.022179
     57          6           0        0.821846    4.396021   -0.523119
     58          1           0        2.263038    2.782542   -0.061329
     59          6           0        0.875108    2.853461   -3.290129
     60          1           0        2.375149    1.717733   -2.160169
     61          1           0       -1.094643    3.317689   -4.026079
     62          1           0       -0.506304    4.486640   -2.879459
     63          1           0       -1.178154    5.165309   -0.153689
     64          1           0       -0.615703    4.038980    1.053771
     65          1           0        0.844446    5.019871   -1.416169
     66          1           0        1.387856    4.938322    0.235881
     67          1           0        0.822219    1.977401   -3.940799
     68          1           0        1.488667    3.584802   -3.830519
     69          6           0       -0.067788   -1.653920    2.310131
     70          6           0        1.119862   -2.071229    2.993991
     71          6           0       -1.284988   -2.035591    2.962071
     72          7           0        2.058212   -2.448868    3.547651
     73          7           0       -2.246698   -2.388542    3.491411
 ---------------------------------------------------------------------

 SCF Done:  E(RB3LYP) =  -2294.21954719     A.U. after   19 cycles

      1  P    Isotropic =   275.6776   Anisotropy =   114.1783

      2  P    Isotropic =   276.5085   Anisotropy =   113.1520

      3  C    Isotropic =    44.2429   Anisotropy =   189.1919

      4  C    Isotropic =    47.8387   Anisotropy =   192.8953

      5  C    Isotropic =    43.3634   Anisotropy =   202.6914

      6  C    Isotropic =    48.9266   Anisotropy =   190.1036

      7  C    Isotropic =    42.1762   Anisotropy =   181.3367

      8  C    Isotropic =    49.7499   Anisotropy =   154.7438

      9  H    Isotropic =    23.9056   Anisotropy =     9.9863

     10  H    Isotropic =    24.1924   Anisotropy =     5.8077

     11  H    Isotropic =    24.0904   Anisotropy =     3.5182

     12  H    Isotropic =    24.2793   Anisotropy =     6.6574

     13  H    Isotropic =    23.9317   Anisotropy =     9.7214

     14  C    Isotropic =    45.7094   Anisotropy =   194.4806

     15  C    Isotropic =    47.9334   Anisotropy =   191.7374

     16  C    Isotropic =    44.1971   Anisotropy =   199.4004

     17  C    Isotropic =    48.3518   Anisotropy =   190.1302

     18  C    Isotropic =    47.5504   Anisotropy =   186.0885

     19  C    Isotropic =    49.3703   Anisotropy =   158.6909

     20  H    Isotropic =    24.8273   Anisotropy =    12.5626

     21  H    Isotropic =    24.2318   Anisotropy =     6.4686

     22  H    Isotropic =    23.9674   Anisotropy =     3.8261

     23  H    Isotropic =    23.9110   Anisotropy =     6.7857

     24  H    Isotropic =    23.8432   Anisotropy =     9.8841

     25  C    Isotropic =    47.9517   Anisotropy =   185.0177

     26  C    Isotropic =    48.3631   Anisotropy =   190.2913

     27  C    Isotropic =    44.1709   Anisotropy =   199.4701

     28  C    Isotropic =    47.7536   Anisotropy =   192.0681

     29  C    Isotropic =    45.7774   Anisotropy =   194.1418

     30  C    Isotropic =    48.6300   Anisotropy =   158.6193

     31  H    Isotropic =    23.8584   Anisotropy =     9.6582

     32  H    Isotropic =    23.8807   Anisotropy =     6.7693

     33  H    Isotropic =    23.9555   Anisotropy =     3.8363

     34  H    Isotropic =    24.2321   Anisotropy =     6.5264

     35  H    Isotropic =    24.9534   Anisotropy =    12.7457

     36  C    Isotropic =    41.8609   Anisotropy =   181.4916

     37  C    Isotropic =    48.9426   Anisotropy =   190.0067

     38  C    Isotropic =    43.4127   Anisotropy =   202.7284

     39  C    Isotropic =    47.8604   Anisotropy =   192.9539

     40  C    Isotropic =    44.5314   Anisotropy =   189.5319

     41  C    Isotropic =    50.4155   Anisotropy =   156.0568

     42  H    Isotropic =    23.9376   Anisotropy =    10.1946

     43  H    Isotropic =    24.2323   Anisotropy =     6.5906

     44  H    Isotropic =    24.0920   Anisotropy =     3.3804

     45  H    Isotropic =    24.2359   Anisotropy =     5.7941

     46  H    Isotropic =    24.0376   Anisotropy =     9.9308

     47  C    Isotropic =   -13.1971   Anisotropy =   167.0572

     48  Rh   Isotropic =  -312.4332   Anisotropy =   305.8311

     49  C    Isotropic =    76.7092   Anisotropy =   122.4265

     50  C    Isotropic =    67.8376   Anisotropy =   129.4274

     51  C    Isotropic =    68.9928   Anisotropy =   134.9237

     52  C    Isotropic =    76.1814   Anisotropy =   115.9129

     53  C    Isotropic =   154.1500   Anisotropy =    25.0970

     54  H    Isotropic =    26.6587   Anisotropy =     6.9478

     55  H    Isotropic =    26.5045   Anisotropy =     4.0377

     56  C    Isotropic =   147.4914   Anisotropy =    28.6222

     57  C    Isotropic =   153.6588   Anisotropy =    25.4472

     58  H    Isotropic =    26.9398   Anisotropy =     5.0349

     59  C    Isotropic =   148.2766   Anisotropy =    29.2850

     60  H    Isotropic =    26.1791   Anisotropy =     4.5353

     61  H    Isotropic =    29.7075   Anisotropy =    11.9409

     62  H    Isotropic =    29.5791   Anisotropy =     9.3561

     63  H    Isotropic =    29.1239   Anisotropy =    12.3485

     64  H    Isotropic =    28.9795   Anisotropy =     7.4054

     65  H    Isotropic =    29.6111   Anisotropy =     9.4095

     66  H    Isotropic =    29.7947   Anisotropy =    11.0016

     67  H    Isotropic =    28.9870   Anisotropy =     8.6331

     68  H    Isotropic =    28.9629   Anisotropy =    12.6721

     69  C    Isotropic =    82.9978   Anisotropy =    97.9936

     70  C    Isotropic =    69.1839   Anisotropy =   329.6312

     71  C    Isotropic =    69.3828   Anisotropy =   329.5686

     72  N    Isotropic =   -73.0734   Anisotropy =   425.5890

     73  N    Isotropic =   -73.7364   Anisotropy =   425.1402

 The electronic state is 1-A.
 Alpha  occ. eigenvalues --  -77.25924 -77.25920 -14.43307 -14.43283 -10.37953
 Alpha  occ. eigenvalues --  -10.35241 -10.32735 -10.32704 -10.30861 -10.30855
 Alpha  occ. eigenvalues --  -10.30508 -10.30489 -10.30366 -10.30343 -10.30278
 Alpha  occ. eigenvalues --  -10.30139 -10.29496 -10.29491 -10.29298 -10.29266
 Alpha  occ. eigenvalues --  -10.29128 -10.29120 -10.28803 -10.28784 -10.28769
 Alpha  occ. eigenvalues --  -10.28669 -10.28611 -10.28597 -10.28499 -10.28484
 Alpha  occ. eigenvalues --  -10.28457 -10.28415 -10.28407 -10.28398 -10.28131
 Alpha  occ. eigenvalues --  -10.28120 -10.28015 -10.27999 -10.27900 -10.27884
 Alpha  occ. eigenvalues --   -6.71839  -6.71837  -4.88166  -4.88163  -4.88022
 Alpha  occ. eigenvalues --   -4.88020  -4.87747  -4.87746  -3.33294  -2.10198
 Alpha  occ. eigenvalues --   -2.09494  -2.06777  -1.03747  -1.02255  -0.98031
 Alpha  occ. eigenvalues --   -0.97613  -0.96922  -0.96871  -0.95824  -0.95672
 Alpha  occ. eigenvalues --   -0.90465  -0.89207  -0.89148  -0.88357  -0.86308
 Alpha  occ. eigenvalues --   -0.86264  -0.86045  -0.86001  -0.85673  -0.85644
 Alpha  occ. eigenvalues --   -0.83011  -0.81548  -0.79045  -0.77225  -0.74369
 Alpha  occ. eigenvalues --   -0.72225  -0.72168  -0.71993  -0.71784  -0.71745
 Alpha  occ. eigenvalues --   -0.71123  -0.71036  -0.70722  -0.69043  -0.67719
 Alpha  occ. eigenvalues --   -0.67044  -0.63987  -0.63530  -0.63383  -0.63108
 Alpha  occ. eigenvalues --   -0.61316  -0.61178  -0.58598  -0.58314  -0.57456
 Alpha  occ. eigenvalues --   -0.57195  -0.57092  -0.56948  -0.56926  -0.56203
 Alpha  occ. eigenvalues --   -0.56188  -0.55512  -0.54903  -0.54835  -0.54239
 Alpha  occ. eigenvalues --   -0.53903  -0.53815  -0.53660  -0.53561  -0.53291
 Alpha  occ. eigenvalues --   -0.53274  -0.52230  -0.51778  -0.50703  -0.49909
 Alpha  occ. eigenvalues --   -0.49669  -0.49020  -0.48681  -0.48556  -0.48139
 Alpha  occ. eigenvalues --   -0.48015  -0.47811  -0.47651  -0.47346  -0.47181
 Alpha  occ. eigenvalues --   -0.46677  -0.46323  -0.46005  -0.45897  -0.45709
 Alpha  occ. eigenvalues --   -0.45611  -0.45355  -0.45151  -0.44814  -0.44600
 Alpha  occ. eigenvalues --   -0.44449  -0.44271  -0.44221  -0.42817  -0.40649
 Alpha  occ. eigenvalues --   -0.39262  -0.38719  -0.37887  -0.37367  -0.37100
 Alpha  occ. eigenvalues --   -0.36868  -0.36864  -0.36462  -0.36365  -0.36138
 Alpha  occ. eigenvalues --   -0.35860  -0.35829  -0.35488  -0.32419
 Alpha virt. eigenvalues --   -0.22157  -0.16412  -0.16204  -0.15546  -0.14057
 Alpha virt. eigenvalues --   -0.13706  -0.12995  -0.12385  -0.11745  -0.11660
 Alpha virt. eigenvalues --   -0.11435  -0.10678  -0.10389  -0.08773  -0.07956

 Mulliken charges:
               1
     1  P    0.374469
     2  P    0.343575
     3  C   -0.009201
     4  C   -0.116618
     5  C   -0.070665
     6  C   -0.133569
     7  C    0.016435
     8  C   -0.262230
     9  H    0.159110
    10  H    0.141095
    11  H    0.143343
    12  H    0.132034
    13  H    0.149979
    14  C   -0.018151
    15  C   -0.106185
    16  C   -0.080258
    17  C   -0.097798
    18  C   -0.040180
    19  C   -0.228672
    20  H    0.166732
    21  H    0.137993
    22  H    0.142236
    23  H    0.133602
    24  H    0.143968
    25  C   -0.040333
    26  C   -0.094005
    27  C   -0.079880
    28  C   -0.104105
    29  C   -0.014342
    30  C   -0.244645
    31  H    0.144565
    32  H    0.133757
    33  H    0.142040
    34  H    0.137900
    35  H    0.164368
    36  C    0.011546
    37  C   -0.125394
    38  C   -0.075367
    39  C   -0.109179
    40  C   -0.004494
    41  C   -0.270670
    42  H    0.128960
    43  H    0.132942
    44  H    0.143471
    45  H    0.140486
    46  H    0.155263
    47  C   -0.513616
    48  Rh  -0.600268
    49  C    0.014398
    50  C   -0.126139
    51  C   -0.030662
    52  C   -0.089969
    53  C   -0.354472
    54  H    0.177602
    55  H    0.234354
    56  C   -0.235364
    57  C   -0.360362
    58  H    0.223808
    59  C   -0.222284
    60  H    0.190493
    61  H    0.172958
    62  H    0.170602
    63  H    0.179327
    64  H    0.132792
    65  H    0.170062
    66  H    0.174059
    67  H    0.131543
    68  H    0.178826
    69  C    0.132358
    70  C    0.034270
    71  C    0.028760
    72  N   -0.054261
    73  N   -0.052740
 Sum of Mulliken charges =   1.00000

 Dipole moment (field-independent basis, Debye):
    X=              0.1407    Y=              3.3068    Z=             -5.3670  Tot=              6.3055
 Quadrupole moment (field-independent basis, Debye-Ang):
   XX=           -215.5599   YY=           -217.7075   ZZ=           -236.7318
   XY=             -0.2560   XZ=              0.9055   YZ=             23.8680

 Summary of Natural Population Analysis:

                                       Natural Population
                Natural  -----------------------------------------------
    Atom  No    Charge         Core      Valence    Rydberg      Total
 -----------------------------------------------------------------------
      P    1    1.13242      9.99615     3.81543    0.05599    13.86758
      P    2    1.13427      9.99615     3.81318    0.05640    13.86573
      C    3   -0.18886      1.99909     4.17229    0.01748     6.18886
      C    4   -0.18872      1.99920     4.17439    0.01513     6.18872
      C    5   -0.16648      1.99921     4.15267    0.01460     6.16648
      C    6   -0.19544      1.99920     4.18148    0.01476     6.19544
      C    7   -0.17713      1.99910     4.16232    0.01571     6.17713
      C    8   -0.34939      1.99898     4.32505    0.02536     6.34939
      H    9    0.22569      0.00000     0.77191    0.00241     0.77431
      H   10    0.22747      0.00000     0.77124    0.00129     0.77253
      H   11    0.22500      0.00000     0.77390    0.00110     0.77500
      H   12    0.22288      0.00000     0.77592    0.00119     0.77712
      H   13    0.21713      0.00000     0.78066    0.00221     0.78287
      C   14   -0.18256      1.99910     4.16798    0.01548     6.18256
      C   15   -0.18340      1.99920     4.16950    0.01471     6.18340
      C   16   -0.16720      1.99921     4.15331    0.01468     6.16720
      C   17   -0.18890      1.99920     4.17448    0.01522     6.18890
      C   18   -0.19448      1.99909     4.17870    0.01669     6.19448
      C   19   -0.35731      1.99899     4.33185    0.02647     6.35731
      H   20    0.22520      0.00000     0.77298    0.00182     0.77480
      H   21    0.22554      0.00000     0.77328    0.00118     0.77446
      H   22    0.22529      0.00000     0.77361    0.00110     0.77471
      H   23    0.22340      0.00000     0.77528    0.00132     0.77660
      H   24    0.21288      0.00000     0.78501    0.00211     0.78712
      C   25   -0.19620      1.99909     4.18021    0.01691     6.19620
      C   26   -0.18851      1.99920     4.17407    0.01525     6.18851
      C   27   -0.16700      1.99920     4.15313    0.01467     6.16700
      C   28   -0.18299      1.99920     4.16911    0.01468     6.18299
      C   29   -0.18235      1.99909     4.16770    0.01555     6.18235
      C   30   -0.35777      1.99899     4.33241    0.02637     6.35777
      H   31    0.21200      0.00000     0.78574    0.00226     0.78800
      H   32    0.22355      0.00000     0.77513    0.00132     0.77645
      H   33    0.22535      0.00000     0.77354    0.00110     0.77465
      H   34    0.22558      0.00000     0.77324    0.00118     0.77442
      H   35    0.22529      0.00000     0.77288    0.00184     0.77471
      C   36   -0.17761      1.99910     4.16287    0.01564     6.17761
      C   37   -0.19547      1.99920     4.18153    0.01474     6.19547
      C   38   -0.16680      1.99921     4.15298    0.01461     6.16680
      C   39   -0.18849      1.99920     4.17417    0.01512     6.18849
      C   40   -0.18707      1.99909     4.17054    0.01744     6.18707
      C   41   -0.34851      1.99898     4.32406    0.02547     6.34851
      H   42    0.21790      0.00000     0.78012    0.00197     0.78210
      H   43    0.22296      0.00000     0.77585    0.00119     0.77704
      H   44    0.22500      0.00000     0.77390    0.00110     0.77500
      H   45    0.22739      0.00000     0.77132    0.00129     0.77261
      H   46    0.22409      0.00000     0.77350    0.00241     0.77591
      C   47   -0.44064      1.99904     4.41473    0.02687     6.44064
     Rh   48   -0.38384     35.98577     9.37046    0.02761    45.38384
      C   49   -0.18270      1.99907     4.16417    0.01945     6.18270
      C   50   -0.14803      1.99910     4.12864    0.02028     6.14803
      C   51   -0.15215      1.99907     4.13369    0.01939     6.15215
      C   52   -0.17405      1.99908     4.15500    0.01998     6.17405
      C   53   -0.42373      1.99936     4.41268    0.01169     6.42373
      H   54    0.22671      0.00000     0.77140    0.00188     0.77329
      H   55    0.23547      0.00000     0.76267    0.00186     0.76453
      C   56   -0.41920      1.99935     4.40687    0.01298     6.41920
      C   57   -0.42603      1.99936     4.41486    0.01181     6.42603
      H   58    0.23406      0.00000     0.76404    0.00190     0.76594
      C   59   -0.41889      1.99935     4.40687    0.01267     6.41889
      H   60    0.22777      0.00000     0.77031    0.00192     0.77223
      H   61    0.23085      0.00000     0.76768    0.00148     0.76915
      H   62    0.21743      0.00000     0.78063    0.00194     0.78257
      H   63    0.23767      0.00000     0.76050    0.00183     0.76233
      H   64    0.21644      0.00000     0.78201    0.00155     0.78356
      H   65    0.21694      0.00000     0.78111    0.00195     0.78306
      H   66    0.23158      0.00000     0.76697    0.00145     0.76842
      H   67    0.21458      0.00000     0.78389    0.00153     0.78542
      H   68    0.23787      0.00000     0.76025    0.00188     0.76213
      C   69   -0.25951      1.99841     4.23467    0.02643     6.25951
      C   70    0.24471      1.99920     3.72283    0.03326     5.75529
      C   71    0.24371      1.99920     3.72384    0.03324     5.75629
      N   72   -0.21808      1.99961     5.20499    0.01348     7.21808
      N   73   -0.21661      1.99961     5.20350    0.01351     7.21661
 =======================================================================
   * Total *    1.00000    131.94598   203.17369    0.88032   336.00000

 Normal termination of Gaussian 16 at Sun Jan 19 21:07:57 2025.
