 Gaussian 16, Revision B.01,
 Gaussian 16:  ES64L-G16RevB.01 20-Dec-2017

 ------------------------------------------
 # nmr=giao b3lyp/genecp pop=nbo scfcyc=200
 ------------------------------------------

 ---------
 DS-18_SPE
 ---------
 Symbolic Z-matrix:
 Charge =  1 Multiplicity = 1

                         Standard orientation:
 ---------------------------------------------------------------------
 Center     Atomic      Atomic             Coordinates (Angstroms)
 Number     Number       Type             X           Y           Z
 ---------------------------------------------------------------------
      1         15           0        0.656280   -1.160110    0.005161
      2         15           0       -0.616110    1.325450   -0.161559
      3          7           0        2.697190    1.881870    0.612861
      4          7           0        3.179740    1.096440   -1.572239
      5          6           0        2.393250    1.260450   -0.461139
      6          6           0        1.054480    0.586990   -0.720649
      7          6           0        1.046540    0.445200   -2.276619
      8          1           0        0.504570   -0.426350   -2.633959
      9          1           0        0.570750    1.319740   -2.715869
     10          6           0        2.528920    0.418120   -2.677429
     11          1           0        2.909930   -0.600710   -2.798799
     12          1           0        2.695580    0.953320   -3.616269
     13          6           0        4.589570    1.462990   -1.582719
     14          1           0        4.733410    2.374000   -2.175189
     15          1           0        5.158000    0.666390   -2.071749
     16          6           0        5.069190    1.666950   -0.145739
     17          1           0        5.210290    0.694520    0.333291
     18          1           0        6.036690    2.171220   -0.147839
     19          6           0        4.037990    2.470650    0.651871
     20          1           0        4.343990    2.550490    1.696191
     21          1           0        3.987050    3.497500    0.267341
     22          6           0        1.578680   -2.399520   -1.009299
     23          6           0        0.967601   -3.004780   -2.111219
     24          1           0       -0.058960   -2.766380   -2.358019
     25          6           0        1.670051   -3.913300   -2.896809
     26          1           0        1.184911   -4.378840   -3.745579
     27          6           0        2.988641   -4.227870   -2.586829
     28          1           0        3.534001   -4.939220   -3.194169
     29          6           0        3.603961   -3.632150   -1.488949
     30          1           0        4.628691   -3.879080   -1.240859
     31          6           0        2.905420   -2.724130   -0.702379
     32          1           0        3.389920   -2.278600    0.156551
     33          6           0        1.302880   -1.455660    1.707991
     34          6           0        1.796110   -0.462460    2.555611
     35          1           0        1.910890    0.553430    2.202301
     36          6           0        2.178470   -0.789930    3.855111
     37          1           0        2.567910   -0.013880    4.502261
     38          6           0        2.066310   -2.093300    4.321341
     39          1           0        2.366810   -2.339060    5.332211
     40          6           0        1.570491   -3.086500    3.479991
     41          1           0        1.484271   -4.107070    3.831571
     42          6           0        1.188500   -2.771220    2.183561
     43          1           0        0.821461   -3.560280    1.537901
     44          6           0       -0.565860    2.013440    1.550911
     45          6           0        0.020980    3.249150    1.841111
     46          1           0        0.521660    3.813260    1.068511
     47          6           0       -0.031590    3.759380    3.131011
     48          1           0        0.425770    4.716940    3.346411
     49          6           0       -0.670850    3.047950    4.143601
     50          1           0       -0.713490    3.453640    5.146781
     51          6           0       -1.260940    1.821780    3.861941
     52          1           0       -1.763240    1.265710    4.643551
     53          6           0       -1.212550    1.309090    2.570031
     54          1           0       -1.676220    0.355900    2.347161
     55          6           0       -0.953680    2.812390   -1.202889
     56          6           0       -2.284010    3.147250   -1.469979
     57          1           0       -3.089100    2.525699   -1.100399
     58          6           0       -2.592430    4.294650   -2.192829
     59          1           0       -3.627770    4.544169   -2.388029
     60          6           0       -1.574720    5.117140   -2.662899
     61          1           0       -1.814310    6.008540   -3.228639
     62          6           0       -0.247460    4.794150   -2.398529
     63          1           0        0.548760    5.435770   -2.754989
     64          6           0        0.064100    3.651370   -1.670089
     65          1           0        1.101620    3.424970   -1.461929
     66          6           0       -3.880890   -0.235391    0.042711
     67          1           0       -3.832280    0.772549    0.439831
     68          6           0       -3.589610   -0.402791   -1.295789
     69          1           0       -3.354880    0.485889   -1.871909
     70          6           0       -3.884110   -1.620461   -2.137749
     71          1           0       -3.259400   -1.561651   -3.031629
     72          1           0       -4.920540   -1.577651   -2.495569
     73          6           0       -3.627369   -2.967861   -1.430009
     74          1           0       -3.471309   -3.734131   -2.191209
     75          1           0       -4.510629   -3.279201   -0.872159
     76          6           0       -2.422029   -2.946680   -0.507909
     77          1           0       -1.555089   -3.492460   -0.859809
     78          6           0       -2.451950   -2.637730    0.838611
     79          1           0       -1.612639   -2.968070    1.441921
     80          6           0       -3.657980   -2.217361    1.642171
     81          1           0       -3.298940   -1.750891    2.562031
     82          1           0       -4.213109   -3.109101    1.959591
     83          6           0       -4.607390   -1.241331    0.914461
     84          1           0       -5.331770   -1.791841    0.314391
     85          1           0       -5.187780   -0.699571    1.662881
     86         45           0       -1.682820   -0.814440   -0.194619
 ---------------------------------------------------------------------

 SCF Done:  E(RB3LYP) =  -2414.65686282     A.U. after   16 cycles

      1  P    Isotropic =   269.1284   Anisotropy =    82.4310

      2  P    Isotropic =   283.9240   Anisotropy =    75.4256

      3  N    Isotropic =    12.6636   Anisotropy =   353.0470

      4  N    Isotropic =   143.5709   Anisotropy =    98.8915

      5  C    Isotropic =    22.9966   Anisotropy =    96.8442

      6  C    Isotropic =   101.6206   Anisotropy =    44.5222

      7  C    Isotropic =   149.0888   Anisotropy =    26.4089

      8  H    Isotropic =    29.2306   Anisotropy =     6.6014

      9  H    Isotropic =    29.0948   Anisotropy =     8.4525

     10  C    Isotropic =   135.6488   Anisotropy =    49.4110

     11  H    Isotropic =    30.4470   Anisotropy =     9.1094

     12  H    Isotropic =    29.1965   Anisotropy =     9.2130

     13  C    Isotropic =   138.3716   Anisotropy =    36.2023

     14  H    Isotropic =    28.7335   Anisotropy =    11.5279

     15  H    Isotropic =    29.1418   Anisotropy =     8.3144

     16  C    Isotropic =   160.9843   Anisotropy =    10.7733

     17  H    Isotropic =    30.5502   Anisotropy =     6.6704

     18  H    Isotropic =    30.2413   Anisotropy =    11.7607

     19  C    Isotropic =   137.2961   Anisotropy =    30.6441

     20  H    Isotropic =    28.2162   Anisotropy =     6.9167

     21  H    Isotropic =    28.5299   Anisotropy =     8.8244

     22  C    Isotropic =    44.9796   Anisotropy =   175.7244

     23  C    Isotropic =    41.8440   Anisotropy =   182.1828

     24  H    Isotropic =    23.4712   Anisotropy =     9.4539

     25  C    Isotropic =    50.2851   Anisotropy =   186.1648

     26  H    Isotropic =    24.0803   Anisotropy =     6.9096

     27  C    Isotropic =    45.0591   Anisotropy =   197.8148

     28  H    Isotropic =    24.0295   Anisotropy =     3.4519

     29  C    Isotropic =    48.7229   Anisotropy =   189.4494

     30  H    Isotropic =    24.3660   Anisotropy =     6.6831

     31  C    Isotropic =    43.2199   Anisotropy =   194.2922

     32  H    Isotropic =    24.6793   Anisotropy =    11.4185

     33  C    Isotropic =    44.2887   Anisotropy =   156.9097

     34  C    Isotropic =    42.5065   Anisotropy =   207.0451

     35  H    Isotropic =    23.0716   Anisotropy =     5.6489

     36  C    Isotropic =    50.5117   Anisotropy =   189.0607

     37  H    Isotropic =    24.7662   Anisotropy =     7.4167

     38  C    Isotropic =    47.3134   Anisotropy =   195.1223

     39  H    Isotropic =    24.3181   Anisotropy =     3.5805

     40  C    Isotropic =    50.5539   Anisotropy =   187.4314

     41  H    Isotropic =    24.4372   Anisotropy =     6.2592

     42  C    Isotropic =    47.4283   Anisotropy =   185.8338

     43  H    Isotropic =    25.1452   Anisotropy =    11.1610

     44  C    Isotropic =    48.0040   Anisotropy =   162.5385

     45  C    Isotropic =    39.0649   Anisotropy =   200.2735

     46  H    Isotropic =    24.1124   Anisotropy =    10.9820

     47  C    Isotropic =    51.1391   Anisotropy =   184.7709

     48  H    Isotropic =    24.3421   Anisotropy =     6.2474

     49  C    Isotropic =    45.7856   Anisotropy =   196.7139

     50  H    Isotropic =    24.1755   Anisotropy =     3.4378

     51  C    Isotropic =    51.8048   Anisotropy =   183.7051

     52  H    Isotropic =    24.5479   Anisotropy =     6.8220

     53  C    Isotropic =    39.8369   Anisotropy =   176.4503

     54  H    Isotropic =    22.9311   Anisotropy =     8.0884

     55  C    Isotropic =    44.4366   Anisotropy =   167.9930

     56  C    Isotropic =    46.1548   Anisotropy =   181.1288

     57  H    Isotropic =    24.8876   Anisotropy =    11.1514

     58  C    Isotropic =    48.0386   Anisotropy =   191.1332

     59  H    Isotropic =    24.2469   Anisotropy =     6.9794

     60  C    Isotropic =    46.3491   Anisotropy =   196.7729

     61  H    Isotropic =    24.0950   Anisotropy =     3.5748

     62  C    Isotropic =    49.3933   Anisotropy =   188.0840

     63  H    Isotropic =    24.1372   Anisotropy =     7.2033

     64  C    Isotropic =    47.2626   Anisotropy =   182.4319

     65  H    Isotropic =    24.2436   Anisotropy =    11.1315

     66  C    Isotropic =    83.7569   Anisotropy =   118.0265

     67  H    Isotropic =    26.6406   Anisotropy =     6.0888

     68  C    Isotropic =    75.1428   Anisotropy =   119.9448

     69  H    Isotropic =    25.7818   Anisotropy =     5.3862

     70  C    Isotropic =   146.8783   Anisotropy =    30.4474

     71  H    Isotropic =    28.8126   Anisotropy =     7.2992

     72  H    Isotropic =    28.9468   Anisotropy =    12.9065

     73  C    Isotropic =   154.3301   Anisotropy =    24.4197

     74  H    Isotropic =    29.6506   Anisotropy =    11.5105

     75  H    Isotropic =    29.6700   Anisotropy =     9.8373

     76  C    Isotropic =    83.6301   Anisotropy =   114.5580

     77  H    Isotropic =    26.8231   Anisotropy =     5.8688

     78  C    Isotropic =    74.5715   Anisotropy =   119.5093

     79  H    Isotropic =    26.4999   Anisotropy =     4.2823

     80  C    Isotropic =   147.2267   Anisotropy =    29.2253

     81  H    Isotropic =    29.1536   Anisotropy =     7.2255

     82  H    Isotropic =    29.1126   Anisotropy =    12.7517

     83  C    Isotropic =   153.9772   Anisotropy =    25.2641

     84  H    Isotropic =    29.7014   Anisotropy =    10.0806

     85  H    Isotropic =    29.7723   Anisotropy =    11.4308

     86  Rh   Isotropic =  -319.8644   Anisotropy =   350.6572

 The electronic state is 1-A.
 Alpha  occ. eigenvalues --  -77.23798 -77.23353 -14.43415 -14.37072 -10.33586
 Alpha  occ. eigenvalues --  -10.32355 -10.30585 -10.29906 -10.29637 -10.29317
 Alpha  occ. eigenvalues --  -10.28959 -10.28908 -10.28861 -10.28799 -10.28635
 Alpha  occ. eigenvalues --  -10.28526 -10.28440 -10.28388 -10.28304 -10.28089
 Alpha  occ. eigenvalues --  -10.28042 -10.27845 -10.27773 -10.27723 -10.27679
 Alpha  occ. eigenvalues --  -10.27442 -10.27355 -10.27348 -10.27302 -10.27301
 Alpha  occ. eigenvalues --  -10.27243 -10.27102 -10.27097 -10.27072 -10.26864
 Alpha  occ. eigenvalues --  -10.26604 -10.26524 -10.26485 -10.26365 -10.26306
 Alpha  occ. eigenvalues --  -10.26234 -10.26191 -10.25943  -6.69688  -6.69263
 Alpha  occ. eigenvalues --   -4.85979  -4.85906  -4.85596  -4.85561  -4.85464
 Alpha  occ. eigenvalues --   -4.85179  -3.31390  -2.08270  -2.07615  -2.04858
 Alpha  occ. eigenvalues --   -1.08099  -0.98182  -0.96732  -0.96301  -0.95290
 Alpha  occ. eigenvalues --   -0.95066  -0.94254  -0.92416  -0.88949  -0.87819
 Alpha  occ. eigenvalues --   -0.87493  -0.86841  -0.85513  -0.85202  -0.85003
 Alpha  occ. eigenvalues --   -0.84514  -0.84236  -0.84006  -0.83906  -0.82468
 Alpha  occ. eigenvalues --   -0.80137  -0.77607  -0.76388  -0.75854  -0.75125
 Alpha  occ. eigenvalues --   -0.71693  -0.71175  -0.70957  -0.70730  -0.70345
 Alpha  occ. eigenvalues --   -0.69901  -0.69780  -0.69667  -0.69287  -0.66674
 Alpha  occ. eigenvalues --   -0.66053  -0.65719  -0.62890  -0.62160  -0.61850
 Alpha  occ. eigenvalues --   -0.61569  -0.60412  -0.60031  -0.59753  -0.59121
 Alpha  occ. eigenvalues --   -0.58352  -0.56929  -0.56426  -0.56242  -0.56149
 Alpha  occ. eigenvalues --   -0.55915  -0.55465  -0.55386  -0.55096  -0.54894
 Alpha  occ. eigenvalues --   -0.54625  -0.54175  -0.53973  -0.53438  -0.52892
 Alpha  occ. eigenvalues --   -0.52731  -0.52541  -0.52447  -0.52317  -0.52108
 Alpha  occ. eigenvalues --   -0.51623  -0.51433  -0.51327  -0.50710  -0.49418
 Alpha  occ. eigenvalues --   -0.49345  -0.48345  -0.48079  -0.47893  -0.47803
 Alpha  occ. eigenvalues --   -0.47675  -0.47263  -0.47084  -0.46808  -0.46264
 Alpha  occ. eigenvalues --   -0.46101  -0.45772  -0.45750  -0.45361  -0.45176
 Alpha  occ. eigenvalues --   -0.44924  -0.44385  -0.43900  -0.43698  -0.43289
 Alpha  occ. eigenvalues --   -0.42951  -0.42899  -0.42805  -0.42395  -0.42141
 Alpha  occ. eigenvalues --   -0.40962  -0.39199  -0.37779  -0.37071  -0.36764
 Alpha  occ. eigenvalues --   -0.36231  -0.35928  -0.35721  -0.35485  -0.35255
 Alpha  occ. eigenvalues --   -0.34764  -0.34532  -0.34131  -0.33802  -0.33444
 Alpha  occ. eigenvalues --   -0.32993  -0.30969  -0.30549
 Alpha virt. eigenvalues --   -0.15897  -0.14641  -0.13784  -0.13407  -0.12049
 Alpha virt. eigenvalues --   -0.11584  -0.11147  -0.10834  -0.10159  -0.09590
 Alpha virt. eigenvalues --   -0.08981  -0.08622  -0.07427  -0.06422  -0.06128

 Mulliken charges:
               1
     1  P    0.344398
     2  P    0.382633
     3  N   -0.166702
     4  N   -0.104969
     5  C   -0.030331
     6  C   -0.280858
     7  C   -0.337835
     8  H    0.161225
     9  H    0.210045
    10  C   -0.145037
    11  H    0.163274
    12  H    0.147625
    13  C   -0.140275
    14  H    0.141202
    15  H    0.142375
    16  C   -0.256067
    17  H    0.140097
    18  H    0.157243
    19  C   -0.230596
    20  H    0.150385
    21  H    0.132900
    22  C   -0.274655
    23  C   -0.082119
    24  H    0.189179
    25  C   -0.112427
    26  H    0.132327
    27  C   -0.088848
    28  H    0.139175
    29  C   -0.092737
    30  H    0.135686
    31  C   -0.025809
    32  H    0.160088
    33  C   -0.164420
    34  C   -0.041547
    35  H    0.260634
    36  C   -0.147332
    37  H    0.125441
    38  C   -0.085162
    39  H    0.131565
    40  C   -0.103592
    41  H    0.128302
    42  C   -0.113375
    43  H    0.165008
    44  C   -0.277968
    45  C    0.052793
    46  H    0.122166
    47  C   -0.112884
    48  H    0.126769
    49  C   -0.081845
    50  H    0.131251
    51  C   -0.134466
    52  H    0.123197
    53  C    0.069948
    54  H    0.181784
    55  C   -0.239538
    56  C   -0.067532
    57  H    0.165795
    58  C   -0.118821
    59  H    0.130984
    60  C   -0.079684
    61  H    0.137303
    62  C   -0.097132
    63  H    0.128239
    64  C   -0.063601
    65  H    0.183842
    66  C   -0.037088
    67  H    0.192914
    68  C   -0.060764
    69  H    0.182221
    70  C   -0.240490
    71  H    0.130232
    72  H    0.171194
    73  C   -0.346527
    74  H    0.166373
    75  H    0.167197
    76  C   -0.050162
    77  H    0.201898
    78  C   -0.089476
    79  H    0.199277
    80  C   -0.229495
    81  H    0.140960
    82  H    0.172718
    83  C   -0.377800
    84  H    0.168985
    85  H    0.171031
    86  Rh  -0.729909
 Sum of Mulliken charges =   1.00000

 Dipole moment (field-independent basis, Debye):
    X=              0.4811    Y=             -0.7819    Z=             -2.3343  Tot=              2.5083
 Quadrupole moment (field-independent basis, Debye-Ang):
   XX=           -226.7091   YY=           -232.8576   ZZ=           -244.1235
   XY=              2.9163   XZ=             -3.7650   YZ=             -1.5857

 Summary of Natural Population Analysis:

                                       Natural Population
                Natural  -----------------------------------------------
    Atom  No    Charge         Core      Valence    Rydberg      Total
 -----------------------------------------------------------------------
      P    1    1.13242      9.99634     3.81891    0.05233    13.86758
      P    2    1.11867      9.99640     3.83180    0.05312    13.88133
      N    3   -0.50892      1.99932     5.48998    0.01962     7.50892
      N    4   -0.40257      1.99942     5.38531    0.01783     7.40257
      C    5    0.38688      1.99906     3.58175    0.03231     5.61312
      C    6   -0.54767      1.99926     4.51898    0.02943     6.54767
      C    7   -0.41341      1.99936     4.40116    0.01289     6.41341
      H    8    0.23225      0.00000     0.76602    0.00173     0.76775
      H    9    0.22939      0.00000     0.76842    0.00219     0.77061
      C   10   -0.19914      1.99936     4.18621    0.01357     6.19914
      H   11    0.19292      0.00000     0.80377    0.00331     0.80708
      H   12    0.20351      0.00000     0.79473    0.00175     0.79649
      C   13   -0.19928      1.99933     4.18767    0.01228     6.19928
      H   14    0.18719      0.00000     0.81051    0.00229     0.81281
      H   15    0.20360      0.00000     0.79438    0.00202     0.79640
      C   16   -0.41500      1.99941     4.40601    0.00958     6.41500
      H   17    0.20306      0.00000     0.79547    0.00148     0.79694
      H   18    0.22369      0.00000     0.77496    0.00135     0.77631
      C   19   -0.23210      1.99935     4.21752    0.01523     6.23210
      H   20    0.20561      0.00000     0.79279    0.00160     0.79439
      H   21    0.18528      0.00000     0.81237    0.00235     0.81472
      C   22   -0.34973      1.99898     4.32580    0.02495     6.34973
      C   23   -0.19810      1.99908     4.18338    0.01563     6.19810
      H   24    0.21848      0.00000     0.77952    0.00200     0.78152
      C   25   -0.19898      1.99919     4.18498    0.01481     6.19898
      H   26    0.22213      0.00000     0.77663    0.00124     0.77787
      C   27   -0.17569      1.99920     4.16187    0.01462     6.17569
      H   28    0.22368      0.00000     0.77515    0.00117     0.77632
      C   29   -0.19507      1.99919     4.18087    0.01500     6.19507
      H   30    0.22348      0.00000     0.77526    0.00126     0.77652
      C   31   -0.19005      1.99908     4.17407    0.01690     6.19005
      H   32    0.22511      0.00000     0.77235    0.00254     0.77489
      C   33   -0.35174      1.99897     4.32788    0.02489     6.35174
      C   34   -0.20005      1.99909     4.18322    0.01774     6.20005
      H   35    0.25815      0.00000     0.73848    0.00338     0.74185
      C   36   -0.19276      1.99920     4.17856    0.01500     6.19276
      H   37    0.21916      0.00000     0.77950    0.00135     0.78084
      C   38   -0.18261      1.99920     4.16851    0.01490     6.18261
      H   39    0.21995      0.00000     0.77892    0.00114     0.78005
      C   40   -0.19902      1.99919     4.18486    0.01497     6.19902
      H   41    0.22033      0.00000     0.77845    0.00123     0.77967
      C   42   -0.20380      1.99910     4.18900    0.01569     6.20380
      H   43    0.21396      0.00000     0.78419    0.00186     0.78604
      C   44   -0.34273      1.99895     4.31786    0.02593     6.34273
      C   45   -0.15769      1.99909     4.14187    0.01674     6.15769
      H   46    0.22177      0.00000     0.77614    0.00209     0.77823
      C   47   -0.19989      1.99919     4.18611    0.01459     6.19989
      H   48    0.21974      0.00000     0.77902    0.00124     0.78026
      C   49   -0.17284      1.99920     4.15909    0.01455     6.17284
      H   50    0.21952      0.00000     0.77932    0.00116     0.78048
      C   51   -0.20547      1.99918     4.19130    0.01499     6.20547
      H   52    0.21810      0.00000     0.78058    0.00131     0.78190
      C   53   -0.17631      1.99909     4.16031    0.01691     6.17631
      H   54    0.21978      0.00000     0.77737    0.00285     0.78022
      C   55   -0.33932      1.99898     4.31674    0.02360     6.33932
      C   56   -0.18792      1.99909     4.17334    0.01549     6.18792
      H   57    0.21063      0.00000     0.78726    0.00211     0.78937
      C   58   -0.18968      1.99919     4.17607    0.01441     6.18968
      H   59    0.22215      0.00000     0.77661    0.00124     0.77785
      C   60   -0.17846      1.99920     4.16478    0.01448     6.17846
      H   61    0.22296      0.00000     0.77587    0.00117     0.77704
      C   62   -0.19168      1.99919     4.17753    0.01495     6.19168
      H   63    0.22098      0.00000     0.77776    0.00127     0.77902
      C   64   -0.20773      1.99908     4.19210    0.01655     6.20773
      H   65    0.21776      0.00000     0.77958    0.00266     0.78224
      C   66   -0.18124      1.99906     4.16287    0.01931     6.18124
      H   67    0.22636      0.00000     0.77165    0.00199     0.77364
      C   68   -0.15847      1.99907     4.13972    0.01968     6.15847
      H   69    0.22666      0.00000     0.77104    0.00229     0.77334
      C   70   -0.41692      1.99935     4.40501    0.01256     6.41692
      H   71    0.21501      0.00000     0.78343    0.00156     0.78499
      H   72    0.23313      0.00000     0.76494    0.00193     0.76687
      C   73   -0.42221      1.99936     4.41110    0.01176     6.42221
      H   74    0.22624      0.00000     0.77224    0.00152     0.77376
      H   75    0.21507      0.00000     0.78291    0.00202     0.78493
      C   76   -0.18852      1.99906     4.17030    0.01916     6.18852
      H   77    0.22439      0.00000     0.77344    0.00216     0.77561
      C   78   -0.14952      1.99907     4.13104    0.01941     6.14952
      H   79    0.22906      0.00000     0.76871    0.00223     0.77094
      C   80   -0.41766      1.99935     4.40588    0.01244     6.41766
      H   81    0.21560      0.00000     0.78287    0.00153     0.78440
      H   82    0.23418      0.00000     0.76392    0.00190     0.76582
      C   83   -0.42332      1.99936     4.41208    0.01187     6.42332
      H   84    0.21492      0.00000     0.78308    0.00200     0.78508
      H   85    0.22901      0.00000     0.76951    0.00148     0.77099
     Rh   86   -0.36865     35.98544     9.35577    0.02744    45.36865
 =======================================================================
   * Total *    1.00000    137.94467   225.14826    0.90707   364.00000

 Normal termination of Gaussian 16 at Mon Jan 20 00:08:48 2025.
