 Gaussian 16, Revision B.01,
 Gaussian 16:  ES64L-G16RevB.01 20-Dec-2017

 ------------------------------------------
 # nmr=giao b3lyp/genecp pop=nbo scfcyc=200
 ------------------------------------------

 ---------
 DS-10_SPE
 ---------
 Symbolic Z-matrix:
 Charge =  1 Multiplicity = 1

                         Standard orientation:
 ---------------------------------------------------------------------
 Center     Atomic      Atomic             Coordinates (Angstroms)
 Number     Number       Type             X           Y           Z
 ---------------------------------------------------------------------
      1         15           0       -1.413570   -0.288421   -0.047640
      2          6           0       -2.517670   -0.616452    1.388610
      3          6           0       -3.826780   -0.120963    1.374400
      4          6           0       -4.643000   -0.266844    2.490180
      5          6           0       -4.160429   -0.898463    3.632560
      6          6           0       -2.857399   -1.384142    3.655390
      7          6           0       -2.036279   -1.241172    2.541600
      8          6           0       -2.401609   -0.689562   -1.547400
      9          6           0       -3.317389   -1.747313   -1.559090
     10          6           0       -3.997898   -2.065363   -2.728370
     11          6           0       -3.769559   -1.336863   -3.893080
     12          6           0       -2.856440   -0.287972   -3.888500
     13          6           0       -2.174470    0.036158   -2.719910
     14          1           0       -4.220560    0.364177    0.489550
     15          1           0       -5.657220    0.111626    2.465280
     16          1           0       -4.798129   -1.012454    4.500000
     17          1           0       -2.477079   -1.876712    4.541630
     18          1           0       -1.023109   -1.619461    2.573790
     19          1           0       -3.507418   -2.316183   -0.658120
     20          1           0       -4.710018   -2.881174   -2.729700
     21          1           0       -4.305229   -1.585533   -4.800610
     22          1           0       -2.678080    0.281688   -4.791930
     23          1           0       -1.461271    0.851469   -2.716810
     24          6           0        0.000061   -1.493480    0.000260
     25         15           0        1.413630   -0.288329    0.047460
     26          6           0        0.000152   -2.796290    0.000710
     27          6           0        2.517710   -0.617018   -1.388630
     28          6           0        2.401661   -0.688568    1.547460
     29          6           0        0.000303   -4.102430    0.001200
     30          6           0        3.826650   -0.121037   -1.374870
     31          6           0        2.036461   -1.242749   -2.541130
     32          6           0        2.173720    0.037182    2.719800
     33          6           0        3.318161   -1.745688    1.559580
     34          6           0       -0.005226   -4.891370    1.288770
     35          6           0        0.005994   -4.892370   -1.285740
     36          6           0        4.642830   -0.267427   -2.490610
     37          1           0        4.220320    0.364893   -0.490410
     38          6           0        2.857551   -1.386198   -3.654890
     39          1           0        1.023431   -1.621419   -2.572980
     40          6           0        2.855590   -0.286298    3.888630
     41          1           0        1.459939    0.851991    2.716380
     42          6           0        3.998592   -2.063067    2.729090
     43          1           0        3.508802   -2.314597    0.658760
     44          1           0        0.869284   -5.546299    1.327150
     45          1           0        0.003963   -4.249920    2.167720
     46          1           0       -0.891326   -5.530341    1.330990
     47          1           0       -0.003437   -4.251620   -2.165200
     48          1           0        0.892284   -5.531099   -1.327510
     49          1           0       -0.868316   -5.547601   -1.323560
     50          6           0        4.160411   -0.900027   -3.632510
     51          1           0        5.656910    0.111444   -2.466060
     52          1           0        2.477351   -1.879548   -4.540750
     53          6           0        3.769441   -1.334547    3.893630
     54          1           0        2.676580    0.283372    4.791930
     55          1           0        4.711272   -2.878386    2.730740
     56          1           0        4.798081   -1.014406   -4.499910
     57          1           0        4.305041   -1.582707    4.801340
     58         45           0       -0.000071    1.602270   -0.000530
     59          6           0        1.443837    3.266941    0.608100
     60          6           0        1.474318    3.120571   -0.762950
     61          6           0       -1.444013    3.266819   -0.609040
     62          6           0       -1.474472    3.120369    0.762030
     63          6           0        0.701047    4.353140    1.364020
     64          1           0        2.211248    2.748032    1.171770
     65          1           0        2.274678    2.518452   -1.180960
     66          6           0        0.731267    3.952500   -1.779230
     67          6           0       -0.701333    4.353089   -1.364980
     68          1           0       -2.211522    2.747988   -1.172660
     69          6           0       -0.731483    3.952329    1.778330
     70          1           0       -2.274852    2.518258    1.180000
     71          1           0        1.265306    4.595211    2.266230
     72          1           0        0.683346    5.266440    0.769670
     73          1           0        1.314356    4.852081   -2.013640
     74          1           0        0.688477    3.377910   -2.707110
     75          1           0       -0.683814    5.266439   -0.770700
     76          1           0       -1.265584    4.595019   -2.267240
     77          1           0       -0.688563    3.377699    2.706190
     78          1           0       -1.314694    4.851819    2.012810
 ---------------------------------------------------------------------

 SCF Done:  E(RB3LYP) =  -2226.45708616     A.U. after   15 cycles

      1  P    Isotropic =   288.6045   Anisotropy =    76.8896

      2  C    Isotropic =    44.3052   Anisotropy =   170.4118

      3  C    Isotropic =    48.1174   Anisotropy =   189.5578

      4  C    Isotropic =    48.4789   Anisotropy =   190.6690

      5  C    Isotropic =    46.7336   Anisotropy =   195.2916

      6  C    Isotropic =    49.4085   Anisotropy =   188.6237

      7  C    Isotropic =    48.0993   Anisotropy =   189.9175

      8  C    Isotropic =    43.9938   Anisotropy =   173.5565

      9  C    Isotropic =    46.3340   Anisotropy =   189.7651

     10  C    Isotropic =    48.4194   Anisotropy =   189.6598

     11  C    Isotropic =    45.0549   Anisotropy =   197.3049

     12  C    Isotropic =    49.4471   Anisotropy =   187.4290

     13  C    Isotropic =    42.6716   Anisotropy =   180.6704

     14  H    Isotropic =    24.7275   Anisotropy =    11.2108

     15  H    Isotropic =    24.2216   Anisotropy =     6.0566

     16  H    Isotropic =    24.0886   Anisotropy =     3.6912

     17  H    Isotropic =    24.2490   Anisotropy =     7.0839

     18  H    Isotropic =    24.3358   Anisotropy =     8.8677

     19  H    Isotropic =    24.5057   Anisotropy =    11.3176

     20  H    Isotropic =    24.2105   Anisotropy =     6.2049

     21  H    Isotropic =    23.9408   Anisotropy =     3.7397

     22  H    Isotropic =    24.0258   Anisotropy =     6.8556

     23  H    Isotropic =    23.3522   Anisotropy =     9.8385

     24  C    Isotropic =    71.6903   Anisotropy =    52.2051

     25  P    Isotropic =   288.6267   Anisotropy =    76.8688

     26  C    Isotropic =   -39.4271   Anisotropy =    34.2344

     27  C    Isotropic =    44.3143   Anisotropy =   170.4143

     28  C    Isotropic =    43.9970   Anisotropy =   173.5625

     29  C    Isotropic =    74.0878   Anisotropy =   123.9621

     30  C    Isotropic =    48.1178   Anisotropy =   189.5538

     31  C    Isotropic =    48.0986   Anisotropy =   189.9201

     32  C    Isotropic =    42.6720   Anisotropy =   180.6741

     33  C    Isotropic =    46.3348   Anisotropy =   189.7699

     34  C    Isotropic =   165.2291   Anisotropy =    26.2936

     35  C    Isotropic =   165.2299   Anisotropy =    26.2941

     36  C    Isotropic =    48.4791   Anisotropy =   190.6705

     37  H    Isotropic =    24.7268   Anisotropy =    11.2106

     38  C    Isotropic =    49.4055   Anisotropy =   188.6286

     39  H    Isotropic =    24.3366   Anisotropy =     8.8689

     40  C    Isotropic =    49.4454   Anisotropy =   187.4294

     41  H    Isotropic =    23.3511   Anisotropy =     9.8368

     42  C    Isotropic =    48.4191   Anisotropy =   189.6603

     43  H    Isotropic =    24.5057   Anisotropy =    11.3188

     44  H    Isotropic =    30.3673   Anisotropy =     9.1806

     45  H    Isotropic =    30.4107   Anisotropy =     5.0932

     46  H    Isotropic =    30.3346   Anisotropy =     9.4337

     47  H    Isotropic =    30.4102   Anisotropy =     5.0920

     48  H    Isotropic =    30.3345   Anisotropy =     9.4333

     49  H    Isotropic =    30.3671   Anisotropy =     9.1824

     50  C    Isotropic =    46.7332   Anisotropy =   195.2914

     51  H    Isotropic =    24.2215   Anisotropy =     6.0564

     52  H    Isotropic =    24.2493   Anisotropy =     7.0838

     53  C    Isotropic =    45.0542   Anisotropy =   197.3029

     54  H    Isotropic =    24.0255   Anisotropy =     6.8564

     55  H    Isotropic =    24.2105   Anisotropy =     6.2045

     56  H    Isotropic =    24.0886   Anisotropy =     3.6912

     57  H    Isotropic =    23.9407   Anisotropy =     3.7403

     58  Rh   Isotropic =  -308.0466   Anisotropy =   335.8293

     59  C    Isotropic =    79.7508   Anisotropy =   120.2464

     60  C    Isotropic =    73.4804   Anisotropy =   121.4134

     61  C    Isotropic =    79.7738   Anisotropy =   120.2094

     62  C    Isotropic =    73.4775   Anisotropy =   121.4175

     63  C    Isotropic =   153.9938   Anisotropy =    24.8383

     64  H    Isotropic =    26.8227   Anisotropy =     5.8367

     65  H    Isotropic =    26.7285   Anisotropy =     4.5136

     66  C    Isotropic =   148.0212   Anisotropy =    29.3273

     67  C    Isotropic =   153.9938   Anisotropy =    24.8380

     68  H    Isotropic =    26.8238   Anisotropy =     5.8402

     69  C    Isotropic =   148.0145   Anisotropy =    29.3314

     70  H    Isotropic =    26.7291   Anisotropy =     4.5127

     71  H    Isotropic =    29.8376   Anisotropy =    11.4496

     72  H    Isotropic =    29.8091   Anisotropy =     9.6857

     73  H    Isotropic =    29.2494   Anisotropy =    12.5035

     74  H    Isotropic =    29.2809   Anisotropy =     7.1275

     75  H    Isotropic =    29.8090   Anisotropy =     9.6864

     76  H    Isotropic =    29.8372   Anisotropy =    11.4503

     77  H    Isotropic =    29.2808   Anisotropy =     7.1258

     78  H    Isotropic =    29.2494   Anisotropy =    12.5030

 The electronic state is 1-A.
 Alpha  occ. eigenvalues --  -77.23456 -77.23455 -10.30358 -10.30089 -10.29848
 Alpha  occ. eigenvalues --  -10.29234 -10.29234 -10.29191 -10.29191 -10.28697
 Alpha  occ. eigenvalues --  -10.28697 -10.28464 -10.28463 -10.28026 -10.28026
 Alpha  occ. eigenvalues --  -10.27944 -10.27944 -10.27892 -10.27892 -10.27838
 Alpha  occ. eigenvalues --  -10.27837 -10.27401 -10.27401 -10.27315 -10.27314
 Alpha  occ. eigenvalues --  -10.27286 -10.27286 -10.27213 -10.27213 -10.27196
 Alpha  occ. eigenvalues --  -10.27196 -10.27167 -10.27167 -10.27103 -10.27103
 Alpha  occ. eigenvalues --  -10.27020 -10.27019 -10.26965 -10.26965  -6.69402
 Alpha  occ. eigenvalues --   -6.69402  -4.85698  -4.85697  -4.85613  -4.85612
 Alpha  occ. eigenvalues --   -4.85306  -4.85306  -3.31155  -2.08034  -2.07396
 Alpha  occ. eigenvalues --   -2.04617  -0.96571  -0.96356  -0.95775  -0.95763
 Alpha  occ. eigenvalues --   -0.94066  -0.93416  -0.89159  -0.88792  -0.87656
 Alpha  occ. eigenvalues --   -0.87004  -0.85234  -0.85026  -0.85005  -0.84908
 Alpha  occ. eigenvalues --   -0.84643  -0.84576  -0.84550  -0.79997  -0.79812
 Alpha  occ. eigenvalues --   -0.77886  -0.77464  -0.75455  -0.72751  -0.70983
 Alpha  occ. eigenvalues --   -0.70922  -0.70759  -0.70573  -0.70211  -0.69930
 Alpha  occ. eigenvalues --   -0.69900  -0.67995  -0.66804  -0.65479  -0.62662
 Alpha  occ. eigenvalues --   -0.62138  -0.62073  -0.61806  -0.60283  -0.59637
 Alpha  occ. eigenvalues --   -0.57883  -0.56997  -0.56700  -0.55965  -0.55909
 Alpha  occ. eigenvalues --   -0.55803  -0.55766  -0.55371  -0.55270  -0.55176
 Alpha  occ. eigenvalues --   -0.54622  -0.53945  -0.53544  -0.53531  -0.53284
 Alpha  occ. eigenvalues --   -0.52487  -0.52473  -0.52297  -0.52285  -0.52234
 Alpha  occ. eigenvalues --   -0.52223  -0.51708  -0.50999  -0.49710  -0.48979
 Alpha  occ. eigenvalues --   -0.48627  -0.48448  -0.47948  -0.47573  -0.47487
 Alpha  occ. eigenvalues --   -0.47086  -0.47061  -0.46826  -0.46087  -0.46064
 Alpha  occ. eigenvalues --   -0.45635  -0.45314  -0.44844  -0.44799  -0.44628
 Alpha  occ. eigenvalues --   -0.44576  -0.44149  -0.43492  -0.43028  -0.43026
 Alpha  occ. eigenvalues --   -0.42613  -0.41045  -0.38743  -0.37792  -0.37310
 Alpha  occ. eigenvalues --   -0.36554  -0.36372  -0.35991  -0.35889  -0.35632
 Alpha  occ. eigenvalues --   -0.35558  -0.35339  -0.35254  -0.34225  -0.34183
 Alpha  occ. eigenvalues --   -0.33508  -0.33354  -0.30313
 Alpha virt. eigenvalues --   -0.17047  -0.14551  -0.13843  -0.13424  -0.12381
 Alpha virt. eigenvalues --   -0.12271  -0.12006  -0.11336  -0.10720  -0.10420
 Alpha virt. eigenvalues --   -0.10250  -0.08883  -0.08393  -0.07265  -0.06453

 Mulliken charges:
               1
     1  P    0.481471
     2  C   -0.135469
     3  C   -0.128877
     4  C   -0.087385
     5  C   -0.097397
     6  C   -0.109396
     7  C   -0.082359
     8  C   -0.253498
     9  C   -0.057277
    10  C   -0.091185
    11  C   -0.090413
    12  C   -0.109270
    13  C   -0.069268
    14  H    0.159026
    15  H    0.134744
    16  H    0.137246
    17  H    0.130459
    18  H    0.157501
    19  H    0.155401
    20  H    0.134423
    21  H    0.138058
    22  H    0.130132
    23  H    0.178011
    24  C   -0.940584
    25  P    0.481469
    26  C    0.634474
    27  C   -0.135358
    28  C   -0.253594
    29  C   -0.090590
    30  C   -0.128982
    31  C   -0.082324
    32  C   -0.069286
    33  C   -0.057212
    34  C   -0.364151
    35  C   -0.364157
    36  C   -0.087394
    37  H    0.159042
    38  C   -0.109393
    39  H    0.157473
    40  C   -0.109284
    41  H    0.178066
    42  C   -0.091214
    43  H    0.155416
    44  H    0.148800
    45  H    0.142116
    46  H    0.149752
    47  H    0.142116
    48  H    0.149757
    49  H    0.148797
    50  C   -0.097392
    51  H    0.134743
    52  H    0.130462
    53  C   -0.090386
    54  H    0.130129
    55  H    0.134425
    56  H    0.137247
    57  H    0.138057
    58  Rh  -0.652078
    59  C   -0.042450
    60  C   -0.099103
    61  C   -0.042380
    62  C   -0.099168
    63  C   -0.345989
    64  H    0.195881
    65  H    0.203968
    66  C   -0.225302
    67  C   -0.345998
    68  H    0.195854
    69  C   -0.225337
    70  H    0.204020
    71  H    0.167432
    72  H    0.165976
    73  H    0.170864
    74  H    0.131915
    75  H    0.165977
    76  H    0.167428
    77  H    0.131911
    78  H    0.170865
 Sum of Mulliken charges =   1.00000

 Dipole moment (field-independent basis, Debye):
    X=              0.0003    Y=             -1.5365    Z=              0.0007  Tot=              1.5365
 Quadrupole moment (field-independent basis, Debye-Ang):
   XX=           -212.6602   YY=           -208.8580   ZZ=           -214.1262
   XY=             -0.0002   XZ=              1.3718   YZ=              0.0000

 Summary of Natural Population Analysis:

                                       Natural Population
                Natural  -----------------------------------------------
    Atom  No    Charge         Core      Valence    Rydberg      Total
 -----------------------------------------------------------------------
      P    1    1.12951      9.99629     3.82022    0.05398    13.87049
      C    2   -0.33810      1.99899     4.31565    0.02346     6.33810
      C    3   -0.20153      1.99909     4.18730    0.01513     6.20153
      C    4   -0.19102      1.99920     4.17710    0.01473     6.19102
      C    5   -0.18360      1.99920     4.16967    0.01472     6.18360
      C    6   -0.19191      1.99920     4.17816    0.01456     6.19191
      C    7   -0.19448      1.99909     4.18002    0.01536     6.19448
      C    8   -0.34363      1.99899     4.32078    0.02386     6.34363
      C    9   -0.18895      1.99910     4.17344    0.01641     6.18895
      C   10   -0.19371      1.99920     4.17960    0.01491     6.19371
      C   11   -0.17721      1.99921     4.16342    0.01458     6.17721
      C   12   -0.19794      1.99920     4.18415    0.01459     6.19794
      C   13   -0.18718      1.99909     4.17279    0.01529     6.18718
      H   14    0.21905      0.00000     0.77920    0.00175     0.78095
      H   15    0.22229      0.00000     0.77648    0.00122     0.77771
      H   16    0.22212      0.00000     0.77670    0.00118     0.77788
      H   17    0.21985      0.00000     0.77891    0.00123     0.78015
      H   18    0.21727      0.00000     0.78032    0.00241     0.78273
      H   19    0.22201      0.00000     0.77581    0.00217     0.77799
      H   20    0.22192      0.00000     0.77682    0.00126     0.77808
      H   21    0.22218      0.00000     0.77665    0.00117     0.77782
      H   22    0.22070      0.00000     0.77807    0.00124     0.77930
      H   23    0.22169      0.00000     0.77641    0.00190     0.77831
      C   24   -0.69129      1.99885     4.66615    0.02629     6.69129
      P   25    1.12948      9.99629     3.82026    0.05398    13.87052
      C   26    0.14455      1.99879     3.83396    0.02271     5.85545
      C   27   -0.33811      1.99899     4.31566    0.02346     6.33811
      C   28   -0.34363      1.99899     4.32078    0.02386     6.34363
      C   29   -0.03460      1.99894     4.02467    0.01098     6.03460
      C   30   -0.20153      1.99909     4.18730    0.01513     6.20153
      C   31   -0.19447      1.99909     4.18001    0.01536     6.19447
      C   32   -0.18720      1.99909     4.17281    0.01529     6.18720
      C   33   -0.18895      1.99910     4.17345    0.01641     6.18895
      C   34   -0.60291      1.99937     4.59539    0.00815     6.60291
      C   35   -0.60292      1.99937     4.59540    0.00815     6.60292
      C   36   -0.19102      1.99920     4.17710    0.01473     6.19102
      H   37    0.21904      0.00000     0.77921    0.00175     0.78096
      C   38   -0.19190      1.99920     4.17815    0.01456     6.19190
      H   39    0.21727      0.00000     0.78032    0.00241     0.78273
      C   40   -0.19795      1.99920     4.18416    0.01459     6.19795
      H   41    0.22170      0.00000     0.77641    0.00190     0.77830
      C   42   -0.19371      1.99920     4.17959    0.01491     6.19371
      H   43    0.22202      0.00000     0.77581    0.00217     0.77798
      H   44    0.22526      0.00000     0.77325    0.00150     0.77474
      H   45    0.22077      0.00000     0.77801    0.00122     0.77923
      H   46    0.22525      0.00000     0.77327    0.00148     0.77475
      H   47    0.22077      0.00000     0.77801    0.00122     0.77923
      H   48    0.22525      0.00000     0.77326    0.00148     0.77475
      H   49    0.22526      0.00000     0.77325    0.00150     0.77474
      C   50   -0.18360      1.99920     4.16967    0.01472     6.18360
      H   51    0.22229      0.00000     0.77649    0.00122     0.77771
      H   52    0.21985      0.00000     0.77891    0.00123     0.78015
      C   53   -0.17721      1.99921     4.16342    0.01458     6.17721
      H   54    0.22070      0.00000     0.77807    0.00124     0.77930
      H   55    0.22192      0.00000     0.77682    0.00126     0.77808
      H   56    0.22212      0.00000     0.77670    0.00118     0.77788
      H   57    0.22219      0.00000     0.77665    0.00117     0.77781
     Rh   58   -0.39825     35.98582     9.38324    0.02918    45.39825
      C   59   -0.17785      1.99906     4.15915    0.01963     6.17785
      C   60   -0.15554      1.99907     4.13670    0.01977     6.15554
      C   61   -0.17793      1.99906     4.15923    0.01963     6.17793
      C   62   -0.15549      1.99907     4.13665    0.01977     6.15549
      C   63   -0.42364      1.99936     4.41245    0.01183     6.42364
      H   64    0.22599      0.00000     0.77195    0.00206     0.77401
      H   65    0.23003      0.00000     0.76777    0.00220     0.76997
      C   66   -0.41858      1.99935     4.40659    0.01263     6.41858
      C   67   -0.42363      1.99936     4.41244    0.01183     6.42363
      H   68    0.22598      0.00000     0.77196    0.00206     0.77402
      C   69   -0.41857      1.99935     4.40659    0.01263     6.41857
      H   70    0.23003      0.00000     0.76777    0.00220     0.76997
      H   71    0.22753      0.00000     0.77098    0.00149     0.77247
      H   72    0.21441      0.00000     0.78359    0.00200     0.78559
      H   73    0.23336      0.00000     0.76473    0.00192     0.76664
      H   74    0.21641      0.00000     0.78205    0.00154     0.78359
      H   75    0.21441      0.00000     0.78359    0.00200     0.78559
      H   76    0.22753      0.00000     0.77098    0.00149     0.77247
      H   77    0.21640      0.00000     0.78205    0.00154     0.78360
      H   78    0.23335      0.00000     0.76473    0.00192     0.76665
 =======================================================================
   * Total *    1.00000    129.94653   203.25522    0.79825   334.00000

 Normal termination of Gaussian 16 at Sun Jan 19 21:05:12 2025.
