 Gaussian 16, Revision B.01,
 Gaussian 16:  ES64L-G16RevB.01 20-Dec-2017

 ------------------------------------------
 # nmr=giao b3lyp/genecp pop=nbo scfcyc=200
 ------------------------------------------

 --------
 DS-1_SPE
 --------
 Symbolic Z-matrix:
 Charge =  1 Multiplicity = 1

                         Standard orientation:
 ---------------------------------------------------------------------
 Center     Atomic      Atomic             Coordinates (Angstroms)
 Number     Number       Type             X           Y           Z
 ---------------------------------------------------------------------
      1          6           0       -1.800421    0.957461    0.127220
      2          6           0       -3.711151   -1.294499   -0.343640
      3          6           0       -4.050221    0.015201   -0.388200
      4          6           0       -3.033831    1.077841   -0.386370
      5          1           0       -3.343391    2.022851   -0.829170
      6         15           0       -1.130461   -0.663339    0.634820
      7         15           0       -0.271981    1.949710   -0.014790
      8          6           0       -1.587341   -0.945789    2.405510
      9          1           0       -1.254292   -1.938849    2.710400
     10          1           0       -1.082131   -0.208519    3.028170
     11          1           0       -2.664671   -0.863299    2.547560
     12          6           0       -0.241001    3.143380    1.397530
     13          1           0        0.677109    3.730850    1.356000
     14          1           0       -1.099350    3.814691    1.350030
     15          1           0       -0.261571    2.599240    2.340510
     16          6           0       -0.402951    3.040740   -1.497060
     17          1           0       -1.251331    3.720731   -1.408350
     18          1           0        0.508569    3.632860   -1.588810
     19          1           0       -0.517111    2.430181   -2.391470
     20          6           0       -5.464001    0.537441   -0.488610
     21          1           0       -5.691971    1.195012    0.354730
     22          1           0       -5.585201    1.133581   -1.397880
     23          1           0       -6.215131   -0.245978   -0.504920
     24          6           0       -4.687972   -2.435479   -0.381130
     25          1           0       -4.656832   -2.994309    0.560360
     26          1           0       -5.715542   -2.129318   -0.552200
     27          1           0       -4.411352   -3.142939   -1.169260
     28          6           0        2.907459    0.707190   -1.081680
     29          1           0        2.529729    1.508260   -1.707720
     30          6           0        3.079999    0.989850    0.259870
     31          1           0        2.859179    2.002150    0.584080
     32          6           0        3.859409    0.177920    1.264590
     33          1           0        3.512239    0.462680    2.260160
     34          1           0        4.918599    0.461339    1.225730
     35          6           0        3.721079   -1.350830    1.099990
     36          1           0        3.971938   -1.823710    2.050730
     37          1           0        4.448198   -1.723990    0.379360
     38          6           0        2.327858   -1.793510    0.694990
     39          1           0        1.734088   -2.240290    1.485340
     40          6           0        1.892708   -1.988420   -0.599500
     41          1           0        1.012778   -2.608450   -0.738460
     42          6           0        2.670788   -1.723250   -1.864790
     43          1           0        1.952508   -1.637830   -2.682960
     44          1           0        3.293878   -2.593930   -2.104330
     45          6           0        3.545139   -0.451050   -1.827030
     46          1           0        4.519829   -0.671950   -1.392650
     47          1           0        3.739189   -0.136550   -2.853600
     48         45           0        1.079869    0.003250    0.060220
     49          6           0       -2.260732   -1.765009   -0.330940
     50          1           0       -1.878702   -1.813159   -1.356210
     51          1           0       -2.195622   -2.778309    0.069980
 ---------------------------------------------------------------------

 SCF Done:  E(RB3LYP) =  -1497.41667259     A.U. after   15 cycles

      1  C    Isotropic =    46.4946   Anisotropy =    98.3221

      2  C    Isotropic =    42.2066   Anisotropy =   161.2229

      3  C    Isotropic =    47.7137   Anisotropy =   161.7160

      4  C    Isotropic =    30.9658   Anisotropy =   174.7647

      5  H    Isotropic =    25.0528   Anisotropy =     9.7343

      6  P    Isotropic =   374.5018   Anisotropy =   174.9336

      7  P    Isotropic =   325.5759   Anisotropy =    52.3304

      8  C    Isotropic =   173.0053   Anisotropy =    28.5829

      9  H    Isotropic =    31.1050   Anisotropy =     9.8284

     10  H    Isotropic =    30.9562   Anisotropy =     8.6123

     11  H    Isotropic =    29.9375   Anisotropy =     9.3886

     12  C    Isotropic =   165.5182   Anisotropy =    31.6380

     13  H    Isotropic =    30.5136   Anisotropy =     9.1310

     14  H    Isotropic =    30.3235   Anisotropy =    10.7237

     15  H    Isotropic =    30.4599   Anisotropy =     7.4715

     16  C    Isotropic =   169.7937   Anisotropy =    29.1538

     17  H    Isotropic =    30.1309   Anisotropy =    10.6785

     18  H    Isotropic =    30.6300   Anisotropy =     9.0120

     19  H    Isotropic =    30.6931   Anisotropy =     8.4284

     20  C    Isotropic =   165.0725   Anisotropy =    30.9583

     21  H    Isotropic =    30.1396   Anisotropy =     8.2930

     22  H    Isotropic =    30.1129   Anisotropy =     8.8581

     23  H    Isotropic =    29.4889   Anisotropy =     6.9798

     24  C    Isotropic =   159.7596   Anisotropy =    37.1070

     25  H    Isotropic =    30.1432   Anisotropy =     8.1979

     26  H    Isotropic =    29.3743   Anisotropy =     8.1759

     27  H    Isotropic =    30.0393   Anisotropy =     7.9503

     28  C    Isotropic =    79.3559   Anisotropy =   119.8355

     29  H    Isotropic =    27.0274   Anisotropy =     7.2175

     30  C    Isotropic =    79.2265   Anisotropy =   112.1459

     31  H    Isotropic =    26.5670   Anisotropy =     5.3198

     32  C    Isotropic =   147.3884   Anisotropy =    30.5355

     33  H    Isotropic =    29.1623   Anisotropy =     8.1884

     34  H    Isotropic =    29.0787   Anisotropy =    12.2643

     35  C    Isotropic =   154.1046   Anisotropy =    24.6874

     36  H    Isotropic =    29.8599   Anisotropy =    11.5483

     37  H    Isotropic =    29.8124   Anisotropy =     8.8834

     38  C    Isotropic =    78.9317   Anisotropy =   120.7951

     39  H    Isotropic =    26.9720   Anisotropy =     7.5536

     40  C    Isotropic =    77.6123   Anisotropy =   114.2082

     41  H    Isotropic =    26.3766   Anisotropy =     5.2229

     42  C    Isotropic =   147.2729   Anisotropy =    29.8859

     43  H    Isotropic =    29.1996   Anisotropy =     8.0043

     44  H    Isotropic =    29.1071   Anisotropy =    12.2007

     45  C    Isotropic =   153.8837   Anisotropy =    25.0112

     46  H    Isotropic =    29.7797   Anisotropy =     8.9097

     47  H    Isotropic =    29.8599   Anisotropy =    11.4473

     48  Rh   Isotropic =  -313.2883   Anisotropy =   344.3510

     49  C    Isotropic =   152.1909   Anisotropy =    25.7165

     50  H    Isotropic =    29.3719   Anisotropy =     6.5790

     51  H    Isotropic =    29.8392   Anisotropy =     6.6072

 The electronic state is 1-A.
 Alpha  occ. eigenvalues --  -77.24544 -77.23944 -10.31443 -10.30810 -10.30658
 Alpha  occ. eigenvalues --  -10.30449 -10.30100 -10.30043 -10.29952 -10.29799
 Alpha  occ. eigenvalues --  -10.29768 -10.29686 -10.29619 -10.29457 -10.28303
 Alpha  occ. eigenvalues --  -10.28273 -10.28080 -10.28022 -10.27224 -10.26827
 Alpha  occ. eigenvalues --   -6.70565  -6.70060  -4.86860  -4.86767  -4.86468
 Alpha  occ. eigenvalues --   -4.86328  -4.86265  -4.85965  -3.32588  -2.09484
 Alpha  occ. eigenvalues --   -2.08838  -2.06016  -0.96803  -0.95317  -0.90893
 Alpha  occ. eigenvalues --   -0.90091  -0.88818  -0.88443  -0.87074  -0.83447
 Alpha  occ. eigenvalues --   -0.82160  -0.81195  -0.80719  -0.78661  -0.77465
 Alpha  occ. eigenvalues --   -0.74039  -0.71382  -0.69014  -0.66757  -0.65848
 Alpha  occ. eigenvalues --   -0.63314  -0.61022  -0.59384  -0.58981  -0.58440
 Alpha  occ. eigenvalues --   -0.57732  -0.57076  -0.56652  -0.55658  -0.55053
 Alpha  occ. eigenvalues --   -0.54389  -0.54088  -0.53826  -0.53452  -0.53398
 Alpha  occ. eigenvalues --   -0.53147  -0.52870  -0.52175  -0.51560  -0.50316
 Alpha  occ. eigenvalues --   -0.49321  -0.49066  -0.48719  -0.48540  -0.48342
 Alpha  occ. eigenvalues --   -0.47884  -0.47251  -0.47032  -0.46716  -0.44241
 Alpha  occ. eigenvalues --   -0.44042  -0.43299  -0.42497  -0.42100  -0.41882
 Alpha  occ. eigenvalues --   -0.38026  -0.37676  -0.36149  -0.35743  -0.34919
 Alpha  occ. eigenvalues --   -0.34088  -0.31713
 Alpha virt. eigenvalues --   -0.18800  -0.15338  -0.14900  -0.10409  -0.09762
 Alpha virt. eigenvalues --   -0.08895  -0.08489  -0.07693  -0.07007  -0.06626
 Alpha virt. eigenvalues --   -0.05325  -0.05121  -0.04793  -0.04593  -0.04409

 Mulliken charges:
               1
     1  C   -0.366251
     2  C   -0.012539
     3  C    0.069081
     4  C   -0.035368
     5  H    0.152973
     6  P    0.457305
     7  P    0.380193
     8  C   -0.422354
     9  H    0.158228
    10  H    0.152003
    11  H    0.173287
    12  C   -0.409783
    13  H    0.159867
    14  H    0.159773
    15  H    0.153091
    16  C   -0.425625
    17  H    0.159753
    18  H    0.162338
    19  H    0.164825
    20  C   -0.408997
    21  H    0.154467
    22  H    0.144045
    23  H    0.140963
    24  C   -0.415502
    25  H    0.152325
    26  H    0.144448
    27  H    0.152543
    28  C   -0.016817
    29  H    0.178971
    30  C   -0.083510
    31  H    0.172187
    32  C   -0.221405
    33  H    0.134777
    34  H    0.173010
    35  C   -0.344311
    36  H    0.171347
    37  H    0.167599
    38  C   -0.009994
    39  H    0.169640
    40  C   -0.099463
    41  H    0.180790
    42  C   -0.214592
    43  H    0.132014
    44  H    0.173501
    45  C   -0.349860
    46  H    0.168020
    47  H    0.171483
    48  Rh  -0.557225
    49  C   -0.348155
    50  H    0.196869
    51  H    0.160035
 Sum of Mulliken charges =   1.00000

 Dipole moment (field-independent basis, Debye):
    X=             -1.5832    Y=              0.8410    Z=              0.1433  Tot=              1.7984
 Quadrupole moment (field-independent basis, Debye-Ang):
   XX=           -109.1738   YY=           -128.7385   ZZ=           -144.0609
   XY=              1.2106   XZ=              0.2415   YZ=             -1.6646

 Summary of Natural Population Analysis:

                                       Natural Population
                Natural  -----------------------------------------------
    Atom  No    Charge         Core      Valence    Rydberg      Total
 -----------------------------------------------------------------------
      C    1   -0.64055      1.99905     4.61535    0.02615     6.64055
      C    2    0.07262      1.99899     3.91334    0.01504     5.92738
      C    3   -0.06673      1.99892     4.05312    0.01469     6.06673
      C    4   -0.11955      1.99896     4.10021    0.02039     6.11955
      H    5    0.21246      0.00000     0.78467    0.00287     0.78754
      P    6    1.10779      9.99669     3.84483    0.05069    13.89221
      P    7    1.12966      9.99663     3.82249    0.05122    13.87034
      C    8   -0.89614      1.99941     4.88721    0.00952     6.89614
      H    9    0.23967      0.00000     0.75917    0.00116     0.76033
      H   10    0.24214      0.00000     0.75669    0.00117     0.75786
      H   11    0.24267      0.00000     0.75562    0.00171     0.75733
      C   12   -0.89073      1.99941     4.88176    0.00955     6.89073
      H   13    0.23960      0.00000     0.75932    0.00108     0.76040
      H   14    0.23869      0.00000     0.75957    0.00174     0.76131
      H   15    0.24148      0.00000     0.75743    0.00109     0.75852
      C   16   -0.90175      1.99942     4.89307    0.00926     6.90175
      H   17    0.23819      0.00000     0.76007    0.00174     0.76181
      H   18    0.24388      0.00000     0.75507    0.00105     0.75612
      H   19    0.24638      0.00000     0.75253    0.00109     0.75362
      C   20   -0.61282      1.99940     4.60487    0.00856     6.61282
      H   21    0.22146      0.00000     0.77705    0.00149     0.77854
      H   22    0.22096      0.00000     0.77758    0.00147     0.77904
      H   23    0.22095      0.00000     0.77775    0.00130     0.77905
      C   24   -0.62707      1.99938     4.61984    0.00785     6.62707
      H   25    0.22430      0.00000     0.77410    0.00160     0.77570
      H   26    0.22388      0.00000     0.77479    0.00133     0.77612
      H   27    0.22449      0.00000     0.77400    0.00151     0.77551
      C   28   -0.15995      1.99902     4.14093    0.02000     6.15995
      H   29    0.22286      0.00000     0.77540    0.00174     0.77714
      C   30   -0.15121      1.99903     4.13173    0.02045     6.15121
      H   31    0.22197      0.00000     0.77624    0.00179     0.77803
      C   32   -0.42238      1.99936     4.41061    0.01241     6.42238
      H   33    0.21939      0.00000     0.77910    0.00151     0.78061
      H   34    0.23546      0.00000     0.76277    0.00177     0.76454
      C   35   -0.42294      1.99937     4.41166    0.01192     6.42294
      H   36    0.23070      0.00000     0.76789    0.00141     0.76930
      H   37    0.21212      0.00000     0.78584    0.00204     0.78788
      C   38   -0.16712      1.99904     4.14796    0.02012     6.16712
      H   39    0.22730      0.00000     0.77120    0.00150     0.77270
      C   40   -0.14950      1.99903     4.12981    0.02065     6.14950
      H   41    0.22293      0.00000     0.77532    0.00175     0.77707
      C   42   -0.42256      1.99936     4.41076    0.01243     6.42256
      H   43    0.21885      0.00000     0.77963    0.00152     0.78115
      H   44    0.23530      0.00000     0.76292    0.00177     0.76470
      C   45   -0.42314      1.99937     4.41180    0.01197     6.42314
      H   46    0.21264      0.00000     0.78529    0.00207     0.78736
      H   47    0.23027      0.00000     0.76831    0.00142     0.76973
     Rh   48   -0.42755     35.98511     9.41690    0.02554    45.42755
      C   49   -0.71770      1.99931     4.70461    0.01378     6.71770
      H   50    0.25350      0.00000     0.74480    0.00170     0.74650
      H   51    0.24484      0.00000     0.75355    0.00161     0.75516
 =======================================================================
   * Total *    1.00000     91.96426   119.59654    0.43920   212.00000

 Normal termination of Gaussian 16 at Sun Jan 19 20:33:02 2025.
