 Gaussian 16, Revision B.01,
 Gaussian 16:  ES64L-G16RevB.01 20-Dec-2017

 ------------------------------------------
 # nmr=giao b3lyp/genecp pop=nbo scfcyc=200
 ------------------------------------------

 ---------
 DS-16_SPE
 ---------
 Symbolic Z-matrix:
 Charge =  1 Multiplicity = 1

                         Standard orientation:
 ---------------------------------------------------------------------
 Center     Atomic      Atomic             Coordinates (Angstroms)
 Number     Number       Type             X           Y           Z
 ---------------------------------------------------------------------
      1         15           0        1.357780   -0.379260    0.120470
      2         15           0       -1.396270    0.000988    0.017970
      3          6           0       -2.226390   -0.549552    2.678670
      4          6           0       -3.018630   -0.351762    3.805100
      5          6           0       -4.099690    0.520397    3.755810
      6          6           0       -4.385660    1.196787    2.573290
      7          6           0       -3.594290    1.003327    1.447670
      8          6           0       -2.507770    0.118898    1.486470
      9          1           0       -1.388599   -1.229292    2.732200
     10          1           0       -2.789789   -0.881762    4.721270
     11          1           0       -4.716920    0.672677    4.632050
     12          1           0       -5.227101    1.876706    2.525490
     13          1           0       -3.837311    1.534957    0.536090
     14          6           0       -3.825649   -0.701733   -1.346440
     15          6           0       -4.602319   -0.859863   -2.489350
     16          6           0       -4.073130   -0.572013   -3.743070
     17          6           0       -2.764050   -0.113212   -3.850490
     18          6           0       -1.990830    0.058548   -2.708370
     19          6           0       -2.508140   -0.244912   -1.444530
     20          1           0       -4.257199   -0.931683   -0.381560
     21          1           0       -5.622959   -1.209884   -2.397760
     22          1           0       -4.680029   -0.697403   -4.630870
     23          1           0       -2.348760    0.122648   -4.822390
     24          1           0       -0.982630    0.444769   -2.793420
     25          6           0        2.306220   -0.600970   -2.490650
     26          6           0        3.192431   -0.954049   -3.500130
     27          6           0        4.388891   -1.592368   -3.185420
     28          6           0        4.691521   -1.875288   -1.858190
     29          6           0        3.799931   -1.533479   -0.846040
     30          6           0        2.593521   -0.899129   -1.153530
     31          1           0        1.384100   -0.091960   -2.741860
     32          1           0        2.953841   -0.723959   -4.530990
     33          1           0        5.084031   -1.861608   -3.970560
     34          1           0        5.623291   -2.365838   -1.605870
     35          1           0        4.054201   -1.763959    0.179100
     36          6           0        3.426970    0.228141    1.907730
     37          6           0        4.058750    0.275201    3.143840
     38          6           0        3.492250   -0.361499    4.244660
     39          6           0        2.294361   -1.050530    4.098600
     40          6           0        1.663681   -1.105060    2.859650
     41          6           0        2.222710   -0.471260    1.749850
     42          1           0        3.886530    0.727111    1.063630
     43          1           0        4.994510    0.810302    3.246970
     44          1           0        3.983940   -0.321679    5.208310
     45          1           0        1.849351   -1.552080    4.948940
     46          1           0        0.740551   -1.656270    2.758040
     47          6           0       -0.193019   -1.439191    0.151640
     48         45           0        0.236589    1.649449   -0.186840
     49          6           0        1.892758    3.205000    0.190280
     50          6           0        1.904259    2.855870   -1.141070
     51          6           0       -0.977622    3.394679   -1.047190
     52          6           0       -1.016772    3.461449    0.328520
     53          6           0        1.302158    4.477460    0.765390
     54          1           0        2.565669    2.669421    0.849480
     55          1           0        2.618539    2.101691   -1.453600
     56          6           0        1.268358    3.620570   -2.276630
     57          6           0       -0.104682    4.248829   -1.948560
     58          1           0       -1.806081    2.897078   -1.539000
     59          6           0       -0.163452    4.325809    1.223150
     60          1           0       -1.883941    3.037898    0.822740
     61          1           0        1.902288    4.778120    1.625930
     62          1           0        1.392967    5.285560    0.039900
     63          1           0        1.955888    4.401620   -2.624920
     64          1           0        1.154769    2.932270   -3.117130
     65          1           0        0.028287    5.233189   -1.500250
     66          1           0       -0.637722    4.417699   -2.885810
     67          1           0       -0.181822    3.884779    2.222080
     68          1           0       -0.623703    5.316719    1.325340
     69          6           0       -0.472408   -2.765691    0.097920
     70          6           0       -1.924068   -3.232522    0.194000
     71          1           0       -2.554409   -2.353642    0.302680
     72          6           0        0.520142   -3.917301   -0.078810
     73          1           0       -0.063017   -4.824041    0.082880
     74          6           0       -2.157088   -4.090662    1.454090
     75          1           0       -3.224358   -4.296603    1.553420
     76          1           0       -1.643877   -5.051782    1.403040
     77          1           0       -1.833958   -3.580062    2.361980
     78          6           0       -2.399038   -3.980622   -1.063970
     79          1           0       -3.459788   -4.217213   -0.962350
     80          1           0       -2.276958   -3.377102   -1.963570
     81          1           0       -1.867927   -4.922912   -1.205560
     82          6           0        1.661922   -3.978160    0.942370
     83          1           0        1.283552   -4.008870    1.964870
     84          1           0        2.239923   -4.889580    0.776680
     85          1           0        2.346152   -3.138040    0.861310
     86          6           0        1.037752   -4.014440   -1.528140
     87          1           0        1.711872   -3.200070   -1.777070
     88          1           0        1.582473   -4.953090   -1.648970
     89          1           0        0.219612   -4.010141   -2.248350
 ---------------------------------------------------------------------

 SCF Done:  E(RB3LYP) =  -2345.65121617     A.U. after   16 cycles

      1  P    Isotropic =   283.2711   Anisotropy =    68.6796

      2  P    Isotropic =   279.7759   Anisotropy =    79.3104

      3  C    Isotropic =    48.1885   Anisotropy =   186.0328

      4  C    Isotropic =    49.2816   Anisotropy =   188.4973

      5  C    Isotropic =    46.6091   Anisotropy =   195.2084

      6  C    Isotropic =    48.7957   Anisotropy =   189.9353

      7  C    Isotropic =    47.6796   Anisotropy =   188.3467

      8  C    Isotropic =    45.7242   Anisotropy =   166.3463

      9  H    Isotropic =    23.8419   Anisotropy =     9.1747

     10  H    Isotropic =    24.0575   Anisotropy =     7.2347

     11  H    Isotropic =    24.0423   Anisotropy =     3.6838

     12  H    Isotropic =    24.1176   Anisotropy =     6.2545

     13  H    Isotropic =    24.5247   Anisotropy =    10.8702

     14  C    Isotropic =    45.9617   Anisotropy =   191.8845

     15  C    Isotropic =    49.3326   Anisotropy =   187.8632

     16  C    Isotropic =    45.7896   Anisotropy =   195.8235

     17  C    Isotropic =    49.2371   Anisotropy =   186.4708

     18  C    Isotropic =    41.5253   Anisotropy =   180.7240

     19  C    Isotropic =    42.1170   Anisotropy =   172.9422

     20  H    Isotropic =    24.2689   Anisotropy =    10.9376

     21  H    Isotropic =    24.2379   Anisotropy =     6.2690

     22  H    Isotropic =    24.0180   Anisotropy =     3.6974

     23  H    Isotropic =    23.9416   Anisotropy =     7.0968

     24  H    Isotropic =    22.8957   Anisotropy =     9.9645

     25  C    Isotropic =    42.0719   Anisotropy =   184.2673

     26  C    Isotropic =    48.6623   Anisotropy =   188.3296

     27  C    Isotropic =    45.3994   Anisotropy =   196.6839

     28  C    Isotropic =    49.0609   Anisotropy =   188.9339

     29  C    Isotropic =    45.8478   Anisotropy =   193.3107

     30  C    Isotropic =    42.7361   Anisotropy =   172.8013

     31  H    Isotropic =    23.2422   Anisotropy =     9.5123

     32  H    Isotropic =    23.9351   Anisotropy =     6.9373

     33  H    Isotropic =    24.0228   Anisotropy =     3.6044

     34  H    Isotropic =    24.2140   Anisotropy =     6.2348

     35  H    Isotropic =    24.2666   Anisotropy =    11.1544

     36  C    Isotropic =    47.1216   Anisotropy =   188.7676

     37  C    Isotropic =    49.3182   Anisotropy =   188.8733

     38  C    Isotropic =    46.7702   Anisotropy =   194.9729

     39  C    Isotropic =    49.5394   Anisotropy =   187.7419

     40  C    Isotropic =    46.7539   Anisotropy =   188.6787

     41  C    Isotropic =    46.2836   Anisotropy =   166.2332

     42  H    Isotropic =    24.5608   Anisotropy =    10.6430

     43  H    Isotropic =    24.1476   Anisotropy =     6.2931

     44  H    Isotropic =    24.0570   Anisotropy =     3.6666

     45  H    Isotropic =    24.0655   Anisotropy =     7.1746

     46  H    Isotropic =    23.8220   Anisotropy =     9.4261

     47  C    Isotropic =    36.0233   Anisotropy =    67.7300

     48  Rh   Isotropic =  -294.0142   Anisotropy =   315.7701

     49  C    Isotropic =    75.0115   Anisotropy =   126.0116

     50  C    Isotropic =    74.2913   Anisotropy =   120.5467

     51  C    Isotropic =    78.2216   Anisotropy =   122.1306

     52  C    Isotropic =    73.1542   Anisotropy =   122.6155

     53  C    Isotropic =   154.3494   Anisotropy =    24.7153

     54  H    Isotropic =    27.1296   Anisotropy =     6.6600

     55  H    Isotropic =    26.6207   Anisotropy =     2.3606

     56  C    Isotropic =   148.4978   Anisotropy =    27.4723

     57  C    Isotropic =   153.8715   Anisotropy =    25.4274

     58  H    Isotropic =    27.0610   Anisotropy =     4.8949

     59  C    Isotropic =   148.9958   Anisotropy =    28.3912

     60  H    Isotropic =    26.8784   Anisotropy =     5.5139

     61  H    Isotropic =    30.1872   Anisotropy =    11.3446

     62  H    Isotropic =    29.9541   Anisotropy =     9.8887

     63  H    Isotropic =    29.1888   Anisotropy =    12.7815

     64  H    Isotropic =    29.0318   Anisotropy =     7.2144

     65  H    Isotropic =    29.7672   Anisotropy =    10.0503

     66  H    Isotropic =    29.8439   Anisotropy =    11.2177

     67  H    Isotropic =    29.8482   Anisotropy =     6.2684

     68  H    Isotropic =    29.5143   Anisotropy =    12.8478

     69  C    Isotropic =   -23.3117   Anisotropy =   233.8287

     70  C    Isotropic =   139.1270   Anisotropy =    21.0470

     71  H    Isotropic =    29.0684   Anisotropy =     9.4543

     72  C    Isotropic =   145.4650   Anisotropy =    19.3393

     73  H    Isotropic =    29.3829   Anisotropy =     7.0966

     74  C    Isotropic =   162.2455   Anisotropy =    36.8481

     75  H    Isotropic =    30.9248   Anisotropy =    10.0091

     76  H    Isotropic =    30.7549   Anisotropy =     7.7521

     77  H    Isotropic =    30.8245   Anisotropy =     7.5233

     78  C    Isotropic =   164.6494   Anisotropy =    27.9968

     79  H    Isotropic =    31.4859   Anisotropy =     9.5048

     80  H    Isotropic =    32.4740   Anisotropy =     7.1869

     81  H    Isotropic =    31.3154   Anisotropy =     7.2903

     82  C    Isotropic =   160.9673   Anisotropy =    20.8894

     83  H    Isotropic =    30.9707   Anisotropy =     7.2576

     84  H    Isotropic =    31.0910   Anisotropy =    10.8882

     85  H    Isotropic =    30.9909   Anisotropy =     8.2803

     86  C    Isotropic =   163.4055   Anisotropy =    31.3796

     87  H    Isotropic =    32.7641   Anisotropy =    15.7525

     88  H    Isotropic =    31.6733   Anisotropy =    11.0343

     89  H    Isotropic =    31.7985   Anisotropy =     5.2942

 The electronic state is 1-A.
 Alpha  occ. eigenvalues --  -77.23727 -77.23568 -10.31259 -10.30059 -10.29451
 Alpha  occ. eigenvalues --  -10.29435 -10.29411 -10.29338 -10.28320 -10.28202
 Alpha  occ. eigenvalues --  -10.28192 -10.28157 -10.28138 -10.28090 -10.28075
 Alpha  occ. eigenvalues --  -10.28070 -10.28053 -10.28040 -10.28040 -10.27992
 Alpha  occ. eigenvalues --  -10.27950 -10.27935 -10.27560 -10.27505 -10.27449
 Alpha  occ. eigenvalues --  -10.27419 -10.27396 -10.27396 -10.27382 -10.27331
 Alpha  occ. eigenvalues --  -10.27331 -10.27297 -10.27264 -10.27202 -10.27035
 Alpha  occ. eigenvalues --  -10.26755 -10.26752 -10.26600 -10.25550 -10.25161
 Alpha  occ. eigenvalues --  -10.25084 -10.24728  -6.69579  -6.69438  -4.85866
 Alpha  occ. eigenvalues --   -4.85811  -4.85718  -4.85670  -4.85492  -4.85356
 Alpha  occ. eigenvalues --   -3.30637  -2.07562  -2.06860  -2.04102  -0.96732
 Alpha  occ. eigenvalues --   -0.96512  -0.95947  -0.95911  -0.94338  -0.93750
 Alpha  occ. eigenvalues --   -0.88466  -0.88303  -0.87828  -0.87359  -0.86906
 Alpha  occ. eigenvalues --   -0.85315  -0.85211  -0.85120  -0.85014  -0.84724
 Alpha  occ. eigenvalues --   -0.84683  -0.84138  -0.79685  -0.78273  -0.77567
 Alpha  occ. eigenvalues --   -0.77336  -0.77166  -0.75412  -0.71843  -0.71166
 Alpha  occ. eigenvalues --   -0.71043  -0.70767  -0.70570  -0.70161  -0.70002
 Alpha  occ. eigenvalues --   -0.69889  -0.69053  -0.67268  -0.66690  -0.65186
 Alpha  occ. eigenvalues --   -0.62919  -0.62374  -0.62057  -0.61656  -0.60409
 Alpha  occ. eigenvalues --   -0.59323  -0.58900  -0.57691  -0.56786  -0.56408
 Alpha  occ. eigenvalues --   -0.56033  -0.55932  -0.55693  -0.55665  -0.55463
 Alpha  occ. eigenvalues --   -0.55401  -0.55206  -0.54622  -0.54159  -0.53187
 Alpha  occ. eigenvalues --   -0.53036  -0.53016  -0.52763  -0.52539  -0.52278
 Alpha  occ. eigenvalues --   -0.52122  -0.52024  -0.51912  -0.51838  -0.51260
 Alpha  occ. eigenvalues --   -0.51029  -0.49919  -0.48951  -0.48754  -0.48215
 Alpha  occ. eigenvalues --   -0.48130  -0.47553  -0.47355  -0.47247  -0.47215
 Alpha  occ. eigenvalues --   -0.46915  -0.46719  -0.46340  -0.46111  -0.45424
 Alpha  occ. eigenvalues --   -0.45343  -0.45291  -0.45087  -0.44854  -0.44717
 Alpha  occ. eigenvalues --   -0.44517  -0.43964  -0.43418  -0.43376  -0.43197
 Alpha  occ. eigenvalues --   -0.42700  -0.42644  -0.42370  -0.41765  -0.40971
 Alpha  occ. eigenvalues --   -0.40404  -0.37729  -0.37508  -0.37183  -0.36307
 Alpha  occ. eigenvalues --   -0.36148  -0.36007  -0.35918  -0.35659  -0.35495
 Alpha  occ. eigenvalues --   -0.35334  -0.34007  -0.33649  -0.33518  -0.32821
 Alpha  occ. eigenvalues --   -0.29724
 Alpha virt. eigenvalues --   -0.17055  -0.14380  -0.13895  -0.12947  -0.12729
 Alpha virt. eigenvalues --   -0.11843  -0.11553  -0.11349  -0.10691  -0.10569
 Alpha virt. eigenvalues --   -0.09671  -0.08617  -0.07303  -0.06334  -0.05717

 Mulliken charges:
               1
     1  P    0.406011
     2  P    0.343261
     3  C    0.009149
     4  C   -0.122768
     5  C   -0.094603
     6  C   -0.087407
     7  C   -0.169578
     8  C   -0.117132
     9  H    0.101180
    10  H    0.128530
    11  H    0.137529
    12  H    0.133843
    13  H    0.179902
    14  C   -0.071518
    15  C   -0.095711
    16  C   -0.094233
    17  C   -0.113377
    18  C   -0.042763
    19  C   -0.226994
    20  H    0.169125
    21  H    0.133823
    22  H    0.137993
    23  H    0.127449
    24  H    0.158650
    25  C   -0.046998
    26  C   -0.089400
    27  C   -0.101809
    28  C   -0.097427
    29  C   -0.048497
    30  C   -0.255100
    31  H    0.129684
    32  H    0.128735
    33  H    0.137434
    34  H    0.135272
    35  H    0.170376
    36  C   -0.169490
    37  C   -0.086630
    38  C   -0.099579
    39  C   -0.113408
    40  C   -0.024777
    41  C   -0.138890
    42  H    0.177016
    43  H    0.132794
    44  H    0.136568
    45  H    0.128293
    46  H    0.149895
    47  C   -0.679271
    48  Rh  -0.624743
    49  C   -0.007480
    50  C   -0.105793
    51  C   -0.020816
    52  C   -0.105070
    53  C   -0.352798
    54  H    0.181278
    55  H    0.212895
    56  C   -0.236429
    57  C   -0.355549
    58  H    0.200795
    59  C   -0.219979
    60  H    0.205677
    61  H    0.166024
    62  H    0.164888
    63  H    0.171392
    64  H    0.129727
    65  H    0.167359
    66  H    0.165931
    67  H    0.136208
    68  H    0.167750
    69  C    0.276916
    70  C   -0.088821
    71  H    0.129370
    72  C   -0.042544
    73  H    0.146507
    74  C   -0.366257
    75  H    0.148858
    76  H    0.140707
    77  H    0.121446
    78  C   -0.398509
    79  H    0.142010
    80  H    0.153503
    81  H    0.145749
    82  C   -0.391388
    83  H    0.132844
    84  H    0.148355
    85  H    0.119357
    86  C   -0.385737
    87  H    0.137706
    88  H    0.145963
    89  H    0.137547
 Sum of Mulliken charges =   1.00000

 Dipole moment (field-independent basis, Debye):
    X=             -0.1640    Y=             -0.3066    Z=             -0.0979  Tot=              0.3612
 Quadrupole moment (field-independent basis, Debye-Ang):
   XX=           -226.0609   YY=           -242.2634   ZZ=           -235.6280
   XY=             -0.0428   XZ=             -0.8943   YZ=             -2.4672

 Summary of Natural Population Analysis:

                                       Natural Population
                Natural  -----------------------------------------------
    Atom  No    Charge         Core      Valence    Rydberg      Total
 -----------------------------------------------------------------------
      P    1    1.12203      9.99615     3.82670    0.05512    13.87797
      P    2    1.12110      9.99617     3.82712    0.05562    13.87890
      C    3   -0.19384      1.99908     4.17930    0.01546     6.19384
      C    4   -0.19137      1.99919     4.17773    0.01445     6.19137
      C    5   -0.18267      1.99920     4.16884    0.01462     6.18267
      C    6   -0.19148      1.99919     4.17770    0.01459     6.19148
      C    7   -0.20659      1.99909     4.19224    0.01525     6.20659
      C    8   -0.34113      1.99897     4.31843    0.02373     6.34113
      H    9    0.20994      0.00000     0.78776    0.00230     0.79006
      H   10    0.21982      0.00000     0.77892    0.00126     0.78018
      H   11    0.22275      0.00000     0.77607    0.00118     0.77725
      H   12    0.22250      0.00000     0.77627    0.00123     0.77750
      H   13    0.21909      0.00000     0.77894    0.00197     0.78091
      C   14   -0.19862      1.99909     4.18229    0.01724     6.19862
      C   15   -0.19506      1.99919     4.18056    0.01531     6.19506
      C   16   -0.17793      1.99920     4.16409    0.01464     6.17793
      C   17   -0.19809      1.99919     4.18426    0.01464     6.19809
      C   18   -0.18886      1.99910     4.17353    0.01622     6.18886
      C   19   -0.33777      1.99896     4.31362    0.02519     6.33777
      H   20    0.22190      0.00000     0.77601    0.00208     0.77810
      H   21    0.22239      0.00000     0.77634    0.00127     0.77761
      H   22    0.22274      0.00000     0.77611    0.00115     0.77726
      H   23    0.22005      0.00000     0.77872    0.00124     0.77995
      H   24    0.21740      0.00000     0.78056    0.00204     0.78260
      C   25   -0.19167      1.99909     4.17654    0.01604     6.19167
      C   26   -0.19708      1.99919     4.18323    0.01467     6.19708
      C   27   -0.17729      1.99920     4.16343    0.01466     6.17729
      C   28   -0.19362      1.99919     4.17948    0.01495     6.19362
      C   29   -0.19686      1.99909     4.18186    0.01592     6.19686
      C   30   -0.34524      1.99896     4.32145    0.02482     6.34524
      H   31    0.21599      0.00000     0.78174    0.00227     0.78401
      H   32    0.22116      0.00000     0.77760    0.00124     0.77884
      H   33    0.22336      0.00000     0.77549    0.00116     0.77664
      H   34    0.22335      0.00000     0.77543    0.00122     0.77665
      H   35    0.22437      0.00000     0.77362    0.00201     0.77563
      C   36   -0.20380      1.99909     4.18943    0.01528     6.20380
      C   37   -0.19296      1.99919     4.17924    0.01453     6.19296
      C   38   -0.18188      1.99920     4.16806    0.01462     6.18188
      C   39   -0.19279      1.99919     4.17916    0.01444     6.19279
      C   40   -0.19070      1.99908     4.17626    0.01536     6.19070
      C   41   -0.33400      1.99896     4.31114    0.02390     6.33400
      H   42    0.21662      0.00000     0.78131    0.00206     0.78338
      H   43    0.22205      0.00000     0.77672    0.00124     0.77795
      H   44    0.22252      0.00000     0.77630    0.00118     0.77748
      H   45    0.21939      0.00000     0.77936    0.00125     0.78061
      H   46    0.21059      0.00000     0.78717    0.00224     0.78941
      C   47   -0.64624      1.99886     4.61929    0.02809     6.64624
     Rh   48   -0.37406     35.98608     9.36100    0.02698    45.37406
      C   49   -0.17818      1.99909     4.15973    0.01936     6.17818
      C   50   -0.16947      1.99910     4.15019    0.02017     6.16947
      C   51   -0.17697      1.99908     4.15858    0.01931     6.17697
      C   52   -0.16812      1.99910     4.14877    0.02025     6.16812
      C   53   -0.42255      1.99936     4.41078    0.01241     6.42255
      H   54    0.22640      0.00000     0.77125    0.00235     0.77360
      H   55    0.22944      0.00000     0.76855    0.00201     0.77056
      C   56   -0.41673      1.99935     4.40436    0.01302     6.41673
      C   57   -0.42310      1.99936     4.41189    0.01185     6.42310
      H   58    0.22687      0.00000     0.77119    0.00195     0.77313
      C   59   -0.41786      1.99935     4.40556    0.01295     6.41786
      H   60    0.22838      0.00000     0.76921    0.00241     0.77162
      H   61    0.22795      0.00000     0.77059    0.00146     0.77205
      H   62    0.21296      0.00000     0.78510    0.00194     0.78704
      H   63    0.23206      0.00000     0.76611    0.00183     0.76794
      H   64    0.21215      0.00000     0.78627    0.00159     0.78785
      H   65    0.21462      0.00000     0.78345    0.00193     0.78538
      H   66    0.22661      0.00000     0.77192    0.00147     0.77339
      H   67    0.21957      0.00000     0.77892    0.00151     0.78043
      H   68    0.23158      0.00000     0.76656    0.00185     0.76842
      C   69    0.18538      1.99892     3.78961    0.02610     5.81462
      C   70   -0.26099      1.99932     4.24731    0.01436     6.26099
      H   71    0.20852      0.00000     0.78763    0.00385     0.79148
      C   72   -0.26926      1.99930     4.25629    0.01367     6.26926
      H   73    0.20734      0.00000     0.79004    0.00262     0.79266
      C   74   -0.58227      1.99940     4.57501    0.00786     6.58227
      H   75    0.22055      0.00000     0.77824    0.00121     0.77945
      H   76    0.20486      0.00000     0.79377    0.00136     0.79514
      H   77    0.20358      0.00000     0.79499    0.00142     0.79642
      C   78   -0.58947      1.99940     4.58151    0.00855     6.58947
      H   79    0.21816      0.00000     0.78054    0.00130     0.78184
      H   80    0.21312      0.00000     0.78509    0.00179     0.78688
      H   81    0.20578      0.00000     0.79287    0.00134     0.79422
      C   82   -0.57866      1.99940     4.57083    0.00843     6.57866
      H   83    0.20659      0.00000     0.79209    0.00132     0.79341
      H   84    0.21794      0.00000     0.78078    0.00128     0.78206
      H   85    0.19899      0.00000     0.79885    0.00216     0.80101
      C   86   -0.57920      1.99939     4.57139    0.00842     6.57920
      H   87    0.21003      0.00000     0.78769    0.00228     0.78997
      H   88    0.21463      0.00000     0.78409    0.00128     0.78537
      H   89    0.20925      0.00000     0.78950    0.00125     0.79075
 =======================================================================
   * Total *    1.00000    135.94510   223.19353    0.86137   360.00000

 Normal termination of Gaussian 16 at Sun Jan 19 22:01:24 2025.
