 Gaussian 16, Revision B.01,
 Gaussian 16:  ES64L-G16RevB.01 20-Dec-2017

 ------------------------------------------
 # nmr=giao b3lyp/genecp pop=nbo scfcyc=200
 ------------------------------------------

 ---------
 DS-14_SPE
 ---------
 Symbolic Z-matrix:
 Charge =  1 Multiplicity = 1

                         Standard orientation:
 ---------------------------------------------------------------------
 Center     Atomic      Atomic             Coordinates (Angstroms)
 Number     Number       Type             X           Y           Z
 ---------------------------------------------------------------------
      1         15           0       -0.006818   -1.404170    0.103770
      2         15           0        0.003187    1.413360    0.094960
      3          7           0       -3.541040    0.010293    1.082580
      4          6           0       -0.803276   -2.414832   -1.218700
      5          6           0       -0.492196   -2.143011   -2.553630
      6          6           0       -1.114455   -2.848092   -3.578280
      7          6           0       -2.049123   -3.833484   -3.277440
      8          6           0       -2.361532   -4.111815   -1.949710
      9          6           0       -1.742774   -3.407613   -0.922580
     10          6           0        0.074945   -2.528220    1.561010
     11          6           0        0.741827   -3.752579    1.428260
     12          6           0        0.884159   -4.595718    2.523020
     13          6           0        0.368568   -4.225509    3.762590
     14          6           0       -0.292434   -3.010621    3.900960
     15          6           0       -0.436266   -2.162451    2.806590
     16          6           0       -0.763955    2.401998   -1.260200
     17          6           0       -1.787617    3.321547   -1.007800
     18          6           0       -2.379688    4.012665   -2.058540
     19          6           0       -1.955958    3.795226   -3.367200
     20          6           0       -0.936546    2.885008   -3.624150
     21          6           0       -0.341514    2.191659   -2.574840
     22          6           0        0.056955    2.564880    1.532330
     23          6           0       -0.373244    2.174209    2.801200
     24          6           0       -0.244586    3.039759    3.883390
     25          6           0        0.322181    4.297331    3.710210
     26          6           0        0.758611    4.691741    2.448240
     27          6           0        0.630192    3.831511    1.364660
     28          6           0       -1.096590    0.009318    0.481600
     29          6           0       -2.402400    0.011275    0.738930
     30          6           0       -4.890840    0.002591    0.470770
     31          6           0       -4.779160   -0.011519   -1.056650
     32          6           0       -5.598678   -1.255011    0.989830
     33          6           0       -5.603433    1.266759    0.966740
     34          1           0        0.237952   -1.378290   -2.789590
     35          1           0       -0.864385   -2.633382   -4.609750
     36          1           0       -2.528712   -4.387675   -4.074470
     37          1           0       -3.083391   -4.883476   -1.712480
     38          1           0       -1.983293   -3.642914    0.106410
     39          1           0        1.136108   -4.061598    0.467230
     40          1           0        1.395810   -5.543097    2.408070
     41          1           0        0.479719   -4.883969    4.614750
     42          1           0       -0.699605   -2.720171    4.861390
     43          1           0       -0.953168   -1.219882    2.925340
     44          1           0       -2.113447    3.511906    0.007190
     45          1           0       -3.167389    4.727554   -1.855320
     46          1           0       -2.415479    4.339625   -4.182580
     47          1           0       -0.599576    2.719289   -4.639820
     48          1           0        0.455707    1.485721   -2.774380
     49          1           0       -0.814603    1.197698    2.946940
     50          1           0       -0.589526    2.729569    4.861850
     51          1           0        0.421350    4.969541    4.553060
     52          1           0        1.197049    5.671602    2.306270
     53          1           0        0.961142    4.158932    0.386200
     54          1           0       -5.776890   -0.017781   -1.498010
     55          1           0       -4.248929   -0.900058   -1.403320
     56          1           0       -4.252502    0.872392   -1.420160
     57          1           0       -6.617428   -1.284133    0.601060
     58          1           0       -5.644078   -1.254731    2.079040
     59          1           0       -5.082456   -2.158450    0.662270
     60          1           0       -6.622533    1.284457    0.578240
     61          1           0       -5.091334    2.166160    0.621990
     62          1           0       -5.648073    1.286819    2.055790
     63         45           0        1.848760   -0.004406   -0.353300
     64          6           0        3.392577    1.426677   -1.214740
     65          6           0        3.483207    1.444467    0.162860
     66          6           0        3.567003   -1.460113   -0.041950
     67          6           0        3.199223   -1.481754   -1.372100
     68          6           0        4.334218    0.689728   -2.150120
     69          1           0        2.792905    2.204635   -1.675160
     70          1           0        2.971765    2.246746    0.684130
     71          6           0        4.469058    0.686579    1.017230
     72          6           0        4.777571   -0.742761    0.524830
     73          1           0        3.130644   -2.213454    0.604380
     74          6           0        3.869291   -0.740373   -2.503620
     75          1           0        2.534184   -2.278295   -1.690730
     76          1           0        4.422307    1.262069   -3.075130
     77          1           0        5.334388    0.666790   -1.717740
     78          1           0        5.400597    1.260320    1.102350
     79          1           0        4.056939    0.635188    2.027110
     80          1           0        5.575631   -0.727049   -0.217160
     81          1           0        5.160592   -1.322920    1.365980
     82          1           0        3.159751   -0.689684   -3.332710
     83          1           0        4.719882   -1.324341   -2.877030
 ---------------------------------------------------------------------

 SCF Done:  E(RB3LYP) =  -2321.17268327     A.U. after   16 cycles

      1  P    Isotropic =   304.0487   Anisotropy =    96.6072

      2  P    Isotropic =   301.7447   Anisotropy =    95.4973

      3  N    Isotropic =    45.0478   Anisotropy =   142.8931

      4  C    Isotropic =    39.0501   Anisotropy =   178.9830

      5  C    Isotropic =    43.4845   Anisotropy =   179.6120

      6  C    Isotropic =    49.4275   Anisotropy =   187.1724

      7  C    Isotropic =    45.8598   Anisotropy =   196.3126

      8  C    Isotropic =    49.1400   Anisotropy =   188.9304

      9  C    Isotropic =    47.0954   Anisotropy =   189.1858

     10  C    Isotropic =    44.7944   Anisotropy =   168.4155

     11  C    Isotropic =    48.0461   Anisotropy =   187.4172

     12  C    Isotropic =    48.5674   Anisotropy =   190.4337

     13  C    Isotropic =    46.7196   Anisotropy =   194.8892

     14  C    Isotropic =    49.2290   Anisotropy =   188.2037

     15  C    Isotropic =    48.2504   Anisotropy =   187.8592

     16  C    Isotropic =    39.4272   Anisotropy =   180.0135

     17  C    Isotropic =    47.0000   Anisotropy =   188.6922

     18  C    Isotropic =    48.8934   Anisotropy =   189.1112

     19  C    Isotropic =    45.6502   Anisotropy =   196.7370

     20  C    Isotropic =    49.5352   Anisotropy =   186.7693

     21  C    Isotropic =    42.9573   Anisotropy =   178.5478

     22  C    Isotropic =    44.0955   Anisotropy =   168.5071

     23  C    Isotropic =    48.1740   Anisotropy =   188.5242

     24  C    Isotropic =    49.3526   Anisotropy =   188.0456

     25  C    Isotropic =    46.7054   Anisotropy =   194.8967

     26  C    Isotropic =    48.5659   Anisotropy =   190.4202

     27  C    Isotropic =    47.9560   Anisotropy =   188.5384

     28  C    Isotropic =   125.1510   Anisotropy =    49.9598

     29  C    Isotropic =    35.4200   Anisotropy =   223.4710

     30  C    Isotropic =   116.7678   Anisotropy =    52.4308

     31  C    Isotropic =   153.1010   Anisotropy =    44.2416

     32  C    Isotropic =   153.7141   Anisotropy =    46.5471

     33  C    Isotropic =   153.7354   Anisotropy =    46.4642

     34  H    Isotropic =    23.2444   Anisotropy =     9.1363

     35  H    Isotropic =    24.0614   Anisotropy =     6.8169

     36  H    Isotropic =    24.0967   Anisotropy =     3.8096

     37  H    Isotropic =    24.3766   Anisotropy =     6.0559

     38  H    Isotropic =    24.7423   Anisotropy =    11.0900

     39  H    Isotropic =    24.8375   Anisotropy =    10.9329

     40  H    Isotropic =    24.2040   Anisotropy =     6.3466

     41  H    Isotropic =    24.0219   Anisotropy =     3.6958

     42  H    Isotropic =    23.9438   Anisotropy =     6.6423

     43  H    Isotropic =    23.5777   Anisotropy =    10.2833

     44  H    Isotropic =    24.6515   Anisotropy =    10.6924

     45  H    Isotropic =    24.3377   Anisotropy =     6.0894

     46  H    Isotropic =    24.0599   Anisotropy =     3.8149

     47  H    Isotropic =    24.0274   Anisotropy =     6.7443

     48  H    Isotropic =    23.0859   Anisotropy =     9.5227

     49  H    Isotropic =    23.5728   Anisotropy =    10.2616

     50  H    Isotropic =    23.9620   Anisotropy =     6.7058

     51  H    Isotropic =    24.0348   Anisotropy =     3.7036

     52  H    Isotropic =    24.2199   Anisotropy =     6.2941

     53  H    Isotropic =    24.8679   Anisotropy =    11.1037

     54  H    Isotropic =    31.3097   Anisotropy =     9.0977

     55  H    Isotropic =    31.8206   Anisotropy =     8.2834

     56  H    Isotropic =    31.7031   Anisotropy =     7.9539

     57  H    Isotropic =    30.9648   Anisotropy =    10.2343

     58  H    Isotropic =    30.5746   Anisotropy =     8.0473

     59  H    Isotropic =    31.0096   Anisotropy =     5.6152

     60  H    Isotropic =    30.9429   Anisotropy =    10.2539

     61  H    Isotropic =    30.9676   Anisotropy =     5.6270

     62  H    Isotropic =    30.5643   Anisotropy =     8.0162

     63  Rh   Isotropic =  -314.0553   Anisotropy =   354.0391

     64  C    Isotropic =    81.8963   Anisotropy =   116.9150

     65  C    Isotropic =    73.1369   Anisotropy =   122.4686

     66  C    Isotropic =    76.2858   Anisotropy =   125.1854

     67  C    Isotropic =    79.4915   Anisotropy =   112.6400

     68  C    Isotropic =   153.8704   Anisotropy =    25.3068

     69  H    Isotropic =    26.9082   Anisotropy =     6.1703

     70  H    Isotropic =    26.9356   Anisotropy =     5.1881

     71  C    Isotropic =   148.1777   Anisotropy =    29.3024

     72  C    Isotropic =   154.1243   Anisotropy =    24.8547

     73  H    Isotropic =    27.2614   Anisotropy =     6.7150

     74  C    Isotropic =   147.4900   Anisotropy =    29.3774

     75  H    Isotropic =    26.3732   Anisotropy =     3.5790

     76  H    Isotropic =    29.7237   Anisotropy =    11.5414

     77  H    Isotropic =    29.7653   Anisotropy =     9.7598

     78  H    Isotropic =    29.4689   Anisotropy =    12.5978

     79  H    Isotropic =    29.6170   Anisotropy =     6.4722

     80  H    Isotropic =    29.9364   Anisotropy =     9.7746

     81  H    Isotropic =    30.1550   Anisotropy =    11.0710

     82  H    Isotropic =    28.8124   Anisotropy =     7.8574

     83  H    Isotropic =    29.0145   Anisotropy =    12.7368

 The electronic state is 1-A.
 Alpha  occ. eigenvalues --  -77.23598 -77.23596 -14.45463 -10.35568 -10.33676
 Alpha  occ. eigenvalues --  -10.29156 -10.28976 -10.28975 -10.28939 -10.28915
 Alpha  occ. eigenvalues --  -10.28447 -10.28400 -10.28277 -10.28234 -10.27931
 Alpha  occ. eigenvalues --  -10.27920 -10.27908 -10.27853 -10.27766 -10.27714
 Alpha  occ. eigenvalues --  -10.27675 -10.27639 -10.27357 -10.27324 -10.27290
 Alpha  occ. eigenvalues --  -10.27262 -10.27257 -10.27231 -10.27080 -10.27070
 Alpha  occ. eigenvalues --  -10.27041 -10.27041 -10.27010 -10.26956 -10.26923
 Alpha  occ. eigenvalues --  -10.26790 -10.26787 -10.26629 -10.25742 -10.25717
 Alpha  occ. eigenvalues --  -10.25692  -6.69466  -6.69463  -4.85780  -4.85776
 Alpha  occ. eigenvalues --   -4.85670  -4.85668  -4.85377  -4.85374  -3.30931
 Alpha  occ. eigenvalues --   -2.07807  -2.07191  -2.04378  -1.06926  -0.96431
 Alpha  occ. eigenvalues --   -0.96241  -0.95642  -0.95619  -0.93839  -0.92314
 Alpha  occ. eigenvalues --   -0.89364  -0.88538  -0.87415  -0.86879  -0.85063
 Alpha  occ. eigenvalues --   -0.84957  -0.84921  -0.84694  -0.84452  -0.84430
 Alpha  occ. eigenvalues --   -0.84399  -0.79747  -0.79084  -0.78890  -0.77208
 Alpha  occ. eigenvalues --   -0.75994  -0.75389  -0.71729  -0.70899  -0.70786
 Alpha  occ. eigenvalues --   -0.70554  -0.70533  -0.69960  -0.69831  -0.69753
 Alpha  occ. eigenvalues --   -0.68237  -0.66768  -0.65269  -0.62686  -0.62098
 Alpha  occ. eigenvalues --   -0.61920  -0.61673  -0.60160  -0.59433  -0.59235
 Alpha  occ. eigenvalues --   -0.57298  -0.56559  -0.56085  -0.55845  -0.55708
 Alpha  occ. eigenvalues --   -0.55671  -0.55591  -0.55367  -0.55257  -0.55125
 Alpha  occ. eigenvalues --   -0.55060  -0.54321  -0.53547  -0.53045  -0.52588
 Alpha  occ. eigenvalues --   -0.52454  -0.52296  -0.52177  -0.52131  -0.51980
 Alpha  occ. eigenvalues --   -0.51706  -0.51238  -0.50805  -0.50751  -0.49249
 Alpha  occ. eigenvalues --   -0.48556  -0.48181  -0.47885  -0.47483  -0.47407
 Alpha  occ. eigenvalues --   -0.47097  -0.47038  -0.46828  -0.46551  -0.46497
 Alpha  occ. eigenvalues --   -0.46026  -0.45614  -0.45378  -0.44882  -0.44721
 Alpha  occ. eigenvalues --   -0.44656  -0.44635  -0.44178  -0.44152  -0.43325
 Alpha  occ. eigenvalues --   -0.43089  -0.42890  -0.42746  -0.42428  -0.41219
 Alpha  occ. eigenvalues --   -0.40844  -0.37641  -0.37118  -0.36801  -0.36013
 Alpha  occ. eigenvalues --   -0.35956  -0.35672  -0.35596  -0.35273  -0.35196
 Alpha  occ. eigenvalues --   -0.34552  -0.34093  -0.33834  -0.33280  -0.33207
 Alpha  occ. eigenvalues --   -0.30063
 Alpha virt. eigenvalues --   -0.16250  -0.14686  -0.14013  -0.13381  -0.12132
 Alpha virt. eigenvalues --   -0.11727  -0.11611  -0.11324  -0.10970  -0.10332
 Alpha virt. eigenvalues --   -0.09687  -0.09134  -0.08579  -0.07197  -0.06253

 Mulliken charges:
               1
     1  P    0.474782
     2  P    0.475811
     3  N   -0.063014
     4  C   -0.255554
     5  C   -0.046665
     6  C   -0.106019
     7  C   -0.093792
     8  C   -0.093139
     9  C   -0.047982
    10  C   -0.142598
    11  C   -0.146395
    12  C   -0.081837
    13  C   -0.100327
    14  C   -0.111646
    15  C   -0.034945
    16  C   -0.253995
    17  C   -0.058463
    18  C   -0.089486
    19  C   -0.093248
    20  C   -0.111223
    21  C   -0.050537
    22  C   -0.164882
    23  C   -0.029998
    24  C   -0.119101
    25  C   -0.095523
    26  C   -0.086765
    27  C   -0.118555
    28  C   -1.027794
    29  C    0.666180
    30  C   -0.020623
    31  C   -0.406672
    32  C   -0.327871
    33  C   -0.327299
    34  H    0.146032
    35  H    0.129001
    36  H    0.137263
    37  H    0.133880
    38  H    0.156859
    39  H    0.156882
    40  H    0.133640
    41  H    0.136822
    42  H    0.130563
    43  H    0.126281
    44  H    0.155862
    45  H    0.133432
    46  H    0.137171
    47  H    0.128834
    48  H    0.160436
    49  H    0.124083
    50  H    0.129556
    51  H    0.137006
    52  H    0.133425
    53  H    0.157857
    54  H    0.150568
    55  H    0.158928
    56  H    0.158464
    57  H    0.143414
    58  H    0.142238
    59  H    0.132065
    60  H    0.143631
    61  H    0.130269
    62  H    0.142716
    63  Rh  -0.652652
    64  C   -0.027035
    65  C   -0.111370
    66  C   -0.031445
    67  C   -0.099783
    68  C   -0.346330
    69  H    0.190633
    70  H    0.213436
    71  C   -0.223203
    72  C   -0.351936
    73  H    0.202371
    74  C   -0.226124
    75  H    0.197103
    76  H    0.166295
    77  H    0.167786
    78  H    0.167802
    79  H    0.136815
    80  H    0.164544
    81  H    0.168032
    82  H    0.126960
    83  H    0.170105
 Sum of Mulliken charges =   1.00000

 Dipole moment (field-independent basis, Debye):
    X=             -1.6700    Y=             -0.0097    Z=             -0.5729  Tot=              1.7656
 Quadrupole moment (field-independent basis, Debye-Ang):
   XX=           -212.2494   YY=           -224.8706   ZZ=           -230.3612
   XY=             -0.2680   XZ=             -0.3813   YZ=             -0.7253

 Summary of Natural Population Analysis:

                                       Natural Population
                Natural  -----------------------------------------------
    Atom  No    Charge         Core      Valence    Rydberg      Total
 -----------------------------------------------------------------------
      P    1    1.16109      9.99630     3.78796    0.05465    13.83891
      P    2    1.16065      9.99630     3.78834    0.05471    13.83935
      N    3   -0.34197      1.99906     5.32200    0.02091     7.34197
      C    4   -0.34387      1.99899     4.32065    0.02423     6.34387
      C    5   -0.18557      1.99909     4.17103    0.01544     6.18557
      C    6   -0.19640      1.99920     4.18260    0.01461     6.19640
      C    7   -0.17953      1.99921     4.16567    0.01466     6.17953
      C    8   -0.19538      1.99920     4.18150    0.01468     6.19538
      C    9   -0.19477      1.99909     4.17955    0.01613     6.19477
      C   10   -0.34123      1.99899     4.31813    0.02411     6.34123
      C   11   -0.20088      1.99909     4.18654    0.01524     6.20088
      C   12   -0.19138      1.99920     4.17749    0.01469     6.19138
      C   13   -0.18368      1.99920     4.16977    0.01471     6.18368
      C   14   -0.19131      1.99920     4.17751    0.01460     6.19131
      C   15   -0.19361      1.99909     4.17898    0.01554     6.19361
      C   16   -0.34331      1.99899     4.32015    0.02417     6.34331
      C   17   -0.19466      1.99909     4.17947    0.01610     6.19466
      C   18   -0.19542      1.99920     4.18160    0.01463     6.19542
      C   19   -0.17887      1.99921     4.16502    0.01464     6.17887
      C   20   -0.19667      1.99920     4.18288    0.01459     6.19667
      C   21   -0.18449      1.99909     4.16997    0.01543     6.18449
      C   22   -0.34247      1.99899     4.31958    0.02390     6.34247
      C   23   -0.19334      1.99909     4.17869    0.01556     6.19334
      C   24   -0.19126      1.99920     4.17745    0.01461     6.19126
      C   25   -0.18370      1.99920     4.16978    0.01471     6.18370
      C   26   -0.19126      1.99920     4.17733    0.01474     6.19126
      C   27   -0.20230      1.99909     4.18802    0.01519     6.20230
      C   28   -0.90982      1.99885     4.88524    0.02574     6.90982
      C   29    0.49114      1.99884     3.48249    0.02753     5.50886
      C   30    0.12060      1.99932     3.86630    0.01379     5.87940
      C   31   -0.60686      1.99938     4.59959    0.00789     6.60686
      C   32   -0.58901      1.99936     4.58182    0.00783     6.58901
      C   33   -0.58883      1.99936     4.58165    0.00782     6.58883
      H   34    0.21765      0.00000     0.78020    0.00215     0.78235
      H   35    0.21994      0.00000     0.77882    0.00124     0.78006
      H   36    0.22186      0.00000     0.77695    0.00118     0.77814
      H   37    0.22130      0.00000     0.77745    0.00124     0.77870
      H   38    0.22141      0.00000     0.77654    0.00205     0.77859
      H   39    0.21606      0.00000     0.78212    0.00181     0.78394
      H   40    0.22185      0.00000     0.77692    0.00123     0.77815
      H   41    0.22202      0.00000     0.77681    0.00118     0.77798
      H   42    0.21997      0.00000     0.77880    0.00123     0.78003
      H   43    0.21433      0.00000     0.78353    0.00214     0.78567
      H   44    0.22000      0.00000     0.77789    0.00211     0.78000
      H   45    0.22114      0.00000     0.77761    0.00125     0.77886
      H   46    0.22190      0.00000     0.77692    0.00118     0.77810
      H   47    0.21985      0.00000     0.77891    0.00124     0.78015
      H   48    0.21898      0.00000     0.77908    0.00194     0.78102
      H   49    0.21444      0.00000     0.78340    0.00216     0.78556
      H   50    0.21993      0.00000     0.77884    0.00123     0.78007
      H   51    0.22196      0.00000     0.77686    0.00118     0.77804
      H   52    0.22192      0.00000     0.77685    0.00123     0.77808
      H   53    0.21772      0.00000     0.78053    0.00175     0.78228
      H   54    0.22228      0.00000     0.77660    0.00112     0.77772
      H   55    0.21418      0.00000     0.78403    0.00180     0.78582
      H   56    0.21380      0.00000     0.78436    0.00183     0.78620
      H   57    0.21907      0.00000     0.77988    0.00105     0.78093
      H   58    0.21897      0.00000     0.77968    0.00135     0.78103
      H   59    0.21106      0.00000     0.78766    0.00128     0.78894
      H   60    0.21921      0.00000     0.77975    0.00105     0.78079
      H   61    0.21028      0.00000     0.78846    0.00126     0.78972
      H   62    0.21919      0.00000     0.77945    0.00135     0.78081
     Rh   63   -0.38465     35.98562     9.36911    0.02992    45.38465
      C   64   -0.18068      1.99906     4.16208    0.01954     6.18068
      C   65   -0.15288      1.99907     4.13396    0.01986     6.15288
      C   66   -0.16571      1.99906     4.14728    0.01937     6.16571
      C   67   -0.16810      1.99907     4.14905    0.01999     6.16810
      C   68   -0.42282      1.99936     4.41170    0.01175     6.42282
      H   69    0.22507      0.00000     0.77285    0.00207     0.77493
      H   70    0.22963      0.00000     0.76811    0.00225     0.77037
      C   71   -0.41870      1.99935     4.40679    0.01256     6.41870
      C   72   -0.42299      1.99936     4.41185    0.01178     6.42299
      H   73    0.22895      0.00000     0.76873    0.00232     0.77105
      C   74   -0.41827      1.99936     4.40659    0.01232     6.41827
      H   75    0.22605      0.00000     0.77193    0.00202     0.77395
      H   76    0.22672      0.00000     0.77179    0.00149     0.77328
      H   77    0.21455      0.00000     0.78348    0.00197     0.78545
      H   78    0.23195      0.00000     0.76613    0.00192     0.76805
      H   79    0.21953      0.00000     0.77896    0.00150     0.78047
      H   80    0.21278      0.00000     0.78521    0.00201     0.78722
      H   81    0.22864      0.00000     0.76988    0.00148     0.77136
      H   82    0.21492      0.00000     0.78361    0.00148     0.78508
      H   83    0.23211      0.00000     0.76595    0.00193     0.76789
 =======================================================================
   * Total *    1.00000    133.94516   215.21469    0.84014   350.00000

 Normal termination of Gaussian 16 at Sun Jan 19 21:30:39 2025.
