 Gaussian 16, Revision B.01,
 Gaussian 16:  ES64L-G16RevB.01 20-Dec-2017

 ------------------------------------------
 # nmr=giao b3lyp/genecp pop=nbo scfcyc=200
 ------------------------------------------

 --------
 DS-2_SPE
 --------
 Symbolic Z-matrix:
 Charge =  1 Multiplicity = 1

                         Standard orientation:
 ---------------------------------------------------------------------
 Center     Atomic      Atomic             Coordinates (Angstroms)
 Number     Number       Type             X           Y           Z
 ---------------------------------------------------------------------
      1         15           0       -1.354314   -0.770775   -0.012730
      2         15           0        1.354016   -0.771326    0.011210
      3          6           0       -2.531005   -1.066090   -1.514050
      4          6           0        2.594255   -1.115821   -1.427520
      5          6           0       -0.000389   -2.144280   -0.003460
      6          6           0        2.526425   -1.069161    1.515340
      7          6           0       -2.590715   -1.116799    1.428900
      8         45           0        0.000254    1.075420   -0.000310
      9          6           0       -1.466959    2.796556   -0.582650
     10          6           0       -1.486910    2.648726    0.783720
     11          6           0        1.468191    2.795414    0.583580
     12          6           0        1.488060    2.648804   -0.782920
     13          6           0       -0.712755    3.858823   -1.357230
     14          1           0       -2.234321    2.268979   -1.139300
     15          1           0       -2.292892    2.053499    1.200660
     16          6           0       -0.700597    3.430143    1.803470
     17          6           0        0.714435    3.857277    1.359130
     18          1           0        2.235329    2.267001    1.139750
     19          6           0        0.702093    3.431507   -1.801960
     20          1           0        2.293828    2.053650   -1.200400
     21          1           0       -1.290194    4.099675   -2.250600
     22          1           0       -0.668701    4.774943   -0.770050
     23          1           0       -1.278273    4.315745    2.095610
     24          1           0       -0.625999    2.818922    2.705220
     25          1           0        0.670759    4.773957    0.772800
     26          1           0        1.291966    4.097055    2.252720
     27          1           0        0.627251    2.821157   -2.704280
     28          1           0        1.280157    4.317135   -2.093260
     29          9           0       -3.118550   -2.342987    1.388720
     30          9           0       -3.586272   -0.221245    1.376250
     31          9           0       -1.952305   -0.964112    2.598530
     32          9           0        1.830436   -0.917498    2.651450
     33          9           0        3.086260   -2.281953    1.517630
     34          9           0        3.499989   -0.148785    1.495380
     35          9           0        3.590868   -0.221775   -1.369850
     36          9           0        3.120250   -2.342853   -1.388520
     37          9           0        1.959605   -0.959638   -2.598730
     38          9           0       -1.838654   -0.911173   -2.651940
     39          9           0       -3.089810   -2.279377   -1.517470
     40          9           0       -3.505261   -0.146576   -1.488940
     41          6           0        0.011117   -3.026850   -1.260990
     42          1           0        0.885724   -3.677404   -1.232970
     43          1           0       -0.873666   -3.664267   -1.257740
     44          1           0        0.028379   -2.470360   -2.194700
     45          6           0       -0.012163   -3.033710    1.249140
     46          1           0       -0.029111   -2.482360    2.185890
     47          1           0       -0.887056   -3.683736    1.217620
     48          1           0        0.872364   -3.671464    1.242330
 ---------------------------------------------------------------------

 SCF Done:  E(RB3LYP) =  -2574.37845183     A.U. after   16 cycles

      1  P    Isotropic =   250.8460   Anisotropy =   139.3601

      2  P    Isotropic =   250.8316   Anisotropy =   139.3853

      3  C    Isotropic =    46.4688   Anisotropy =     4.8166

      4  C    Isotropic =    46.2402   Anisotropy =     4.8663

      5  C    Isotropic =    90.1301   Anisotropy =    72.2053

      6  C    Isotropic =    46.4711   Anisotropy =     4.8197

      7  C    Isotropic =    46.2413   Anisotropy =     4.8656

      8  Rh   Isotropic =  -298.5517   Anisotropy =   393.7640

      9  C    Isotropic =    63.5199   Anisotropy =   145.2078

     10  C    Isotropic =    63.4284   Anisotropy =   138.6303

     11  C    Isotropic =    63.5128   Anisotropy =   145.2309

     12  C    Isotropic =    63.4326   Anisotropy =   138.6097

     13  C    Isotropic =   154.4070   Anisotropy =    25.1825

     14  H    Isotropic =    26.1652   Anisotropy =     6.3774

     15  H    Isotropic =    25.4908   Anisotropy =     4.1130

     16  C    Isotropic =   148.1933   Anisotropy =    28.6089

     17  C    Isotropic =   154.4070   Anisotropy =    25.1834

     18  H    Isotropic =    26.1643   Anisotropy =     6.3751

     19  C    Isotropic =   148.1951   Anisotropy =    28.6121

     20  H    Isotropic =    25.4922   Anisotropy =     4.1151

     21  H    Isotropic =    29.7126   Anisotropy =    11.5176

     22  H    Isotropic =    29.4724   Anisotropy =     8.9567

     23  H    Isotropic =    28.9567   Anisotropy =    12.3009

     24  H    Isotropic =    29.0510   Anisotropy =     7.2769

     25  H    Isotropic =    29.4724   Anisotropy =     8.9578

     26  H    Isotropic =    29.7128   Anisotropy =    11.5170

     27  H    Isotropic =    29.0507   Anisotropy =     7.2790

     28  H    Isotropic =    28.9566   Anisotropy =    12.3005

     29  F    Isotropic =   214.4549   Anisotropy =   133.6038

     30  F    Isotropic =   215.1112   Anisotropy =   137.5842

     31  F    Isotropic =   213.9415   Anisotropy =   130.2715

     32  F    Isotropic =   214.1094   Anisotropy =   129.9243

     33  F    Isotropic =   214.7699   Anisotropy =   133.4687

     34  F    Isotropic =   214.6833   Anisotropy =   138.3246

     35  F    Isotropic =   215.1197   Anisotropy =   137.5804

     36  F    Isotropic =   214.4487   Anisotropy =   133.6609

     37  F    Isotropic =   213.9201   Anisotropy =   130.3108

     38  F    Isotropic =   214.0813   Anisotropy =   129.9899

     39  F    Isotropic =   214.7515   Anisotropy =   133.5294

     40  F    Isotropic =   214.6795   Anisotropy =   138.3159

     41  C    Isotropic =   160.0102   Anisotropy =    28.0181

     42  H    Isotropic =    30.1798   Anisotropy =     9.0245

     43  H    Isotropic =    30.1806   Anisotropy =     9.0014

     44  H    Isotropic =    29.4870   Anisotropy =     4.0129

     45  C    Isotropic =   159.9758   Anisotropy =    28.1123

     46  H    Isotropic =    29.4851   Anisotropy =     4.0155

     47  H    Isotropic =    30.1804   Anisotropy =     9.0292

     48  H    Isotropic =    30.1816   Anisotropy =     9.0068

 The electronic state is 1-A.
 Alpha  occ. eigenvalues --  -77.31150 -77.31149 -24.86399 -24.86398 -24.86360
 Alpha  occ. eigenvalues --  -24.86360 -24.86359 -24.86359 -24.86317 -24.86316
 Alpha  occ. eigenvalues --  -24.86296 -24.86294 -24.86279 -24.86277 -10.58073
 Alpha  occ. eigenvalues --  -10.58072 -10.58041 -10.58039 -10.39491 -10.33667
 Alpha  occ. eigenvalues --  -10.33667 -10.33512 -10.33512 -10.31750 -10.31745
 Alpha  occ. eigenvalues --  -10.31226 -10.31225 -10.30952 -10.30952  -6.77198
 Alpha  occ. eigenvalues --   -6.77198  -4.93466  -4.93465  -4.93443  -4.93441
 Alpha  occ. eigenvalues --   -4.93034  -4.93034  -3.37681  -2.14870  -2.13911
 Alpha  occ. eigenvalues --   -2.10873  -1.46864  -1.46859  -1.46613  -1.46609
 Alpha  occ. eigenvalues --   -1.38051  -1.38050  -1.37991  -1.37981  -1.37859
 Alpha  occ. eigenvalues --   -1.37852  -1.37787  -1.37784  -0.98684  -0.98222
 Alpha  occ. eigenvalues --   -0.93623  -0.91899  -0.90252  -0.89607  -0.85485
 Alpha  occ. eigenvalues --   -0.85330  -0.84549  -0.84432  -0.82148  -0.81893
 Alpha  occ. eigenvalues --   -0.80599  -0.75731  -0.74755  -0.74584  -0.74563
 Alpha  occ. eigenvalues --   -0.74480  -0.74402  -0.74395  -0.74171  -0.74129
 Alpha  occ. eigenvalues --   -0.74088  -0.72599  -0.72469  -0.69767  -0.66394
 Alpha  occ. eigenvalues --   -0.65503  -0.65231  -0.63964  -0.62374  -0.62271
 Alpha  occ. eigenvalues --   -0.62129  -0.62027  -0.61767  -0.61732  -0.61609
 Alpha  occ. eigenvalues --   -0.61528  -0.61519  -0.60329  -0.60233  -0.59894
 Alpha  occ. eigenvalues --   -0.59056  -0.58909  -0.58383  -0.58036  -0.57855
 Alpha  occ. eigenvalues --   -0.57843  -0.57650  -0.57549  -0.57364  -0.56915
 Alpha  occ. eigenvalues --   -0.56563  -0.56348  -0.56239  -0.56160  -0.55813
 Alpha  occ. eigenvalues --   -0.55803  -0.54147  -0.53398  -0.52568  -0.51759
 Alpha  occ. eigenvalues --   -0.51439  -0.50781  -0.50464  -0.49777  -0.49710
 Alpha  occ. eigenvalues --   -0.48240  -0.48013  -0.47061  -0.47022  -0.46312
 Alpha  occ. eigenvalues --   -0.42189  -0.41885  -0.41243  -0.40760  -0.39579
 Alpha  occ. eigenvalues --   -0.36664
 Alpha virt. eigenvalues --   -0.22705  -0.20388  -0.15853  -0.14137  -0.13740
 Alpha virt. eigenvalues --   -0.13592  -0.12954  -0.11445  -0.09872  -0.09439
 Alpha virt. eigenvalues --   -0.07905  -0.07561  -0.07086  -0.06561  -0.05826

 Mulliken charges:
               1
     1  P    0.168666
     2  P    0.168740
     3  C    0.426128
     4  C    0.421290
     5  C   -0.261749
     6  C    0.425825
     7  C    0.420992
     8  Rh  -0.504486
     9  C    0.006507
    10  C   -0.103819
    11  C    0.006418
    12  C   -0.103676
    13  C   -0.353238
    14  H    0.204908
    15  H    0.213383
    16  C   -0.224468
    17  C   -0.353239
    18  H    0.204977
    19  C   -0.224479
    20  H    0.213295
    21  H    0.187799
    22  H    0.177833
    23  H    0.194804
    24  H    0.153675
    25  H    0.177825
    26  H    0.187805
    27  H    0.153671
    28  H    0.194798
    29  F   -0.116600
    30  F   -0.125240
    31  F   -0.134899
    32  F   -0.134463
    33  F   -0.116432
    34  F   -0.124942
    35  F   -0.125215
    36  F   -0.116653
    37  F   -0.134902
    38  F   -0.134451
    39  F   -0.116479
    40  F   -0.124921
    41  C   -0.399826
    42  H    0.186863
    43  H    0.186658
    44  H    0.188351
    45  C   -0.398491
    46  H    0.188333
    47  H    0.186670
    48  H    0.186454
 Sum of Mulliken charges =   1.00000

 Dipole moment (field-independent basis, Debye):
    X=              0.0010    Y=              3.5559    Z=             -0.0090  Tot=              3.5559
 Quadrupole moment (field-independent basis, Debye-Ang):
   XX=           -191.3676   YY=           -147.3073   ZZ=           -188.2488
   XY=              0.0094   XZ=             -0.4798   YZ=              0.0331

 Summary of Natural Population Analysis:

                                       Natural Population
                Natural  -----------------------------------------------
    Atom  No    Charge         Core      Valence    Rydberg      Total
 -----------------------------------------------------------------------
      P    1    0.87338      9.99563     4.07716    0.05382    14.12662
      P    2    0.87339      9.99563     4.07715    0.05383    14.12661
      C    3    0.75251      1.99961     3.18907    0.05881     5.24749
      C    4    0.75189      1.99961     3.18980    0.05870     5.24811
      C    5   -0.46283      1.99947     4.43977    0.02359     6.46283
      C    6    0.75250      1.99961     3.18907    0.05882     5.24750
      C    7    0.75189      1.99961     3.18980    0.05871     5.24811
     Rh    8   -0.46139     35.98532     9.44895    0.02712    45.46139
      C    9   -0.15004      1.99908     4.13009    0.02087     6.15004
      C   10   -0.13992      1.99908     4.11942    0.02143     6.13992
      C   11   -0.15001      1.99908     4.13006    0.02087     6.15001
      C   12   -0.13995      1.99908     4.11944    0.02143     6.13995
      C   13   -0.43080      1.99936     4.41957    0.01187     6.43080
      H   14    0.24018      0.00000     0.75826    0.00156     0.75982
      H   15    0.23848      0.00000     0.75986    0.00166     0.76152
      C   16   -0.43043      1.99935     4.41826    0.01283     6.43043
      C   17   -0.43081      1.99936     4.41958    0.01187     6.43081
      H   18    0.24022      0.00000     0.75822    0.00156     0.75978
      C   19   -0.43043      1.99935     4.41825    0.01283     6.43043
      H   20    0.23845      0.00000     0.75989    0.00166     0.76155
      H   21    0.24081      0.00000     0.75786    0.00133     0.75919
      H   22    0.22135      0.00000     0.77674    0.00190     0.77865
      H   23    0.24938      0.00000     0.74893    0.00169     0.75062
      H   24    0.23036      0.00000     0.76811    0.00153     0.76964
      H   25    0.22135      0.00000     0.77674    0.00190     0.77865
      H   26    0.24081      0.00000     0.75786    0.00133     0.75919
      H   27    0.23035      0.00000     0.76812    0.00153     0.76965
      H   28    0.24938      0.00000     0.74893    0.00169     0.75062
      F   29   -0.29088      1.99992     7.28142    0.00954     9.29088
      F   30   -0.29419      1.99992     7.28536    0.00891     9.29419
      F   31   -0.29790      1.99992     7.28894    0.00904     9.29790
      F   32   -0.29742      1.99992     7.28841    0.00909     9.29742
      F   33   -0.29106      1.99992     7.28160    0.00954     9.29106
      F   34   -0.29392      1.99992     7.28486    0.00914     9.29392
      F   35   -0.29417      1.99992     7.28534    0.00891     9.29417
      F   36   -0.29090      1.99992     7.28144    0.00954     9.29090
      F   37   -0.29792      1.99992     7.28896    0.00904     9.29792
      F   38   -0.29742      1.99992     7.28841    0.00909     9.29742
      F   39   -0.29108      1.99992     7.28162    0.00954     9.29108
      F   40   -0.29390      1.99992     7.28484    0.00914     9.29390
      C   41   -0.63976      1.99934     4.62934    0.01109     6.63976
      H   42    0.24225      0.00000     0.75600    0.00175     0.75775
      H   43    0.24215      0.00000     0.75610    0.00175     0.75785
      H   44    0.23572      0.00000     0.76291    0.00137     0.76428
      C   45   -0.63978      1.99934     4.62934    0.01110     6.63978
      H   46    0.23572      0.00000     0.76291    0.00137     0.76428
      H   47    0.24225      0.00000     0.75600    0.00175     0.75775
      H   48    0.24214      0.00000     0.75611    0.00174     0.75786
 =======================================================================
   * Total *    1.00000    109.96594   179.34488    0.68918   290.00000

 Normal termination of Gaussian 16 at Sun Jan 19 20:36:53 2025.
