 Gaussian 16, Revision B.01,
 Gaussian 16:  ES64L-G16RevB.01 20-Dec-2017

 ------------------------------------------
 # nmr=giao b3lyp/genecp pop=nbo scfcyc=200
 ------------------------------------------

 ---------
 DS-21_SPE
 ---------
 Symbolic Z-matrix:
 Charge =  1 Multiplicity = 1

                         Standard orientation:
 ---------------------------------------------------------------------
 Center     Atomic      Atomic             Coordinates (Angstroms)
 Number     Number       Type             X           Y           Z
 ---------------------------------------------------------------------
      1         15           0        0.229100   -1.405421    0.086180
      2         15           0        0.216801    1.413749    0.076160
      3          7           0       -3.265429   -0.006109    1.262500
      4          6           0       -0.574711   -2.377080   -1.258440
      5          6           0       -0.204530   -2.132570   -2.583170
      6          6           0       -0.831551   -2.810120   -3.623890
      7          6           0       -1.831161   -3.736880   -3.348020
      8          6           0       -2.204171   -3.985719   -2.029650
      9          6           0       -1.579581   -3.311490   -0.987020
     10          6           0        0.310609   -2.564481    1.515060
     11          6           0        0.930759   -3.807241    1.335960
     12          6           0        1.077978   -4.677951    2.408470
     13          6           0        0.613159   -4.317871    3.670680
     14          6           0       -0.001671   -3.084790    3.854750
     15          6           0       -0.149420   -2.208530    2.783540
     16          6           0       -0.579828    2.348810   -1.297370
     17          6           0       -1.693848    3.165150   -1.072830
     18          6           0       -2.305228    3.817641   -2.136190
     19          6           0       -1.810038    3.665610   -3.429420
     20          6           0       -0.701808    2.858060   -3.658320
     21          6           0       -0.088428    2.200620   -2.595950
     22          6           0        0.257222    2.597719    1.486730
     23          6           0       -0.046848    2.189590    2.786880
     24          6           0        0.078412    3.079590    3.848760
     25          6           0        0.517993    4.379689    3.624230
     26          6           0        0.830523    4.790779    2.331670
     27          6           0        0.704072    3.906109    1.267100
     28          6           0       -0.864719    0.000300    0.506170
     29          6           0       -2.146159   -0.003439    0.838030
     30          1           0        0.573360   -1.410091   -2.798600
     31          1           0       -0.535761   -2.618320   -4.647760
     32          1           0       -2.316071   -4.268419   -4.157190
     33          1           0       -2.979512   -4.709729   -1.812290
     34          1           0       -1.869251   -3.523130    0.034580
     35          1           0        1.283869   -4.108441    0.356720
     36          1           0        1.552798   -5.639381    2.257820
     37          1           0        0.726908   -4.998321    4.505020
     38          1           0       -0.370261   -2.802340    4.832970
     39          1           0       -0.631190   -1.252670    2.938470
     40          1           0       -2.079118    3.303441   -0.070100
     41          1           0       -3.165597    4.449801   -1.955250
     42          1           0       -2.285747    4.180321   -4.254770
     43          1           0       -0.311648    2.742210   -4.661790
     44          1           0        0.773921    1.569559   -2.773460
     45          1           0       -0.387639    1.180020    2.972850
     46          1           0       -0.169648    2.755800    4.851850
     47          1           0        0.614153    5.071209    4.451660
     48          1           0        1.169753    5.802929    2.150040
     49          1           0        0.937313    4.245219    0.265080
     50         45           0        2.077501    0.010549   -0.346710
     51          6           0        3.640691    1.451448   -1.157390
     52          6           0        3.682191    1.473918    0.222410
     53          6           0        3.795430   -1.431582    0.028220
     54          6           0        3.475590   -1.459192   -1.313980
     55          6           0        4.620111    0.719347   -2.056980
     56          1           0        3.052452    2.224428   -1.640450
     57          1           0        3.147052    2.274558    0.722030
     58          6           0        4.642781    0.725457    1.113100
     59          6           0        4.979020   -0.703093    0.636550
     60          1           0        3.342360   -2.187742    0.659630
     61          6           0        4.178270   -0.714802   -2.423370
     62          1           0        2.828490   -2.262112   -1.653170
     63          1           0        4.736731    1.290257   -2.979710
     64          1           0        5.604581    0.704667   -1.589650
     65          1           0        5.566571    1.306407    1.228590
     66          1           0        4.196361    0.674318    2.108290
     67          1           0        5.803550   -0.683673   -0.075840
     68          1           0        5.335290   -1.278083    1.492860
     69          1           0        3.497110   -0.670802   -3.276330
     70          1           0        5.045420   -1.292973   -2.766440
     71          6           0       -4.584649   -0.013708    0.784940
     72          6           0       -5.615139   -0.002568    1.724530
     73          6           0       -4.867679   -0.032648   -0.584750
     74          6           0       -6.935139   -0.009697    1.292340
     75          1           0       -5.369679    0.011722    2.778060
     76          6           0       -6.189609   -0.040058   -1.003590
     77          1           0       -4.058829   -0.041989   -1.304350
     78          6           0       -7.223789   -0.028497   -0.068650
     79          1           0       -7.737649   -0.000907    2.018440
     80          1           0       -6.415809   -0.055157   -2.062180
     81          1           0       -8.253299   -0.034417   -0.403140
 ---------------------------------------------------------------------

 SCF Done:  E(RB3LYP) =  -2394.98417398     A.U. after   17 cycles

      1  P    Isotropic =   299.9772   Anisotropy =    81.9569

      2  P    Isotropic =   296.9297   Anisotropy =    82.7658

      3  N    Isotropic =    69.4617   Anisotropy =   125.3990

      4  C    Isotropic =    38.9973   Anisotropy =   177.9674

      5  C    Isotropic =    43.5452   Anisotropy =   178.6851

      6  C    Isotropic =    49.7907   Anisotropy =   186.5503

      7  C    Isotropic =    45.7239   Anisotropy =   196.7462

      8  C    Isotropic =    48.5473   Anisotropy =   190.3029

      9  C    Isotropic =    47.1764   Anisotropy =   188.7353

     10  C    Isotropic =    44.3136   Anisotropy =   167.9308

     11  C    Isotropic =    47.9345   Anisotropy =   188.0579

     12  C    Isotropic =    48.4600   Anisotropy =   190.5805

     13  C    Isotropic =    46.6091   Anisotropy =   194.8824

     14  C    Isotropic =    49.1657   Anisotropy =   188.1171

     15  C    Isotropic =    48.3434   Anisotropy =   187.2581

     16  C    Isotropic =    39.6642   Anisotropy =   178.7750

     17  C    Isotropic =    47.0661   Anisotropy =   188.2838

     18  C    Isotropic =    48.2432   Anisotropy =   190.5433

     19  C    Isotropic =    45.4926   Anisotropy =   197.2114

     20  C    Isotropic =    49.9148   Anisotropy =   186.2315

     21  C    Isotropic =    42.8678   Anisotropy =   178.2189

     22  C    Isotropic =    43.5984   Anisotropy =   167.6310

     23  C    Isotropic =    48.3097   Anisotropy =   188.0022

     24  C    Isotropic =    49.3603   Anisotropy =   187.9809

     25  C    Isotropic =    46.6409   Anisotropy =   194.7875

     26  C    Isotropic =    48.5692   Anisotropy =   190.3321

     27  C    Isotropic =    47.7548   Anisotropy =   189.4647

     28  C    Isotropic =   122.6393   Anisotropy =    54.0932

     29  C    Isotropic =    28.5796   Anisotropy =   176.9202

     30  H    Isotropic =    23.2398   Anisotropy =     9.3600

     31  H    Isotropic =    24.0788   Anisotropy =     6.8588

     32  H    Isotropic =    24.1245   Anisotropy =     3.6850

     33  H    Isotropic =    24.5252   Anisotropy =     6.0015

     34  H    Isotropic =    24.7822   Anisotropy =    10.7975

     35  H    Isotropic =    24.8520   Anisotropy =    11.0091

     36  H    Isotropic =    24.2238   Anisotropy =     6.3986

     37  H    Isotropic =    24.0157   Anisotropy =     3.7400

     38  H    Isotropic =    23.8925   Anisotropy =     6.5469

     39  H    Isotropic =    23.4198   Anisotropy =    10.5267

     40  H    Isotropic =    24.6545   Anisotropy =    10.2282

     41  H    Isotropic =    24.4857   Anisotropy =     5.9980

     42  H    Isotropic =    24.0826   Anisotropy =     3.6882

     43  H    Isotropic =    24.0395   Anisotropy =     6.7444

     44  H    Isotropic =    23.1246   Anisotropy =     9.7714

     45  H    Isotropic =    23.4266   Anisotropy =    10.4666

     46  H    Isotropic =    23.9192   Anisotropy =     6.6279

     47  H    Isotropic =    24.0429   Anisotropy =     3.7196

     48  H    Isotropic =    24.2618   Anisotropy =     6.3255

     49  H    Isotropic =    24.9081   Anisotropy =    11.3505

     50  Rh   Isotropic =  -313.5096   Anisotropy =   348.9625

     51  C    Isotropic =    81.9871   Anisotropy =   116.5764

     52  C    Isotropic =    72.6235   Anisotropy =   123.2122

     53  C    Isotropic =    75.4903   Anisotropy =   126.4475

     54  C    Isotropic =    79.6973   Anisotropy =   112.2341

     55  C    Isotropic =   153.9089   Anisotropy =    25.2105

     56  H    Isotropic =    26.8922   Anisotropy =     6.4225

     57  H    Isotropic =    27.0017   Anisotropy =     5.0093

     58  C    Isotropic =   148.0832   Anisotropy =    29.3113

     59  C    Isotropic =   154.0950   Anisotropy =    24.8109

     60  H    Isotropic =    27.2701   Anisotropy =     6.5226

     61  C    Isotropic =   147.4972   Anisotropy =    29.4730

     62  H    Isotropic =    26.3371   Anisotropy =     3.8049

     63  H    Isotropic =    29.7098   Anisotropy =    11.6318

     64  H    Isotropic =    29.7595   Anisotropy =     9.6626

     65  H    Isotropic =    29.4717   Anisotropy =    12.4740

     66  H    Isotropic =    29.5784   Anisotropy =     6.6551

     67  H    Isotropic =    29.9298   Anisotropy =     9.7051

     68  H    Isotropic =    30.1482   Anisotropy =    10.9506

     69  H    Isotropic =    28.7928   Anisotropy =     8.0932

     70  H    Isotropic =    28.9941   Anisotropy =    12.7154

     71  C    Isotropic =    48.1766   Anisotropy =   123.4196

     72  C    Isotropic =    50.2518   Anisotropy =   169.7872

     73  C    Isotropic =    50.6034   Anisotropy =   167.4516

     74  C    Isotropic =    48.6904   Anisotropy =   189.4670

     75  H    Isotropic =    24.5246   Anisotropy =     8.8124

     76  C    Isotropic =    49.0102   Anisotropy =   187.5941

     77  H    Isotropic =    25.5084   Anisotropy =     7.9373

     78  C    Isotropic =    46.0812   Anisotropy =   196.2681

     79  H    Isotropic =    24.3515   Anisotropy =     5.0601

     80  H    Isotropic =    24.7898   Anisotropy =     7.4350

     81  H    Isotropic =    24.3714   Anisotropy =     4.2793

 The electronic state is 1-A.
 Alpha  occ. eigenvalues --  -77.23634 -77.23633 -14.46402 -10.35823 -10.32524
 Alpha  occ. eigenvalues --  -10.29340 -10.28963 -10.28923 -10.28909 -10.28879
 Alpha  occ. eigenvalues --  -10.28461 -10.28437 -10.28322 -10.28239 -10.27883
 Alpha  occ. eigenvalues --  -10.27839 -10.27809 -10.27789 -10.27744 -10.27725
 Alpha  occ. eigenvalues --  -10.27683 -10.27663 -10.27634 -10.27501 -10.27273
 Alpha  occ. eigenvalues --  -10.27213 -10.27188 -10.27161 -10.27151 -10.27140
 Alpha  occ. eigenvalues --  -10.27090 -10.27081 -10.27055 -10.27043 -10.27027
 Alpha  occ. eigenvalues --  -10.26999 -10.26982 -10.26939 -10.26937 -10.26892
 Alpha  occ. eigenvalues --  -10.26814 -10.26802 -10.26655  -6.69505  -6.69505
 Alpha  occ. eigenvalues --   -4.85823  -4.85822  -4.85706  -4.85704  -4.85415
 Alpha  occ. eigenvalues --   -4.85414  -3.30974  -2.07852  -2.07234  -2.04423
 Alpha  occ. eigenvalues --   -1.07891  -0.96416  -0.96179  -0.95788  -0.95588
 Alpha  occ. eigenvalues --   -0.95572  -0.93857  -0.90337  -0.88562  -0.87433
 Alpha  occ. eigenvalues --   -0.86841  -0.86582  -0.84959  -0.84878  -0.84819
 Alpha  occ. eigenvalues --   -0.84793  -0.84675  -0.84397  -0.84377  -0.84006
 Alpha  occ. eigenvalues --   -0.79768  -0.77228  -0.76409  -0.75361  -0.73448
 Alpha  occ. eigenvalues --   -0.70975  -0.70851  -0.70685  -0.70555  -0.70522
 Alpha  occ. eigenvalues --   -0.69982  -0.69769  -0.69701  -0.68420  -0.66711
 Alpha  occ. eigenvalues --   -0.65315  -0.65282  -0.62607  -0.62035  -0.61897
 Alpha  occ. eigenvalues --   -0.61651  -0.60097  -0.59446  -0.59120  -0.57241
 Alpha  occ. eigenvalues --   -0.56882  -0.56542  -0.55910  -0.55745  -0.55706
 Alpha  occ. eigenvalues --   -0.55586  -0.55249  -0.55074  -0.55036  -0.54538
 Alpha  occ. eigenvalues --   -0.53768  -0.53464  -0.53353  -0.53063  -0.52578
 Alpha  occ. eigenvalues --   -0.52376  -0.52314  -0.52190  -0.52144  -0.51991
 Alpha  occ. eigenvalues --   -0.51884  -0.51602  -0.50814  -0.49139  -0.49000
 Alpha  occ. eigenvalues --   -0.48115  -0.47862  -0.47353  -0.47299  -0.46932
 Alpha  occ. eigenvalues --   -0.46841  -0.46168  -0.46133  -0.45958  -0.45527
 Alpha  occ. eigenvalues --   -0.45393  -0.44788  -0.44688  -0.44587  -0.44531
 Alpha  occ. eigenvalues --   -0.44445  -0.43694  -0.43146  -0.43006  -0.42953
 Alpha  occ. eigenvalues --   -0.42723  -0.42441  -0.40863  -0.37681  -0.37120
 Alpha  occ. eigenvalues --   -0.36860  -0.36030  -0.35871  -0.35697  -0.35572
 Alpha  occ. eigenvalues --   -0.35473  -0.35211  -0.35171  -0.34706  -0.34617
 Alpha  occ. eigenvalues --   -0.33888  -0.33841  -0.33508  -0.33291  -0.30105
 Alpha virt. eigenvalues --   -0.16551  -0.16285  -0.14281  -0.13309  -0.12152
 Alpha virt. eigenvalues --   -0.11973  -0.11824  -0.11332  -0.10827  -0.10770
 Alpha virt. eigenvalues --   -0.10302  -0.09786  -0.09597  -0.08658  -0.07193

 Mulliken charges:
               1
     1  P    0.472695
     2  P    0.469535
     3  N   -0.033815
     4  C   -0.250129
     5  C   -0.044121
     6  C   -0.111101
     7  C   -0.090876
     8  C   -0.093081
     9  C   -0.044634
    10  C   -0.143120
    11  C   -0.134920
    12  C   -0.081223
    13  C   -0.100953
    14  C   -0.109879
    15  C   -0.042414
    16  C   -0.249095
    17  C   -0.059698
    18  C   -0.090574
    19  C   -0.090370
    20  C   -0.116262
    21  C   -0.044920
    22  C   -0.179448
    23  C   -0.031090
    24  C   -0.121142
    25  C   -0.092234
    26  C   -0.092595
    27  C   -0.088114
    28  C   -1.063042
    29  C    0.699710
    30  H    0.149477
    31  H    0.128408
    32  H    0.137263
    33  H    0.134166
    34  H    0.154857
    35  H    0.154457
    36  H    0.133805
    37  H    0.137083
    38  H    0.130536
    39  H    0.121820
    40  H    0.154195
    41  H    0.134290
    42  H    0.137401
    43  H    0.128394
    44  H    0.159464
    45  H    0.124745
    46  H    0.128883
    47  H    0.137279
    48  H    0.133417
    49  H    0.154926
    50  Rh  -0.641532
    51  C   -0.024858
    52  C   -0.114382
    53  C   -0.033296
    54  C   -0.098309
    55  C   -0.344777
    56  H    0.187636
    57  H    0.217025
    58  C   -0.224003
    59  C   -0.352168
    60  H    0.205656
    61  C   -0.224634
    62  H    0.194676
    63  H    0.166419
    64  H    0.167744
    65  H    0.167857
    66  H    0.136300
    67  H    0.164532
    68  H    0.168255
    69  H    0.126403
    70  H    0.170235
    71  C   -0.004885
    72  C   -0.137201
    73  C   -0.101797
    74  C   -0.095340
    75  H    0.138170
    76  C   -0.115214
    77  H    0.163508
    78  C   -0.094363
    79  H    0.139511
    80  H    0.134545
    81  H    0.140331
 Sum of Mulliken charges =   1.00000

 Dipole moment (field-independent basis, Debye):
    X=             -1.1049    Y=             -0.0112    Z=             -0.5973  Tot=              1.2561
 Quadrupole moment (field-independent basis, Debye-Ang):
   XX=           -207.1560   YY=           -236.2812   ZZ=           -233.3352
   XY=             -0.3984   XZ=             -0.0769   YZ=             -0.8668

 Summary of Natural Population Analysis:

                                       Natural Population
                Natural  -----------------------------------------------
    Atom  No    Charge         Core      Valence    Rydberg      Total
 -----------------------------------------------------------------------
      P    1    1.15941      9.99630     3.78986    0.05444    13.84059
      P    2    1.15986      9.99629     3.78933    0.05452    13.84014
      N    3   -0.34678      1.99909     5.32974    0.01795     7.34678
      C    4   -0.34573      1.99899     4.32259    0.02414     6.34573
      C    5   -0.18544      1.99909     4.17092    0.01542     6.18544
      C    6   -0.19750      1.99920     4.18369    0.01461     6.19750
      C    7   -0.17870      1.99921     4.16489    0.01461     6.17870
      C    8   -0.19250      1.99920     4.17870    0.01460     6.19250
      C    9   -0.19079      1.99909     4.17578    0.01592     6.19079
      C   10   -0.34138      1.99899     4.31840    0.02399     6.34138
      C   11   -0.20028      1.99909     4.18598    0.01522     6.20028
      C   12   -0.19093      1.99920     4.17704    0.01469     6.19093
      C   13   -0.18339      1.99920     4.16948    0.01470     6.18339
      C   14   -0.19102      1.99920     4.17721    0.01461     6.19102
      C   15   -0.19367      1.99909     4.17907    0.01552     6.19367
      C   16   -0.34552      1.99899     4.32243    0.02410     6.34552
      C   17   -0.19103      1.99909     4.17605    0.01589     6.19103
      C   18   -0.19273      1.99920     4.17896    0.01457     6.19273
      C   19   -0.17821      1.99921     4.16442    0.01459     6.17821
      C   20   -0.19772      1.99920     4.18392    0.01460     6.19772
      C   21   -0.18432      1.99909     4.16982    0.01541     6.18432
      C   22   -0.34340      1.99899     4.32057    0.02384     6.34340
      C   23   -0.19292      1.99909     4.17828    0.01555     6.19292
      C   24   -0.19118      1.99920     4.17735    0.01462     6.19118
      C   25   -0.18331      1.99920     4.16939    0.01472     6.18331
      C   26   -0.19097      1.99920     4.17702    0.01475     6.19097
      C   27   -0.20095      1.99909     4.18673    0.01513     6.20095
      C   28   -0.89101      1.99883     4.86736    0.02482     6.89101
      C   29    0.49215      1.99885     3.48385    0.02515     5.50785
      H   30    0.21791      0.00000     0.77995    0.00214     0.78209
      H   31    0.21968      0.00000     0.77908    0.00124     0.78032
      H   32    0.22149      0.00000     0.77733    0.00118     0.77851
      H   33    0.22201      0.00000     0.77676    0.00123     0.77799
      H   34    0.22143      0.00000     0.77672    0.00185     0.77857
      H   35    0.21690      0.00000     0.78132    0.00178     0.78310
      H   36    0.22200      0.00000     0.77677    0.00123     0.77800
      H   37    0.22206      0.00000     0.77676    0.00118     0.77794
      H   38    0.22002      0.00000     0.77874    0.00123     0.77998
      H   39    0.21388      0.00000     0.78399    0.00213     0.78612
      H   40    0.22019      0.00000     0.77796    0.00185     0.77981
      H   41    0.22206      0.00000     0.77671    0.00123     0.77794
      H   42    0.22161      0.00000     0.77721    0.00118     0.77839
      H   43    0.21975      0.00000     0.77902    0.00124     0.78025
      H   44    0.21901      0.00000     0.77904    0.00194     0.78099
      H   45    0.21389      0.00000     0.78396    0.00216     0.78611
      H   46    0.21993      0.00000     0.77884    0.00123     0.78007
      H   47    0.22195      0.00000     0.77687    0.00118     0.77805
      H   48    0.22204      0.00000     0.77674    0.00123     0.77796
      H   49    0.21916      0.00000     0.77913    0.00171     0.78084
     Rh   50   -0.38812     35.98559     9.37235    0.03017    45.38812
      C   51   -0.18218      1.99906     4.16357    0.01955     6.18218
      C   52   -0.15076      1.99907     4.13183    0.01986     6.15076
      C   53   -0.16345      1.99906     4.14500    0.01939     6.16345
      C   54   -0.16934      1.99907     4.15029    0.01998     6.16934
      C   55   -0.42273      1.99936     4.41163    0.01174     6.42273
      H   56    0.22490      0.00000     0.77304    0.00206     0.77510
      H   57    0.23044      0.00000     0.76736    0.00220     0.76956
      C   58   -0.41879      1.99935     4.40687    0.01257     6.41879
      C   59   -0.42329      1.99936     4.41213    0.01179     6.42329
      H   60    0.22963      0.00000     0.76806    0.00231     0.77037
      C   61   -0.41843      1.99936     4.40675    0.01232     6.41843
      H   62    0.22585      0.00000     0.77211    0.00203     0.77415
      H   63    0.22683      0.00000     0.77168    0.00150     0.77317
      H   64    0.21460      0.00000     0.78343    0.00197     0.78540
      H   65    0.23214      0.00000     0.76594    0.00193     0.76786
      H   66    0.21941      0.00000     0.77908    0.00151     0.78059
      H   67    0.21296      0.00000     0.78503    0.00201     0.78704
      H   68    0.22873      0.00000     0.76980    0.00148     0.77127
      H   69    0.21513      0.00000     0.78339    0.00148     0.78487
      H   70    0.23232      0.00000     0.76574    0.00194     0.76768
      C   71    0.07705      1.99883     3.90435    0.01977     5.92295
      C   72   -0.17451      1.99912     4.16065    0.01475     6.17451
      C   73   -0.19661      1.99909     4.18358    0.01394     6.19661
      C   74   -0.19436      1.99921     4.18037    0.01478     6.19436
      H   75    0.22688      0.00000     0.77163    0.00149     0.77312
      C   76   -0.19258      1.99922     4.17850    0.01486     6.19258
      H   77    0.22000      0.00000     0.77813    0.00187     0.78000
      C   78   -0.17729      1.99921     4.16344    0.01464     6.17729
      H   79    0.22412      0.00000     0.77474    0.00114     0.77588
      H   80    0.22195      0.00000     0.77686    0.00119     0.77805
      H   81    0.22251      0.00000     0.77636    0.00114     0.77749
 =======================================================================
   * Total *    1.00000    137.94242   219.17539    0.88219   358.00000

 Normal termination of Gaussian 16 at Sun Jan 19 23:44:22 2025.
