 Gaussian 16, Revision B.01,
 Gaussian 16:  ES64L-G16RevB.01 20-Dec-2017

 ------------------------------------------
 # nmr=giao b3lyp/genecp pop=nbo scfcyc=200
 ------------------------------------------

 ---------
 DS-29_SPE
 ---------
 Symbolic Z-matrix:
 Charge =  1 Multiplicity = 1

                         Standard orientation:
 ---------------------------------------------------------------------
 Center     Atomic      Atomic             Coordinates (Angstroms)
 Number     Number       Type             X           Y           Z
 ---------------------------------------------------------------------
      1         15           0       -1.370120    1.185410    0.550410
      2         15           0        0.056890   -1.151100   -0.051540
      3          6           0        0.200670   -1.898670    2.687270
      4          6           0        0.088050   -2.809980    3.732320
      5          6           0       -0.199610   -4.144670    3.472150
      6          6           0       -0.379410   -4.570880    2.158960
      7          6           0       -0.278300   -3.663170    1.112840
      8          6           0        0.022080   -2.319310    1.368970
      9          1           0        0.437230   -0.866860    2.904550
     10          1           0        0.233480   -2.474090    4.751230
     11          1           0       -0.281360   -4.852050    4.287660
     12          1           0       -0.599900   -5.609930    1.948880
     13          1           0       -0.416620   -4.012940    0.096690
     14          6           0        2.340250   -2.674760   -0.826090
     15          6           0        3.337720   -3.042600   -1.724260
     16          6           0        3.430410   -2.419750   -2.964150
     17          6           0        2.518730   -1.425980   -3.311630
     18          6           0        1.514020   -1.063400   -2.423670
     19          6           0        1.421960   -1.679660   -1.169970
     20          1           0        2.287060   -3.158780    0.139240
     21          1           0        4.043570   -3.816680   -1.450510
     22          1           0        4.207620   -2.709610   -3.660010
     23          1           0        2.585100   -0.941110   -4.277570
     24          1           0        0.796900   -0.301340   -2.705550
     25          6           0       -0.797571    3.350620   -1.131080
     26          6           0       -0.844371    4.674960   -1.544940
     27          6           0       -1.489901    5.629210   -0.761920
     28          6           0       -2.085221    5.253210    0.435980
     29          6           0       -2.032471    3.928480    0.861250
     30          6           0       -1.380171    2.967720    0.084170
     31          1           0       -0.300570    2.616080   -1.753260
     32          1           0       -0.379931    4.962610   -2.479720
     33          1           0       -1.528981    6.660970   -1.087490
     34          1           0       -2.592041    5.990000    1.046320
     35          1           0       -2.498631    3.652220    1.797070
     36          6           0       -3.141360    0.439850    2.593690
     37          6           0       -3.596260    0.373280    3.907340
     38          6           0       -2.862770    0.965560    4.928620
     39          6           0       -1.670030    1.624780    4.638210
     40          6           0       -1.213470    1.693960    3.328280
     41          6           0       -1.951240    1.105450    2.294970
     42          1           0       -3.705700   -0.036290    1.802340
     43          1           0       -4.520390   -0.144430    4.131250
     44          1           0       -3.216340    0.913180    5.950680
     45          1           0       -1.095970    2.084540    5.432940
     46          1           0       -0.284220    2.208430    3.115650
     47          6           0        0.383430    0.575300    0.556960
     48         45           0       -2.054460   -0.511910   -0.913560
     49          6           0       -4.229770    0.026060   -1.328410
     50          6           0       -3.418440    0.726600   -2.199030
     51          6           0       -2.189440   -1.862610   -2.765130
     52          6           0       -2.799200   -2.491770   -1.701840
     53          6           0       -5.029660   -1.216730   -1.672200
     54          1           0       -4.545370    0.550870   -0.433010
     55          1           0       -3.180510    1.751600   -1.935550
     56          6           0       -3.106950    0.367320   -3.630990
     57          6           0       -2.907950   -1.141120   -3.889760
     58          1           0       -1.155110   -2.121650   -2.960500
     59          6           0       -4.275320   -2.534620   -1.393690
     60          1           0       -2.210340   -3.219860   -1.154130
     61          1           0       -5.947070   -1.213750   -1.081400
     62          1           0       -5.346360   -1.172300   -2.714070
     63          1           0       -3.897720    0.755010   -4.285620
     64          1           0       -2.198550    0.902570   -3.916220
     65          1           0       -3.866450   -1.623760   -4.079360
     66          1           0       -2.326320   -1.261400   -4.805260
     67          1           0       -4.384190   -2.792890   -0.338030
     68          1           0       -4.743800   -3.355630   -1.950730
     69          6           0        1.464170    1.372420    0.562540
     70          1           0        1.272620    2.438550    0.655500
     71          6           0        2.887740    1.066940    0.385720
     72          6           0        3.685720    1.970860   -0.327890
     73          6           0        3.547780   -0.020280    0.961120
     74          6           0        5.048630    1.792870   -0.493470
     75          6           0        4.912150   -0.218650    0.817330
     76          6           0        5.666280    0.687750    0.082550
     77          9           0        5.501860   -1.271130    1.382340
     78          9           0        6.970260    0.499140   -0.070590
     79          9           0        5.765400    2.661890   -1.202110
     80          9           0        3.113159    3.041790   -0.894480
     81          9           0        2.867400   -0.892530    1.714660
 ---------------------------------------------------------------------

 SCF Done:  E(RB3LYP) =  -2837.17369320     A.U. after   16 cycles

      1  P    Isotropic =   276.4677   Anisotropy =    87.2756

      2  P    Isotropic =   274.4730   Anisotropy =    96.6222

      3  C    Isotropic =    46.3392   Anisotropy =   190.2093

      4  C    Isotropic =    49.0694   Anisotropy =   190.6305

      5  C    Isotropic =    46.4609   Anisotropy =   196.8687

      6  C    Isotropic =    49.6448   Anisotropy =   189.5333

      7  C    Isotropic =    47.2059   Anisotropy =   189.0994

      8  C    Isotropic =    51.0624   Anisotropy =   160.7466

      9  H    Isotropic =    24.7794   Anisotropy =     7.3561

     10  H    Isotropic =    24.6624   Anisotropy =     7.4051

     11  H    Isotropic =    24.2001   Anisotropy =     3.6494

     12  H    Isotropic =    24.1668   Anisotropy =     5.8959

     13  H    Isotropic =    24.4999   Anisotropy =    10.5456

     14  C    Isotropic =    44.8316   Anisotropy =   199.3339

     15  C    Isotropic =    48.9187   Anisotropy =   192.0725

     16  C    Isotropic =    45.3835   Anisotropy =   198.6231

     17  C    Isotropic =    49.5342   Anisotropy =   189.7059

     18  C    Isotropic =    44.8313   Anisotropy =   187.1046

     19  C    Isotropic =    49.4163   Anisotropy =   165.6905

     20  H    Isotropic =    24.5154   Anisotropy =    11.3703

     21  H    Isotropic =    24.4159   Anisotropy =     5.9960

     22  H    Isotropic =    24.3114   Anisotropy =     2.9583

     23  H    Isotropic =    24.2958   Anisotropy =     6.2387

     24  H    Isotropic =    23.7911   Anisotropy =     9.1109

     25  C    Isotropic =    47.1022   Anisotropy =   188.2301

     26  C    Isotropic =    48.7320   Anisotropy =   189.5219

     27  C    Isotropic =    45.4550   Anisotropy =   196.9774

     28  C    Isotropic =    48.3585   Anisotropy =   190.0663

     29  C    Isotropic =    44.4996   Anisotropy =   193.8990

     30  C    Isotropic =    48.0657   Anisotropy =   161.7448

     31  H    Isotropic =    23.7509   Anisotropy =     9.8176

     32  H    Isotropic =    23.8882   Anisotropy =     6.8799

     33  H    Isotropic =    23.9968   Anisotropy =     3.8584

     34  H    Isotropic =    24.2466   Anisotropy =     6.5914

     35  H    Isotropic =    24.9123   Anisotropy =    13.1930

     36  C    Isotropic =    41.1930   Anisotropy =   183.7512

     37  C    Isotropic =    48.7408   Anisotropy =   190.1364

     38  C    Isotropic =    44.5204   Anisotropy =   199.8261

     39  C    Isotropic =    48.6160   Anisotropy =   190.7096

     40  C    Isotropic =    45.7062   Anisotropy =   193.3811

     41  C    Isotropic =    49.0255   Anisotropy =   168.8996

     42  H    Isotropic =    23.9218   Anisotropy =     9.9636

     43  H    Isotropic =    24.2146   Anisotropy =     6.3777

     44  H    Isotropic =    23.9318   Anisotropy =     2.9868

     45  H    Isotropic =    23.9644   Anisotropy =     6.1872

     46  H    Isotropic =    24.0690   Anisotropy =    11.0152

     47  C    Isotropic =    22.5823   Anisotropy =   105.9413

     48  Rh   Isotropic =  -306.1297   Anisotropy =   313.3960

     49  C    Isotropic =    82.1401   Anisotropy =   115.9788

     50  C    Isotropic =    72.8784   Anisotropy =   122.1344

     51  C    Isotropic =    73.8060   Anisotropy =   128.1174

     52  C    Isotropic =    74.7134   Anisotropy =   118.5829

     53  C    Isotropic =   154.2791   Anisotropy =    24.8403

     54  H    Isotropic =    27.0083   Anisotropy =     6.9750

     55  H    Isotropic =    26.6958   Anisotropy =     4.2334

     56  C    Isotropic =   147.1966   Anisotropy =    29.5608

     57  C    Isotropic =   153.8904   Anisotropy =    25.2067

     58  H    Isotropic =    26.8665   Anisotropy =     4.5825

     59  C    Isotropic =   148.1905   Anisotropy =    29.0833

     60  H    Isotropic =    26.2618   Anisotropy =     5.0123

     61  H    Isotropic =    29.8714   Anisotropy =    11.9200

     62  H    Isotropic =    29.7849   Anisotropy =     9.7537

     63  H    Isotropic =    29.1518   Anisotropy =    12.5769

     64  H    Isotropic =    29.0019   Anisotropy =     7.2794

     65  H    Isotropic =    29.7194   Anisotropy =     9.7470

     66  H    Isotropic =    29.8132   Anisotropy =    11.0703

     67  H    Isotropic =    29.2901   Anisotropy =     7.6260

     68  H    Isotropic =    29.1667   Anisotropy =    12.9027

     69  C    Isotropic =    45.4757   Anisotropy =   164.7768

     70  H    Isotropic =    24.5393   Anisotropy =     9.3093

     71  C    Isotropic =    70.2853   Anisotropy =   124.5419

     72  C    Isotropic =    29.5347   Anisotropy =    93.3942

     73  C    Isotropic =    31.7141   Anisotropy =    94.9691

     74  C    Isotropic =    36.8423   Anisotropy =    90.7991

     75  C    Isotropic =    37.2556   Anisotropy =    91.4816

     76  C    Isotropic =    30.8150   Anisotropy =   100.2972

     77  F    Isotropic =   336.8602   Anisotropy =   167.3760

     78  F    Isotropic =   319.2233   Anisotropy =   204.3279

     79  F    Isotropic =   336.7460   Anisotropy =   168.2130

     80  F    Isotropic =   312.6195   Anisotropy =   179.7688

     81  F    Isotropic =   306.4333   Anisotropy =   179.4349

 The electronic state is 1-A.
 Alpha  occ. eigenvalues --  -77.24524 -77.24220 -24.81505 -24.81371 -24.81232
 Alpha  occ. eigenvalues --  -24.80910 -24.80780 -10.39107 -10.38948 -10.38851
 Alpha  occ. eigenvalues --  -10.38434 -10.38424 -10.32431 -10.32110 -10.31775
 Alpha  occ. eigenvalues --  -10.30006 -10.29923 -10.29876 -10.29694 -10.29278
 Alpha  occ. eigenvalues --  -10.29264 -10.29160 -10.28918 -10.28769 -10.28736
 Alpha  occ. eigenvalues --  -10.28678 -10.28629 -10.28447 -10.28417 -10.28357
 Alpha  occ. eigenvalues --  -10.28037 -10.27999 -10.27996 -10.27967 -10.27930
 Alpha  occ. eigenvalues --  -10.27870 -10.27808 -10.27781 -10.27729 -10.27722
 Alpha  occ. eigenvalues --  -10.27653 -10.27636 -10.27502 -10.27464 -10.27417
 Alpha  occ. eigenvalues --  -10.27363 -10.27281  -6.70439  -6.70182  -4.86750
 Alpha  occ. eigenvalues --   -4.86645  -4.86466  -4.86394  -4.86342  -4.86096
 Alpha  occ. eigenvalues --   -3.31911  -2.08818  -2.08126  -2.05373  -1.36230
 Alpha  occ. eigenvalues --   -1.35723  -1.35246  -1.34235  -1.33775  -1.00734
 Alpha  occ. eigenvalues --   -0.97230  -0.96939  -0.96414  -0.96181  -0.94630
 Alpha  occ. eigenvalues --   -0.93569  -0.89356  -0.89341  -0.88195  -0.88083
 Alpha  occ. eigenvalues --   -0.87573  -0.86065  -0.85667  -0.85644  -0.85492
 Alpha  occ. eigenvalues --   -0.85204  -0.85100  -0.85046  -0.80606  -0.80036
 Alpha  occ. eigenvalues --   -0.78001  -0.76499  -0.76343  -0.75781  -0.71743
 Alpha  occ. eigenvalues --   -0.71591  -0.71386  -0.71269  -0.70761  -0.70614
 Alpha  occ. eigenvalues --   -0.70502  -0.70455  -0.69709  -0.69454  -0.67710
 Alpha  occ. eigenvalues --   -0.67326  -0.66038  -0.64870  -0.64632  -0.63874
 Alpha  occ. eigenvalues --   -0.62945  -0.62788  -0.62575  -0.62449  -0.62227
 Alpha  occ. eigenvalues --   -0.60959  -0.60566  -0.60178  -0.59677  -0.58878
 Alpha  occ. eigenvalues --   -0.57894  -0.57275  -0.57063  -0.56728  -0.56477
 Alpha  occ. eigenvalues --   -0.56420  -0.56341  -0.56162  -0.55863  -0.55809
 Alpha  occ. eigenvalues --   -0.55718  -0.55548  -0.54865  -0.54224  -0.54005
 Alpha  occ. eigenvalues --   -0.53819  -0.53364  -0.53127  -0.53072  -0.52875
 Alpha  occ. eigenvalues --   -0.52829  -0.52777  -0.52610  -0.52115  -0.51579
 Alpha  occ. eigenvalues --   -0.51499  -0.50746  -0.49173  -0.48799  -0.48494
 Alpha  occ. eigenvalues --   -0.48395  -0.48080  -0.47881  -0.47710  -0.47430
 Alpha  occ. eigenvalues --   -0.46838  -0.46417  -0.46374  -0.46153  -0.45521
 Alpha  occ. eigenvalues --   -0.45400  -0.45288  -0.45042  -0.44693  -0.44134
 Alpha  occ. eigenvalues --   -0.43755  -0.43503  -0.43241  -0.43153  -0.41735
 Alpha  occ. eigenvalues --   -0.41459  -0.38406  -0.38041  -0.37233  -0.36724
 Alpha  occ. eigenvalues --   -0.36588  -0.36325  -0.36204  -0.36029  -0.35774
 Alpha  occ. eigenvalues --   -0.35659  -0.35563  -0.35377  -0.34809  -0.34470
 Alpha  occ. eigenvalues --   -0.33856  -0.30941
 Alpha virt. eigenvalues --   -0.18787  -0.15357  -0.15015  -0.14483  -0.13309
 Alpha virt. eigenvalues --   -0.12709  -0.12160  -0.12116  -0.11432  -0.11111
 Alpha virt. eigenvalues --   -0.10986  -0.10696  -0.10212  -0.09484  -0.09238

 Mulliken charges:
               1
     1  P    0.421505
     2  P    0.359545
     3  C   -0.029438
     4  C   -0.095260
     5  C   -0.099525
     6  C   -0.089551
     7  C   -0.143243
     8  C   -0.099012
     9  H    0.143991
    10  H    0.131450
    11  H    0.136357
    12  H    0.133392
    13  H    0.156394
    14  C   -0.024900
    15  C   -0.104639
    16  C   -0.091823
    17  C   -0.107773
    18  C   -0.057596
    19  C   -0.277110
    20  H    0.174013
    21  H    0.139349
    22  H    0.140734
    23  H    0.132412
    24  H    0.158371
    25  C   -0.071006
    26  C   -0.084004
    27  C   -0.095654
    28  C   -0.097135
    29  C   -0.051760
    30  C   -0.246267
    31  H    0.139355
    32  H    0.134046
    33  H    0.140420
    34  H    0.136943
    35  H    0.164376
    36  C   -0.000209
    37  C   -0.115064
    38  C   -0.094878
    39  C   -0.075841
    40  C   -0.079082
    41  C   -0.256903
    42  H    0.135639
    43  H    0.132828
    44  H    0.140507
    45  H    0.136821
    46  H    0.138967
    47  C   -0.564737
    48  Rh  -0.552434
    49  C    0.001610
    50  C   -0.117269
    51  C   -0.040092
    52  C   -0.069164
    53  C   -0.358351
    54  H    0.177132
    55  H    0.221887
    56  C   -0.233208
    57  C   -0.354219
    58  H    0.215582
    59  C   -0.221521
    60  H    0.165047
    61  H    0.168692
    62  H    0.167508
    63  H    0.173533
    64  H    0.127897
    65  H    0.168306
    66  H    0.168944
    67  H    0.134524
    68  H    0.172339
    69  C    0.073259
    70  H    0.199235
    71  C   -0.119675
    72  C    0.226778
    73  C    0.295502
    74  C    0.112076
    75  C    0.119581
    76  C    0.155338
    77  F   -0.147570
    78  F   -0.134763
    79  F   -0.141706
    80  F   -0.165239
    81  F   -0.164564
 Sum of Mulliken charges =   1.00000

 Dipole moment (field-independent basis, Debye):
    X=             -5.8695    Y=             -0.6577    Z=             -0.1498  Tot=              5.9081
 Quadrupole moment (field-independent basis, Debye-Ang):
   XX=           -263.7183   YY=           -253.2715   ZZ=           -247.8710
   XY=             -4.6642   XZ=             -4.6986   YZ=              4.5163

 Summary of Natural Population Analysis:

                                       Natural Population
                Natural  -----------------------------------------------
    Atom  No    Charge         Core      Valence    Rydberg      Total
 -----------------------------------------------------------------------
      P    1    1.13376      9.99619     3.81551    0.05454    13.86624
      P    2    1.11867      9.99623     3.82976    0.05534    13.88133
      C    3   -0.18116      1.99908     4.16553    0.01655     6.18116
      C    4   -0.19008      1.99919     4.17604    0.01484     6.19008
      C    5   -0.17871      1.99920     4.16499    0.01452     6.17871
      C    6   -0.19400      1.99919     4.18028    0.01453     6.19400
      C    7   -0.19848      1.99909     4.18437    0.01503     6.19848
      C    8   -0.33867      1.99897     4.31542    0.02428     6.33867
      H    9    0.22217      0.00000     0.77519    0.00264     0.77783
      H   10    0.22142      0.00000     0.77730    0.00128     0.77858
      H   11    0.22245      0.00000     0.77638    0.00116     0.77755
      H   12    0.22219      0.00000     0.77656    0.00125     0.77781
      H   13    0.21155      0.00000     0.78651    0.00194     0.78845
      C   14   -0.18969      1.99910     4.17440    0.01619     6.18969
      C   15   -0.19393      1.99919     4.17987    0.01487     6.19393
      C   16   -0.17642      1.99921     4.16248    0.01474     6.17642
      C   17   -0.19768      1.99919     4.18370    0.01478     6.19768
      C   18   -0.19344      1.99910     4.17847    0.01587     6.19344
      C   19   -0.34768      1.99897     4.32331    0.02540     6.34768
      H   20    0.23096      0.00000     0.76707    0.00196     0.76904
      H   21    0.22566      0.00000     0.77313    0.00121     0.77434
      H   22    0.22428      0.00000     0.77458    0.00115     0.77572
      H   23    0.22216      0.00000     0.77663    0.00121     0.77784
      H   24    0.21808      0.00000     0.77997    0.00195     0.78192
      C   25   -0.19610      1.99909     4.18169    0.01532     6.19610
      C   26   -0.19241      1.99920     4.17852    0.01469     6.19241
      C   27   -0.17569      1.99921     4.16189    0.01459     6.17569
      C   28   -0.19031      1.99920     4.17650    0.01461     6.19031
      C   29   -0.18973      1.99910     4.17522    0.01542     6.18973
      C   30   -0.35540      1.99899     4.33197    0.02445     6.35540
      H   31    0.21611      0.00000     0.78188    0.00201     0.78389
      H   32    0.22298      0.00000     0.77579    0.00123     0.77702
      H   33    0.22403      0.00000     0.77480    0.00117     0.77597
      H   34    0.22397      0.00000     0.77482    0.00121     0.77603
      H   35    0.22556      0.00000     0.77273    0.00171     0.77444
      C   36   -0.17668      1.99909     4.16222    0.01537     6.17668
      C   37   -0.19367      1.99920     4.17996    0.01451     6.19367
      C   38   -0.17343      1.99921     4.15970    0.01452     6.17343
      C   39   -0.19459      1.99919     4.18044    0.01495     6.19459
      C   40   -0.19412      1.99908     4.17835    0.01669     6.19412
      C   41   -0.34546      1.99898     4.32153    0.02495     6.34546
      H   42    0.21998      0.00000     0.77804    0.00197     0.78002
      H   43    0.22262      0.00000     0.77615    0.00122     0.77738
      H   44    0.22358      0.00000     0.77526    0.00116     0.77642
      H   45    0.22361      0.00000     0.77513    0.00126     0.77639
      H   46    0.21609      0.00000     0.78160    0.00231     0.78391
      C   47   -0.57457      1.99899     4.54823    0.02736     6.57457
     Rh   48   -0.37454     35.98569     9.36001    0.02885    45.37454
      C   49   -0.18656      1.99906     4.16783    0.01967     6.18656
      C   50   -0.14927      1.99907     4.13036    0.01983     6.14927
      C   51   -0.16612      1.99907     4.14743    0.01963     6.16612
      C   52   -0.16422      1.99907     4.14529    0.01986     6.16422
      C   53   -0.42257      1.99936     4.41151    0.01170     6.42257
      H   54    0.22448      0.00000     0.77365    0.00187     0.77552
      H   55    0.23181      0.00000     0.76622    0.00197     0.76819
      C   56   -0.41766      1.99935     4.40568    0.01263     6.41766
      C   57   -0.42505      1.99936     4.41384    0.01185     6.42505
      H   58    0.22969      0.00000     0.76826    0.00205     0.77031
      C   59   -0.41933      1.99935     4.40737    0.01262     6.41933
      H   60    0.22438      0.00000     0.77358    0.00204     0.77562
      H   61    0.22847      0.00000     0.77004    0.00149     0.77153
      H   62    0.21486      0.00000     0.78315    0.00199     0.78514
      H   63    0.23425      0.00000     0.76384    0.00191     0.76575
      H   64    0.21416      0.00000     0.78425    0.00158     0.78584
      H   65    0.21562      0.00000     0.78241    0.00198     0.78438
      H   66    0.22832      0.00000     0.77021    0.00147     0.77168
      H   67    0.21787      0.00000     0.78061    0.00151     0.78213
      H   68    0.23444      0.00000     0.76366    0.00190     0.76556
      C   69   -0.16001      1.99894     4.13883    0.02223     6.16001
      H   70    0.23479      0.00000     0.76176    0.00345     0.76521
      C   71   -0.19048      1.99888     4.17298    0.01861     6.19048
      C   72    0.35275      1.99839     3.62510    0.02377     5.64725
      C   73    0.35057      1.99835     3.62271    0.02837     5.64943
      C   74    0.26111      1.99829     3.71413    0.02647     5.73889
      C   75    0.26203      1.99829     3.71504    0.02463     5.73797
      C   76    0.29747      1.99835     3.67731    0.02687     5.70253
      F   77   -0.26287      1.99994     7.25528    0.00765     9.26287
      F   78   -0.25250      1.99993     7.24451    0.00806     9.25250
      F   79   -0.25932      1.99994     7.25166    0.00772     9.25932
      F   80   -0.28073      1.99994     7.27339    0.00741     9.28073
      F   81   -0.28564      1.99994     7.27645    0.00925     9.28564
 =======================================================================
   * Total *    1.00000    145.93899   245.09820    0.96281   392.00000

 Normal termination of Gaussian 16 at Mon Jan 20 01:02:04 2025.
