 Gaussian 16, Revision B.01,
 Gaussian 16:  ES64L-G16RevB.01 20-Dec-2017

 ------------------------------------------
 # nmr=giao b3lyp/genecp pop=nbo scfcyc=200
 ------------------------------------------

 ---------
 DS-23_SPE
 ---------
 Symbolic Z-matrix:
 Charge =  1 Multiplicity = 1

                         Standard orientation:
 ---------------------------------------------------------------------
 Center     Atomic      Atomic             Coordinates (Angstroms)
 Number     Number       Type             X           Y           Z
 ---------------------------------------------------------------------
      1         15           0       -0.787869    1.369840   -0.009239
      2         15           0        0.262300   -1.200550    0.037611
      3          6           0        1.431390   -1.246090    2.616661
      4          6           0        1.816430   -1.857571    3.805941
      5          6           0        1.674939   -3.231510    3.965061
      6          6           0        1.143959   -3.995690    2.929571
      7          6           0        0.758399   -3.388510    1.740431
      8          6           0        0.907300   -2.006400    1.569411
      9          1           0        1.534890   -0.174500    2.506361
     10          1           0        2.227450   -1.257781    4.608481
     11          1           0        1.975309   -3.705801    4.890791
     12          1           0        1.029059   -5.066020    3.047361
     13          1           0        0.351569   -3.999680    0.943541
     14          6           0        2.158780   -2.944221   -1.234759
     15          6           0        2.703769   -3.586011   -2.343909
     16          6           0        2.117079   -3.438621   -3.595939
     17          6           0        0.979150   -2.649210   -3.737529
     18          6           0        0.430350   -2.010460   -2.631869
     19          6           0        1.017690   -2.145900   -1.369089
     20          1           0        2.616730   -3.089121   -0.263779
     21          1           0        3.583289   -4.206551   -2.224699
     22          1           0        2.539089   -3.942651   -4.456249
     23          1           0        0.512730   -2.538920   -4.708649
     24          1           0       -0.463270   -1.407880   -2.745299
     25          6           0       -0.201149    2.257050   -2.629619
     26          6           0       -0.429269    3.005740   -3.779639
     27          6           0       -1.440808    3.960030   -3.805019
     28          6           0       -2.226808    4.162141   -2.674569
     29          6           0       -2.001408    3.416411   -1.522849
     30          6           0       -0.977609    2.461990   -1.486059
     31          1           0        0.584341    1.511990   -2.623579
     32          1           0        0.185471    2.842670   -4.656199
     33          1           0       -1.616438    4.543121   -4.700169
     34          1           0       -3.016778    4.902741   -2.686959
     35          1           0       -2.620238    3.590781   -0.651269
     36          6           0       -1.337259    1.891840    2.673291
     37          6           0       -1.412529    2.650340    3.836141
     38          6           0       -1.082468    4.001620    3.809571
     39          6           0       -0.674638    4.590250    2.616621
     40          6           0       -0.591498    3.832030    1.453341
     41          6           0       -0.919889    2.473250    1.471201
     42          1           0       -1.606729    0.842311    2.694781
     43          1           0       -1.738049    2.188201    4.759841
     44          1           0       -1.148458    4.595180    4.712751
     45          1           0       -0.422638    5.643140    2.588841
     46          1           0       -0.280108    4.309870    0.533921
     47          6           0        0.829791    0.532310   -0.029569
     48         45           0       -2.020390   -0.639959   -0.018329
     49          6           0       -4.120479    0.081091    0.499771
     50          6           0       -3.947079    0.141911   -0.867769
     51          6           0       -2.992680   -2.609459   -0.636759
     52          6           0       -2.903020   -2.563379    0.739021
     53          6           0       -4.882670   -1.001098    1.242101
     54          1           0       -3.942569    0.993301    1.058881
     55          1           0       -3.674699    1.102051   -1.293009
     56          6           0       -4.407290   -0.874389   -1.884569
     57          6           0       -4.250110   -2.346069   -1.444569
     58          1           0       -2.198630   -3.126469   -1.164459
     59          6           0       -3.996350   -2.177639    1.705521
     60          1           0       -2.062710   -3.070639    1.201191
     61          1           0       -5.350640   -0.554958    2.121321
     62          1           0       -5.701050   -1.364288    0.620511
     63          1           0       -5.452680   -0.678098   -2.154699
     64          1           0       -3.829730   -0.710589   -2.796979
     65          1           0       -5.123400   -2.668218   -0.877479
     66          1           0       -4.226470   -2.972619   -2.337889
     67          1           0       -3.519860   -1.914419    2.652431
     68          1           0       -4.624030   -3.051639    1.920971
     69          6           0        2.110491    1.046659   -0.075349
     70          6           0        2.366331    2.528039   -0.045759
     71          1           0        3.284701    2.780719   -0.572669
     72          1           0        1.540861    3.062040   -0.507159
     73          1           0        2.458081    2.885389    0.981741
     74          7           0        3.186341    0.228669   -0.166279
     75          1           0        2.998010   -0.744221   -0.364119
     76          6           0        4.571291    0.574089   -0.127759
     77          6           0        5.113001    1.276818    0.947701
     78          6           0        5.398811    0.137508   -1.162659
     79          6           0        6.472521    1.566458    0.968791
     80          1           0        4.480151    1.579019    1.771671
     81          6           0        6.760231    0.414648   -1.124869
     82          1           0        4.972890   -0.408161   -1.995959
     83          6           0        7.299291    1.135738   -0.063959
     84          1           0        6.888471    2.114728    1.804541
     85          1           0        7.398141    0.073958   -1.930479
     86          1           0        8.358741    1.355717   -0.039159
 ---------------------------------------------------------------------

 SCF Done:  E(RB3LYP) =  -2435.54601338     A.U. after   16 cycles

      1  P    Isotropic =   301.7108   Anisotropy =    76.6559

      2  P    Isotropic =   310.9902   Anisotropy =    85.4634

      3  C    Isotropic =    48.5460   Anisotropy =   190.1142

      4  C    Isotropic =    49.0541   Anisotropy =   189.0694

      5  C    Isotropic =    46.9000   Anisotropy =   194.6189

      6  C    Isotropic =    48.7010   Anisotropy =   190.1092

      7  C    Isotropic =    47.5770   Anisotropy =   188.8419

      8  C    Isotropic =    48.7336   Anisotropy =   168.6175

      9  H    Isotropic =    24.1861   Anisotropy =     9.1992

     10  H    Isotropic =    24.2092   Anisotropy =     6.9252

     11  H    Isotropic =    24.0822   Anisotropy =     3.5376

     12  H    Isotropic =    24.1161   Anisotropy =     5.9741

     13  H    Isotropic =    24.4824   Anisotropy =    10.6002

     14  C    Isotropic =    48.5165   Anisotropy =   188.5250

     15  C    Isotropic =    49.1740   Anisotropy =   188.4434

     16  C    Isotropic =    46.0415   Anisotropy =   195.7186

     17  C    Isotropic =    47.5954   Anisotropy =   189.6263

     18  C    Isotropic =    42.2290   Anisotropy =   184.6374

     19  C    Isotropic =    42.7461   Anisotropy =   175.8022

     20  H    Isotropic =    24.3022   Anisotropy =    11.8197

     21  H    Isotropic =    24.1714   Anisotropy =     6.3722

     22  H    Isotropic =    23.9509   Anisotropy =     3.5041

     23  H    Isotropic =    23.8841   Anisotropy =     7.0963

     24  H    Isotropic =    23.2593   Anisotropy =    10.0957

     25  C    Isotropic =    49.0712   Anisotropy =   190.1927

     26  C    Isotropic =    48.8908   Anisotropy =   188.8887

     27  C    Isotropic =    46.9031   Anisotropy =   194.1423

     28  C    Isotropic =    48.6537   Anisotropy =   190.0450

     29  C    Isotropic =    47.5519   Anisotropy =   189.4647

     30  C    Isotropic =    45.5318   Anisotropy =   170.9044

     31  H    Isotropic =    24.0363   Anisotropy =     9.5982

     32  H    Isotropic =    24.1268   Anisotropy =     7.0792

     33  H    Isotropic =    24.0714   Anisotropy =     3.5888

     34  H    Isotropic =    24.1367   Anisotropy =     6.0813

     35  H    Isotropic =    24.4800   Anisotropy =    11.0166

     36  C    Isotropic =    41.5927   Anisotropy =   182.4708

     37  C    Isotropic =    48.9646   Anisotropy =   187.6719

     38  C    Isotropic =    46.1701   Anisotropy =   195.1470

     39  C    Isotropic =    50.0209   Anisotropy =   186.8160

     40  C    Isotropic =    46.5407   Anisotropy =   190.6127

     41  C    Isotropic =    43.0235   Anisotropy =   174.8894

     42  H    Isotropic =    23.3436   Anisotropy =     9.9048

     43  H    Isotropic =    24.0538   Anisotropy =     7.1843

     44  H    Isotropic =    24.0096   Anisotropy =     3.6089

     45  H    Isotropic =    24.2301   Anisotropy =     6.2391

     46  H    Isotropic =    24.2943   Anisotropy =    11.7177

     47  C    Isotropic =    83.8199   Anisotropy =    53.9105

     48  Rh   Isotropic =  -299.5089   Anisotropy =   328.1409

     49  C    Isotropic =    80.7402   Anisotropy =   118.8884

     50  C    Isotropic =    73.4510   Anisotropy =   121.1873

     51  C    Isotropic =    80.3715   Anisotropy =   119.2883

     52  C    Isotropic =    74.7921   Anisotropy =   118.9312

     53  C    Isotropic =   154.0011   Anisotropy =    25.0039

     54  H    Isotropic =    27.0832   Anisotropy =     5.5936

     55  H    Isotropic =    26.9187   Anisotropy =     5.4043

     56  C    Isotropic =   148.1345   Anisotropy =    29.1532

     57  C    Isotropic =   153.9583   Anisotropy =    25.0866

     58  H    Isotropic =    27.0580   Anisotropy =     5.5164

     59  C    Isotropic =   148.0963   Anisotropy =    29.1925

     60  H    Isotropic =    26.7010   Anisotropy =     5.0861

     61  H    Isotropic =    29.9517   Anisotropy =    11.3873

     62  H    Isotropic =    29.8939   Anisotropy =     9.9272

     63  H    Isotropic =    29.3411   Anisotropy =    12.5857

     64  H    Isotropic =    29.3997   Anisotropy =     6.8663

     65  H    Isotropic =    29.9269   Anisotropy =     9.8778

     66  H    Isotropic =    29.9595   Anisotropy =    11.3244

     67  H    Isotropic =    29.3517   Anisotropy =     7.0079

     68  H    Isotropic =    29.2960   Anisotropy =    12.7024

     69  C    Isotropic =    13.0291   Anisotropy =   169.9990

     70  C    Isotropic =   164.2278   Anisotropy =    13.7869

     71  H    Isotropic =    30.4360   Anisotropy =     7.4878

     72  H    Isotropic =    30.0147   Anisotropy =     8.0369

     73  H    Isotropic =    30.2911   Anisotropy =     7.3519

     74  N    Isotropic =   110.4141   Anisotropy =    71.3829

     75  H    Isotropic =    25.2120   Anisotropy =    11.4597

     76  C    Isotropic =    41.5181   Anisotropy =   139.7326

     77  C    Isotropic =    53.9429   Anisotropy =   165.9271

     78  C    Isotropic =    55.7587   Anisotropy =   159.6841

     79  C    Isotropic =    49.3743   Anisotropy =   188.0141

     80  H    Isotropic =    25.0776   Anisotropy =    10.6535

     81  C    Isotropic =    48.3961   Anisotropy =   189.3271

     82  H    Isotropic =    25.3824   Anisotropy =    10.0923

     83  C    Isotropic =    49.7514   Anisotropy =   191.0637

     84  H    Isotropic =    24.4376   Anisotropy =     6.6596

     85  H    Isotropic =    24.4379   Anisotropy =     6.3341

     86  H    Isotropic =    24.4201   Anisotropy =     3.6448

 The electronic state is 1-A.
 Alpha  occ. eigenvalues --  -77.22861 -77.22770 -14.45987 -10.35139 -10.31473
 Alpha  occ. eigenvalues --  -10.29302 -10.28829 -10.28788 -10.28641 -10.28193
 Alpha  occ. eigenvalues --  -10.27991 -10.27957 -10.27927 -10.27775 -10.27724
 Alpha  occ. eigenvalues --  -10.27684 -10.27665 -10.27585 -10.27561 -10.27523
 Alpha  occ. eigenvalues --  -10.27516 -10.27513 -10.27493 -10.27480 -10.27466
 Alpha  occ. eigenvalues --  -10.27436 -10.27092 -10.27028 -10.27003 -10.26976
 Alpha  occ. eigenvalues --  -10.26971 -10.26957 -10.26949 -10.26894 -10.26886
 Alpha  occ. eigenvalues --  -10.26857 -10.26843 -10.26644 -10.26620 -10.26549
 Alpha  occ. eigenvalues --  -10.26543 -10.26352 -10.26327 -10.26258  -6.68765
 Alpha  occ. eigenvalues --   -6.68652  -4.85036  -4.85003  -4.84928  -4.84886
 Alpha  occ. eigenvalues --   -4.84683  -4.84578  -3.30343  -2.07234  -2.06573
 Alpha  occ. eigenvalues --   -2.03824  -1.07117  -0.96459  -0.96033  -0.95644
 Alpha  occ. eigenvalues --   -0.95388  -0.95214  -0.93388  -0.90145  -0.88083
 Alpha  occ. eigenvalues --   -0.87100  -0.87007  -0.86506  -0.85178  -0.84734
 Alpha  occ. eigenvalues --   -0.84643  -0.84548  -0.84502  -0.84460  -0.84176
 Alpha  occ. eigenvalues --   -0.83416  -0.81860  -0.79298  -0.76794  -0.75318
 Alpha  occ. eigenvalues --   -0.74921  -0.71441  -0.71252  -0.70770  -0.70537
 Alpha  occ. eigenvalues --   -0.70360  -0.70145  -0.69841  -0.69561  -0.69479
 Alpha  occ. eigenvalues --   -0.68341  -0.66611  -0.66308  -0.64835  -0.63468
 Alpha  occ. eigenvalues --   -0.62158  -0.61895  -0.61605  -0.61331  -0.60099
 Alpha  occ. eigenvalues --   -0.58995  -0.58225  -0.57365  -0.56211  -0.56040
 Alpha  occ. eigenvalues --   -0.55818  -0.55482  -0.55356  -0.55317  -0.55192
 Alpha  occ. eigenvalues --   -0.55115  -0.54800  -0.54352  -0.54104  -0.53692
 Alpha  occ. eigenvalues --   -0.53179  -0.52674  -0.52547  -0.52177  -0.52038
 Alpha  occ. eigenvalues --   -0.51963  -0.51820  -0.51733  -0.51646  -0.51403
 Alpha  occ. eigenvalues --   -0.51330  -0.50686  -0.50204  -0.48498  -0.47877
 Alpha  occ. eigenvalues --   -0.47768  -0.47523  -0.47047  -0.46906  -0.46759
 Alpha  occ. eigenvalues --   -0.46546  -0.45910  -0.45505  -0.45283  -0.45089
 Alpha  occ. eigenvalues --   -0.44983  -0.44894  -0.44565  -0.44371  -0.44343
 Alpha  occ. eigenvalues --   -0.43893  -0.43184  -0.43031  -0.42605  -0.42441
 Alpha  occ. eigenvalues --   -0.42294  -0.41987  -0.40418  -0.37305  -0.36971
 Alpha  occ. eigenvalues --   -0.36415  -0.36297  -0.36045  -0.35603  -0.35446
 Alpha  occ. eigenvalues --   -0.35368  -0.35119  -0.35034  -0.34922  -0.34237
 Alpha  occ. eigenvalues --   -0.33322  -0.33201  -0.32622  -0.31485  -0.29487
 Alpha virt. eigenvalues --   -0.16023  -0.14079  -0.13284  -0.12833  -0.12400
 Alpha virt. eigenvalues --   -0.11702  -0.11401  -0.11114  -0.10757  -0.10415
 Alpha virt. eigenvalues --   -0.10221  -0.09293  -0.09011  -0.08216  -0.06851

 Mulliken charges:
               1
     1  P    0.420863
     2  P    0.411489
     3  C   -0.071944
     4  C   -0.093579
     5  C   -0.105429
     6  C   -0.081093
     7  C   -0.173156
     8  C   -0.102131
     9  H    0.157408
    10  H    0.128717
    11  H    0.135019
    12  H    0.133569
    13  H    0.167659
    14  C   -0.117721
    15  C   -0.079135
    16  C   -0.102883
    17  C   -0.089115
    18  C   -0.083004
    19  C   -0.254838
    20  H    0.183357
    21  H    0.136228
    22  H    0.137980
    23  H    0.131600
    24  H    0.180144
    25  C   -0.099858
    26  C   -0.095141
    27  C   -0.103946
    28  C   -0.080176
    29  C   -0.157785
    30  C   -0.135736
    31  H    0.172706
    32  H    0.128669
    33  H    0.135629
    34  H    0.133695
    35  H    0.165784
    36  C   -0.074551
    37  C   -0.099758
    38  C   -0.093772
    39  C   -0.101240
    40  C   -0.082971
    41  C   -0.210090
    42  H    0.180098
    43  H    0.128456
    44  H    0.135795
    45  H    0.132547
    46  H    0.162113
    47  C   -0.727012
    48  Rh  -0.703008
    49  C   -0.022590
    50  C   -0.108111
    51  C   -0.025341
    52  C   -0.096167
    53  C   -0.346247
    54  H    0.192827
    55  H    0.212241
    56  C   -0.229343
    57  C   -0.348188
    58  H    0.190817
    59  C   -0.230798
    60  H    0.196324
    61  H    0.165991
    62  H    0.165408
    63  H    0.167709
    64  H    0.131222
    65  H    0.165600
    66  H    0.165290
    67  H    0.132809
    68  H    0.167568
    69  C    0.402554
    70  C   -0.491205
    71  H    0.191930
    72  H    0.179709
    73  H    0.174052
    74  N   -0.173465
    75  H    0.254734
    76  C    0.038102
    77  C   -0.131653
    78  C   -0.164622
    79  C   -0.093355
    80  H    0.143003
    81  C   -0.103492
    82  H    0.148643
    83  C   -0.104043
    84  H    0.132014
    85  H    0.132658
    86  H    0.136964
 Sum of Mulliken charges =   1.00000

 Dipole moment (field-independent basis, Debye):
    X=              1.4821    Y=              0.2325    Z=             -0.3221  Tot=              1.5344
 Quadrupole moment (field-independent basis, Debye-Ang):
   XX=           -222.1040   YY=           -241.8441   ZZ=           -243.1403
   XY=             -0.6732   XZ=             -1.0653   YZ=              3.7106

 Summary of Natural Population Analysis:

                                       Natural Population
                Natural  -----------------------------------------------
    Atom  No    Charge         Core      Valence    Rydberg      Total
 -----------------------------------------------------------------------
      P    1    1.14393      9.99622     3.80386    0.05599    13.85607
      P    2    1.12181      9.99625     3.82622    0.05572    13.87819
      C    3   -0.19603      1.99909     4.18113    0.01581     6.19603
      C    4   -0.19256      1.99920     4.17873    0.01464     6.19256
      C    5   -0.18518      1.99920     4.17122    0.01475     6.18518
      C    6   -0.19317      1.99920     4.17925    0.01473     6.19317
      C    7   -0.20737      1.99909     4.19281    0.01547     6.20737
      C    8   -0.34175      1.99899     4.31827    0.02450     6.34175
      H    9    0.21839      0.00000     0.77920    0.00241     0.78161
      H   10    0.21915      0.00000     0.77961    0.00124     0.78085
      H   11    0.22157      0.00000     0.77725    0.00118     0.77843
      H   12    0.22147      0.00000     0.77729    0.00124     0.77853
      H   13    0.21637      0.00000     0.78169    0.00193     0.78363
      C   14   -0.22651      1.99909     4.21130    0.01612     6.22651
      C   15   -0.19255      1.99919     4.17843    0.01493     6.19255
      C   16   -0.18237      1.99920     4.16851    0.01466     6.18237
      C   17   -0.19144      1.99920     4.17777    0.01447     6.19144
      C   18   -0.18981      1.99910     4.17498    0.01573     6.18981
      C   19   -0.33985      1.99898     4.31614    0.02473     6.33985
      H   20    0.22350      0.00000     0.77451    0.00200     0.77650
      H   21    0.22243      0.00000     0.77633    0.00124     0.77757
      H   22    0.22264      0.00000     0.77618    0.00118     0.77736
      H   23    0.22106      0.00000     0.77771    0.00123     0.77894
      H   24    0.22429      0.00000     0.77385    0.00186     0.77571
      C   25   -0.20219      1.99909     4.18775    0.01535     6.20219
      C   26   -0.19275      1.99920     4.17884    0.01471     6.19275
      C   27   -0.18616      1.99920     4.17220    0.01477     6.18616
      C   28   -0.19175      1.99920     4.17781    0.01475     6.19175
      C   29   -0.20759      1.99909     4.19318    0.01532     6.20759
      C   30   -0.34262      1.99898     4.31967    0.02397     6.34262
      H   31    0.21808      0.00000     0.77966    0.00226     0.78192
      H   32    0.21934      0.00000     0.77942    0.00124     0.78066
      H   33    0.22166      0.00000     0.77716    0.00118     0.77834
      H   34    0.22170      0.00000     0.77707    0.00123     0.77830
      H   35    0.21942      0.00000     0.77867    0.00191     0.78058
      C   36   -0.18755      1.99910     4.17294    0.01551     6.18755
      C   37   -0.19781      1.99920     4.18406    0.01456     6.19781
      C   38   -0.18100      1.99920     4.16715    0.01465     6.18100
      C   39   -0.19683      1.99920     4.18285    0.01479     6.19683
      C   40   -0.19715      1.99909     4.18241    0.01565     6.19715
      C   41   -0.34264      1.99897     4.31912    0.02454     6.34264
      H   42    0.22354      0.00000     0.77453    0.00193     0.77646
      H   43    0.21973      0.00000     0.77903    0.00124     0.78027
      H   44    0.22125      0.00000     0.77756    0.00118     0.77875
      H   45    0.22090      0.00000     0.77785    0.00124     0.77910
      H   46    0.21805      0.00000     0.77999    0.00195     0.78195
      C   47   -0.80050      1.99901     4.77606    0.02542     6.80050
     Rh   48   -0.37600     35.98586     9.36164    0.02850    45.37600
      C   49   -0.18000      1.99906     4.16140    0.01953     6.18000
      C   50   -0.15988      1.99907     4.14102    0.01979     6.15988
      C   51   -0.17865      1.99906     4.16000    0.01958     6.17865
      C   52   -0.16253      1.99907     4.14366    0.01980     6.16253
      C   53   -0.42238      1.99936     4.41126    0.01176     6.42238
      H   54    0.22695      0.00000     0.77107    0.00198     0.77305
      H   55    0.22947      0.00000     0.76834    0.00219     0.77053
      C   56   -0.41731      1.99935     4.40540    0.01256     6.41731
      C   57   -0.42248      1.99936     4.41134    0.01177     6.42248
      H   58    0.22585      0.00000     0.77216    0.00199     0.77415
      C   59   -0.41734      1.99935     4.40541    0.01258     6.41734
      H   60    0.22694      0.00000     0.77088    0.00218     0.77306
      H   61    0.22662      0.00000     0.77189    0.00149     0.77338
      H   62    0.21310      0.00000     0.78490    0.00200     0.78690
      H   63    0.23102      0.00000     0.76705    0.00193     0.76898
      H   64    0.21530      0.00000     0.78318    0.00153     0.78470
      H   65    0.21324      0.00000     0.78476    0.00200     0.78676
      H   66    0.22618      0.00000     0.77232    0.00150     0.77382
      H   67    0.21550      0.00000     0.78297    0.00154     0.78450
      H   68    0.23093      0.00000     0.76714    0.00194     0.76907
      C   69    0.30327      1.99892     3.67519    0.02263     5.69673
      C   70   -0.65490      1.99936     4.64647    0.00907     6.65490
      H   71    0.24157      0.00000     0.75701    0.00142     0.75843
      H   72    0.23406      0.00000     0.76357    0.00237     0.76594
      H   73    0.24105      0.00000     0.75757    0.00138     0.75895
      N   74   -0.53674      1.99941     5.51932    0.01801     7.53674
      H   75    0.41014      0.00000     0.58672    0.00314     0.58986
      C   76    0.10826      1.99889     3.87571    0.01714     5.89174
      C   77   -0.21590      1.99908     4.20306    0.01377     6.21590
      C   78   -0.21573      1.99909     4.20219    0.01446     6.21573
      C   79   -0.18774      1.99922     4.17361    0.01492     6.18774
      H   80    0.21392      0.00000     0.78441    0.00167     0.78608
      C   81   -0.18545      1.99922     4.17146    0.01477     6.18545
      H   82    0.21674      0.00000     0.78142    0.00184     0.78326
      C   83   -0.19587      1.99921     4.18188    0.01479     6.19587
      H   84    0.22070      0.00000     0.77814    0.00117     0.77930
      H   85    0.22097      0.00000     0.77786    0.00117     0.77903
      H   86    0.22201      0.00000     0.77684    0.00115     0.77799
 =======================================================================
   * Total *    1.00000    139.94249   227.15740    0.90011   368.00000

 Normal termination of Gaussian 16 at Sun Jan 19 23:46:38 2025.
