 Gaussian 16, Revision B.01,
 Gaussian 16:  ES64L-G16RevB.01 20-Dec-2017

 ------------------------------------------
 # nmr=giao b3lyp/genecp pop=nbo scfcyc=200
 ------------------------------------------

 ---------
 DS-26_SPE
 ---------
 Symbolic Z-matrix:
 Charge =  1 Multiplicity = 1

                         Standard orientation:
 ---------------------------------------------------------------------
 Center     Atomic      Atomic             Coordinates (Angstroms)
 Number     Number       Type             X           Y           Z
 ---------------------------------------------------------------------
      1         15           0       -0.402251    1.410580   -0.170860
      2         15           0       -0.086459   -1.349260    0.131480
      3          6           0        0.740081   -1.331450    2.827690
      4          6           0        0.875871   -1.875070    4.099850
      5          6           0        0.537582   -3.204630    4.333650
      6          6           0        0.056323   -3.986560    3.289080
      7          6           0       -0.083278   -3.446140    2.014560
      8          6           0        0.271692   -2.115450    1.769160
      9          1           0        1.004960   -0.294829    2.662280
     10          1           0        1.247881   -1.258759    4.908970
     11          1           0        0.646202   -3.627620    5.324290
     12          1           0       -0.210897   -5.021490    3.462800
     13          1           0       -0.459667   -4.070930    1.214690
     14          6           0        1.222632   -3.615769   -1.025160
     15          6           0        1.442353   -4.520169   -2.057890
     16          6           0        0.724393   -4.419740   -3.245460
     17          6           0       -0.220428   -3.410410   -3.400530
     18          6           0       -0.452768   -2.511310   -2.366000
     19          6           0        0.268492   -2.604710   -1.170250
     20          1           0        1.799872   -3.699239   -0.115050
     21          1           0        2.181064   -5.302029   -1.934170
     22          1           0        0.899033   -5.127279   -4.046370
     23          1           0       -0.784378   -3.329301   -4.321430
     24          1           0       -1.200059   -1.735231   -2.481720
     25          6           0        0.165599    1.768590   -2.915290
     26          6           0        0.065669    2.421540   -4.138520
     27          6           0       -0.578542    3.651710   -4.226470
     28          6           0       -1.127082    4.225729   -3.084470
     29          6           0       -1.030122    3.576419   -1.858080
     30          6           0       -0.370711    2.345780   -1.760460
     31          1           0        0.664800    0.809580   -2.863170
     32          1           0        0.492339    1.967730   -5.024380
     33          1           0       -0.653422    4.159530   -5.179650
     34          1           0       -1.631693    5.181939   -3.144820
     35          1           0       -1.462542    4.039139   -0.979930
     36          6           0       -0.721901    2.349979    2.432710
     37          6           0       -0.539972    3.212270    3.508630
     38          6           0        0.199577    4.379150    3.348830
     39          6           0        0.757787    4.680190    2.109970
     40          6           0        0.585458    3.816090    1.034580
     41          6           0       -0.154501    2.639230    1.187000
     42          1           0       -1.311841    1.449609    2.555610
     43          1           0       -0.984772    2.977099    4.467520
     44          1           0        0.335097    5.055450    4.183440
     45          1           0        1.327477    5.591621    1.978270
     46          1           0        1.019258    4.073261    0.077760
     47          6           0        0.977360    0.156721   -0.137270
     48         45           0       -2.109980   -0.171581    0.051720
     49          6           0       -3.922811    1.145317    0.548650
     50          6           0       -3.814490    1.029048   -0.819880
     51          6           0       -3.626279   -1.855412   -0.323350
     52          6           0       -3.447539   -1.707382    1.034380
     53          6           0       -4.898500    0.381957    1.424980
     54          1           0       -3.476311    2.023118    1.002770
     55          1           0       -3.316811    1.834208   -1.349970
     56          6           0       -4.577640    0.080957   -1.712230
     57          6           0       -4.804179   -1.327733   -1.121380
     58          1           0       -3.033738   -2.618992   -0.814900
     59          6           0       -4.330689   -0.939493    1.987070
     60          1           0       -2.750148   -2.381192    1.520830
     61          1           0       -5.181100    1.019297    2.264670
     62          1           0       -5.818020    0.194146    0.871030
     63          1           0       -5.543130    0.527766   -1.981450
     64          1           0       -4.022420   -0.008583   -2.648570
     65          1           0       -5.700589   -1.339184   -0.501550
     66          1           0       -5.001329   -2.017663   -1.943720
     67          1           0       -3.741669   -0.724742    2.881460
     68          1           0       -5.154639   -1.582363    2.321890
     69          6           0        2.296130    0.296341   -0.392230
     70          6           0        3.252571   -0.851098   -0.403810
     71          6           0        3.872591   -1.213698   -1.605890
     72          6           0        3.613111   -1.521548    0.767500
     73          6           0        4.807482   -2.239967   -1.638270
     74          1           0        3.611781   -0.702408   -2.524600
     75          6           0        4.563662   -2.537627    0.735630
     76          1           0        3.168701   -1.237278    1.710480
     77          6           0        5.159062   -2.903457   -0.466130
     78          1           0        5.267482   -2.516637   -2.578650
     79          1           0        4.842882   -3.036957    1.655150
     80          1           0        5.899612   -3.693026   -0.489060
     81          6           0        2.935409    1.627402   -0.709930
     82          1           0        3.486629    1.518522   -1.650310
     83          1           0        2.179539    2.391141   -0.878850
     84          6           0        3.920939    2.101162    0.376390
     85          1           0        4.668849    1.324733    0.555100
     86          1           0        3.379359    2.238362    1.317580
     87          6           0        4.625318    3.405653   -0.005730
     88          1           0        5.163538    3.260413   -0.948130
     89          1           0        3.877498    4.182202   -0.199320
     90          6           0        5.598278    3.890903    1.068790
     91          1           0        6.381078    3.151994    1.256080
     92          1           0        6.085937    4.820034    0.768640
     93          1           0        5.084108    4.076303    2.015240
 ---------------------------------------------------------------------

 SCF Done:  E(RB3LYP) =  -2498.13762931     A.U. after   16 cycles

      1  P    Isotropic =   288.4766   Anisotropy =    72.0002

      2  P    Isotropic =   286.2964   Anisotropy =    78.7914

      3  C    Isotropic =    47.0925   Anisotropy =   191.0823

      4  C    Isotropic =    49.1284   Anisotropy =   189.2378

      5  C    Isotropic =    47.3294   Anisotropy =   194.3281

      6  C    Isotropic =    49.0306   Anisotropy =   189.7929

      7  C    Isotropic =    49.3745   Anisotropy =   189.3561

      8  C    Isotropic =    41.2411   Anisotropy =   176.0437

      9  H    Isotropic =    23.9260   Anisotropy =     8.8090

     10  H    Isotropic =    24.0396   Anisotropy =     7.3610

     11  H    Isotropic =    24.0489   Anisotropy =     3.4862

     12  H    Isotropic =    24.2474   Anisotropy =     5.8042

     13  H    Isotropic =    24.7193   Anisotropy =    10.9897

     14  C    Isotropic =    45.9397   Anisotropy =   197.7075

     15  C    Isotropic =    50.1725   Anisotropy =   188.4960

     16  C    Isotropic =    46.0809   Anisotropy =   196.4755

     17  C    Isotropic =    49.7011   Anisotropy =   186.7499

     18  C    Isotropic =    42.1280   Anisotropy =   180.6232

     19  C    Isotropic =    48.3729   Anisotropy =   167.5800

     20  H    Isotropic =    25.6796   Anisotropy =     7.1203

     21  H    Isotropic =    24.8569   Anisotropy =     6.8349

     22  H    Isotropic =    24.2241   Anisotropy =     3.6046

     23  H    Isotropic =    24.1562   Anisotropy =     6.9367

     24  H    Isotropic =    23.5152   Anisotropy =     9.9564

     25  C    Isotropic =    48.8653   Anisotropy =   189.0305

     26  C    Isotropic =    48.8029   Anisotropy =   189.2714

     27  C    Isotropic =    46.8154   Anisotropy =   194.7465

     28  C    Isotropic =    48.3690   Anisotropy =   190.5062

     29  C    Isotropic =    48.6105   Anisotropy =   189.0329

     30  C    Isotropic =    45.0909   Anisotropy =   169.4968

     31  H    Isotropic =    24.0376   Anisotropy =     9.3452

     32  H    Isotropic =    24.0679   Anisotropy =     7.0292

     33  H    Isotropic =    24.0237   Anisotropy =     3.5038

     34  H    Isotropic =    24.0969   Anisotropy =     6.1521

     35  H    Isotropic =    24.4374   Anisotropy =    11.1204

     36  C    Isotropic =    40.5912   Anisotropy =   182.1835

     37  C    Isotropic =    48.9629   Anisotropy =   187.5125

     38  C    Isotropic =    45.2647   Anisotropy =   196.5937

     39  C    Isotropic =    48.7732   Anisotropy =   189.3169

     40  C    Isotropic =    46.5540   Anisotropy =   189.5667

     41  C    Isotropic =    45.4880   Anisotropy =   171.4178

     42  H    Isotropic =    23.1386   Anisotropy =     9.7409

     43  H    Isotropic =    23.9287   Anisotropy =     6.8974

     44  H    Isotropic =    23.8887   Anisotropy =     3.6727

     45  H    Isotropic =    24.1029   Anisotropy =     6.2038

     46  H    Isotropic =    24.0324   Anisotropy =    10.3256

     47  C    Isotropic =    34.2675   Anisotropy =    47.4282

     48  Rh   Isotropic =  -294.3020   Anisotropy =   314.8108

     49  C    Isotropic =    78.9447   Anisotropy =   121.3180

     50  C    Isotropic =    72.4214   Anisotropy =   123.1161

     51  C    Isotropic =    77.8912   Anisotropy =   122.5861

     52  C    Isotropic =    72.4744   Anisotropy =   123.2037

     53  C    Isotropic =   154.1053   Anisotropy =    24.7993

     54  H    Isotropic =    27.0320   Anisotropy =     5.4379

     55  H    Isotropic =    26.9406   Anisotropy =     4.8630

     56  C    Isotropic =   148.4792   Anisotropy =    28.7911

     57  C    Isotropic =   154.1556   Anisotropy =    24.9162

     58  H    Isotropic =    27.1167   Anisotropy =     5.2976

     59  C    Isotropic =   148.5241   Anisotropy =    28.5909

     60  H    Isotropic =    27.0181   Anisotropy =     4.5363

     61  H    Isotropic =    29.9518   Anisotropy =    11.3721

     62  H    Isotropic =    29.8691   Anisotropy =    10.1153

     63  H    Isotropic =    29.3724   Anisotropy =    12.7073

     64  H    Isotropic =    29.4551   Anisotropy =     6.8287

     65  H    Isotropic =    29.8701   Anisotropy =    10.1214

     66  H    Isotropic =    29.9847   Anisotropy =    11.4380

     67  H    Isotropic =    29.5024   Anisotropy =     6.8045

     68  H    Isotropic =    29.3892   Anisotropy =    12.7163

     69  C    Isotropic =    -8.4717   Anisotropy =   206.7232

     70  C    Isotropic =    38.5026   Anisotropy =   173.8843

     71  C    Isotropic =    53.2480   Anisotropy =   181.2368

     72  C    Isotropic =    50.4995   Anisotropy =   181.9266

     73  C    Isotropic =    49.4740   Anisotropy =   193.1469

     74  H    Isotropic =    25.3160   Anisotropy =     8.0167

     75  C    Isotropic =    50.8754   Anisotropy =   189.8486

     76  H    Isotropic =    25.0587   Anisotropy =     6.8023

     77  C    Isotropic =    48.7179   Anisotropy =   194.2372

     78  H    Isotropic =    24.5819   Anisotropy =     4.8105

     79  H    Isotropic =    24.7651   Anisotropy =     7.6002

     80  H    Isotropic =    24.3893   Anisotropy =     3.4655

     81  C    Isotropic =   136.1470   Anisotropy =    27.4329

     82  H    Isotropic =    29.9426   Anisotropy =     4.0935

     83  H    Isotropic =    29.2673   Anisotropy =     8.7496

     84  C    Isotropic =   149.8659   Anisotropy =    35.1999

     85  H    Isotropic =    31.1758   Anisotropy =     7.9757

     86  H    Isotropic =    31.4219   Anisotropy =     4.0472

     87  C    Isotropic =   156.4467   Anisotropy =    26.3720

     88  H    Isotropic =    30.9984   Anisotropy =     6.8334

     89  H    Isotropic =    30.8849   Anisotropy =     4.4501

     90  C    Isotropic =   169.5036   Anisotropy =    30.0450

     91  H    Isotropic =    31.4067   Anisotropy =     9.2021

     92  H    Isotropic =    30.8824   Anisotropy =    12.3577

     93  H    Isotropic =    31.4363   Anisotropy =     7.4900

 The electronic state is 1-A.
 Alpha  occ. eigenvalues --  -77.23369 -77.23255 -10.31462 -10.29727 -10.29329
 Alpha  occ. eigenvalues --  -10.29318 -10.29204 -10.28921 -10.28279 -10.28265
 Alpha  occ. eigenvalues --  -10.28253 -10.28055 -10.28053 -10.28051 -10.28006
 Alpha  occ. eigenvalues --  -10.27912 -10.27868 -10.27767 -10.27761 -10.27680
 Alpha  occ. eigenvalues --  -10.27458 -10.27450 -10.27373 -10.27351 -10.27266
 Alpha  occ. eigenvalues --  -10.27251 -10.27216 -10.27175 -10.27133 -10.27102
 Alpha  occ. eigenvalues --  -10.27063 -10.27062 -10.26978 -10.26915 -10.26864
 Alpha  occ. eigenvalues --  -10.26855 -10.26846 -10.26770 -10.26652 -10.26646
 Alpha  occ. eigenvalues --  -10.26444 -10.26423 -10.26328 -10.25403 -10.24491
 Alpha  occ. eigenvalues --  -10.22887  -6.69281  -6.69166  -4.85561  -4.85512
 Alpha  occ. eigenvalues --   -4.85450  -4.85393  -4.85191  -4.85079  -3.30635
 Alpha  occ. eigenvalues --   -2.07540  -2.06856  -2.04116  -0.96767  -0.96319
 Alpha  occ. eigenvalues --   -0.96001  -0.95829  -0.95554  -0.93694  -0.92317
 Alpha  occ. eigenvalues --   -0.88421  -0.88301  -0.87314  -0.86959  -0.86585
 Alpha  occ. eigenvalues --   -0.85118  -0.84988  -0.84892  -0.84698  -0.84624
 Alpha  occ. eigenvalues --   -0.84348  -0.84047  -0.83376  -0.81559  -0.79623
 Alpha  occ. eigenvalues --   -0.77124  -0.76712  -0.75290  -0.72184  -0.71221
 Alpha  occ. eigenvalues --   -0.70959  -0.70822  -0.70467  -0.70322  -0.69965
 Alpha  occ. eigenvalues --   -0.69858  -0.69841  -0.69694  -0.67884  -0.66699
 Alpha  occ. eigenvalues --   -0.66295  -0.65112  -0.63506  -0.62138  -0.61990
 Alpha  occ. eigenvalues --   -0.61747  -0.61534  -0.60275  -0.59276  -0.58585
 Alpha  occ. eigenvalues --   -0.57126  -0.56357  -0.55959  -0.55795  -0.55705
 Alpha  occ. eigenvalues --   -0.55549  -0.55494  -0.55303  -0.55149  -0.55037
 Alpha  occ. eigenvalues --   -0.54896  -0.54624  -0.54243  -0.53452  -0.52976
 Alpha  occ. eigenvalues --   -0.52684  -0.52497  -0.52443  -0.52242  -0.52094
 Alpha  occ. eigenvalues --   -0.51919  -0.51882  -0.51529  -0.51407  -0.50873
 Alpha  occ. eigenvalues --   -0.50829  -0.49381  -0.48528  -0.48163  -0.47948
 Alpha  occ. eigenvalues --   -0.47437  -0.47314  -0.47025  -0.46971  -0.46529
 Alpha  occ. eigenvalues --   -0.46123  -0.45787  -0.45610  -0.45323  -0.45054
 Alpha  occ. eigenvalues --   -0.44882  -0.44692  -0.44642  -0.44490  -0.44325
 Alpha  occ. eigenvalues --   -0.43888  -0.43633  -0.43431  -0.42947  -0.42734
 Alpha  occ. eigenvalues --   -0.42519  -0.42280  -0.41950  -0.40949  -0.40752
 Alpha  occ. eigenvalues --   -0.40578  -0.38129  -0.37496  -0.37102  -0.36447
 Alpha  occ. eigenvalues --   -0.35974  -0.35716  -0.35641  -0.35572  -0.35359
 Alpha  occ. eigenvalues --   -0.35276  -0.34643  -0.34371  -0.33989  -0.33659
 Alpha  occ. eigenvalues --   -0.33289  -0.32837  -0.29773
 Alpha virt. eigenvalues --   -0.17092  -0.14306  -0.13700  -0.13355  -0.12425
 Alpha virt. eigenvalues --   -0.11807  -0.11558  -0.11183  -0.10787  -0.10460
 Alpha virt. eigenvalues --   -0.10146  -0.09811  -0.09345  -0.08586  -0.06998

 Mulliken charges:
               1
     1  P    0.415701
     2  P    0.427234
     3  C   -0.187421
     4  C   -0.091342
     5  C   -0.102818
     6  C   -0.081393
     7  C   -0.167379
     8  C   -0.037408
     9  H    0.190395
    10  H    0.129082
    11  H    0.136030
    12  H    0.134160
    13  H    0.166589
    14  C   -0.026972
    15  C   -0.117422
    16  C   -0.083002
    17  C   -0.107342
    18  C   -0.081256
    19  C   -0.247233
    20  H    0.193599
    21  H    0.129461
    22  H    0.134195
    23  H    0.127516
    24  H    0.189022
    25  C   -0.072764
    26  C   -0.103046
    27  C   -0.098766
    28  C   -0.086646
    29  C   -0.135548
    30  C   -0.156265
    31  H    0.172568
    32  H    0.128879
    33  H    0.136545
    34  H    0.134601
    35  H    0.164631
    36  C   -0.096833
    37  C   -0.096196
    38  C   -0.091944
    39  C   -0.099143
    40  C   -0.094008
    41  C   -0.205784
    42  H    0.195692
    43  H    0.130375
    44  H    0.136965
    45  H    0.133917
    46  H    0.170701
    47  C   -0.613025
    48  Rh  -0.720231
    49  C   -0.032122
    50  C   -0.102564
    51  C   -0.034333
    52  C   -0.106682
    53  C   -0.346606
    54  H    0.195785
    55  H    0.212169
    56  C   -0.230297
    57  C   -0.343894
    58  H    0.203685
    59  C   -0.231055
    60  H    0.210350
    61  H    0.166242
    62  H    0.165917
    63  H    0.169781
    64  H    0.132036
    65  H    0.165554
    66  H    0.166556
    67  H    0.133004
    68  H    0.170041
    69  C    0.213201
    70  C   -0.105299
    71  C   -0.052778
    72  C   -0.071080
    73  C   -0.119398
    74  H    0.126239
    75  C   -0.146385
    76  H    0.143015
    77  C   -0.077218
    78  H    0.124858
    79  H    0.125349
    80  H    0.134656
    81  C   -0.192576
    82  H    0.157997
    83  H    0.141670
    84  C   -0.250032
    85  H    0.153244
    86  H    0.125600
    87  C   -0.209969
    88  H    0.117831
    89  H    0.103512
    90  C   -0.351113
    91  H    0.119953
    92  H    0.137680
    93  H    0.110803
 Sum of Mulliken charges =   1.00000

 Dipole moment (field-independent basis, Debye):
    X=             -0.8002    Y=             -0.2021    Z=             -0.1886  Tot=              0.8466
 Quadrupole moment (field-independent basis, Debye-Ang):
   XX=           -254.8430   YY=           -246.5712   ZZ=           -253.5592
   XY=             -6.0904   XZ=             -1.9215   YZ=              0.6711

 Summary of Natural Population Analysis:

                                       Natural Population
                Natural  -----------------------------------------------
    Atom  No    Charge         Core      Valence    Rydberg      Total
 -----------------------------------------------------------------------
      P    1    1.12267      9.99617     3.82588    0.05528    13.87733
      P    2    1.13270      9.99617     3.81605    0.05509    13.86730
      C    3   -0.20463      1.99909     4.18978    0.01576     6.20463
      C    4   -0.19335      1.99919     4.17933    0.01482     6.19335
      C    5   -0.18667      1.99920     4.17272    0.01474     6.18667
      C    6   -0.19024      1.99920     4.17636    0.01469     6.19024
      C    7   -0.20648      1.99909     4.19247    0.01492     6.20648
      C    8   -0.33029      1.99897     4.30776    0.02356     6.33029
      H    9    0.21896      0.00000     0.77855    0.00249     0.78104
      H   10    0.22007      0.00000     0.77865    0.00128     0.77993
      H   11    0.22194      0.00000     0.77689    0.00117     0.77806
      H   12    0.22197      0.00000     0.77680    0.00123     0.77803
      H   13    0.22144      0.00000     0.77679    0.00177     0.77856
      C   14   -0.18331      1.99909     4.16658    0.01764     6.18331
      C   15   -0.19462      1.99920     4.18010    0.01532     6.19462
      C   16   -0.17689      1.99920     4.16291    0.01477     6.17689
      C   17   -0.20127      1.99919     4.18730    0.01478     6.20127
      C   18   -0.18906      1.99911     4.17416    0.01579     6.18906
      C   19   -0.34643      1.99897     4.32205    0.02541     6.34643
      H   20    0.22720      0.00000     0.77032    0.00248     0.77280
      H   21    0.22137      0.00000     0.77726    0.00137     0.77863
      H   22    0.22099      0.00000     0.77788    0.00113     0.77901
      H   23    0.21961      0.00000     0.77917    0.00122     0.78039
      H   24    0.22259      0.00000     0.77547    0.00194     0.77741
      C   25   -0.19775      1.99909     4.18297    0.01569     6.19775
      C   26   -0.19129      1.99920     4.17715    0.01494     6.19129
      C   27   -0.18470      1.99920     4.17077    0.01472     6.18470
      C   28   -0.19086      1.99920     4.17696    0.01471     6.19086
      C   29   -0.20750      1.99909     4.19327    0.01514     6.20750
      C   30   -0.33871      1.99898     4.31664    0.02309     6.33871
      H   31    0.21688      0.00000     0.78059    0.00253     0.78312
      H   32    0.22006      0.00000     0.77867    0.00126     0.77994
      H   33    0.22238      0.00000     0.77645    0.00117     0.77762
      H   34    0.22236      0.00000     0.77641    0.00123     0.77764
      H   35    0.22059      0.00000     0.77758    0.00183     0.77941
      C   36   -0.18929      1.99911     4.17424    0.01594     6.18929
      C   37   -0.19792      1.99919     4.18402    0.01470     6.19792
      C   38   -0.17674      1.99920     4.16293    0.01460     6.17674
      C   39   -0.19446      1.99919     4.18013    0.01514     6.19446
      C   40   -0.19494      1.99909     4.17853    0.01733     6.19494
      C   41   -0.34298      1.99897     4.31896    0.02505     6.34298
      H   42    0.22511      0.00000     0.77290    0.00199     0.77489
      H   43    0.22070      0.00000     0.77807    0.00123     0.77930
      H   44    0.22258      0.00000     0.77628    0.00114     0.77742
      H   45    0.22238      0.00000     0.77634    0.00128     0.77762
      H   46    0.21888      0.00000     0.77870    0.00242     0.78112
      C   47   -0.62530      1.99889     4.60032    0.02609     6.62530
     Rh   48   -0.39198     35.98619     9.37809    0.02770    45.39198
      C   49   -0.18123      1.99907     4.16248    0.01968     6.18123
      C   50   -0.16095      1.99908     4.14206    0.01982     6.16095
      C   51   -0.17975      1.99907     4.16099    0.01969     6.17975
      C   52   -0.16111      1.99908     4.14224    0.01979     6.16111
      C   53   -0.42276      1.99936     4.41162    0.01178     6.42276
      H   54    0.22636      0.00000     0.77167    0.00197     0.77364
      H   55    0.22987      0.00000     0.76799    0.00214     0.77013
      C   56   -0.41761      1.99935     4.40572    0.01254     6.41761
      C   57   -0.42305      1.99936     4.41191    0.01179     6.42305
      H   58    0.22782      0.00000     0.77015    0.00203     0.77218
      C   59   -0.41777      1.99935     4.40588    0.01254     6.41777
      H   60    0.22981      0.00000     0.76805    0.00214     0.77019
      H   61    0.22688      0.00000     0.77163    0.00148     0.77312
      H   62    0.21400      0.00000     0.78403    0.00197     0.78600
      H   63    0.23229      0.00000     0.76580    0.00191     0.76771
      H   64    0.21617      0.00000     0.78230    0.00153     0.78383
      H   65    0.21398      0.00000     0.78404    0.00198     0.78602
      H   66    0.22701      0.00000     0.77150    0.00149     0.77299
      H   67    0.21602      0.00000     0.78244    0.00153     0.78398
      H   68    0.23242      0.00000     0.76567    0.00191     0.76758
      C   69    0.12699      1.99889     3.84876    0.02535     5.87301
      C   70   -0.09242      1.99899     4.07074    0.02269     6.09242
      C   71   -0.18983      1.99907     4.17570    0.01505     6.18983
      C   72   -0.19706      1.99907     4.18298    0.01501     6.19706
      C   73   -0.19114      1.99920     4.17680    0.01514     6.19114
      H   74    0.21039      0.00000     0.78770    0.00190     0.78961
      C   75   -0.19814      1.99920     4.18377    0.01517     6.19814
      H   76    0.21896      0.00000     0.77847    0.00257     0.78104
      C   77   -0.19352      1.99920     4.17941    0.01491     6.19352
      H   78    0.21982      0.00000     0.77884    0.00133     0.78018
      H   79    0.21990      0.00000     0.77877    0.00133     0.78010
      H   80    0.21999      0.00000     0.77890    0.00111     0.78001
      C   81   -0.43100      1.99931     4.41933    0.01235     6.43100
      H   82    0.22429      0.00000     0.77338    0.00233     0.77571
      H   83    0.21060      0.00000     0.78673    0.00267     0.78940
      C   84   -0.37296      1.99940     4.36353    0.01002     6.37296
      H   85    0.20554      0.00000     0.79253    0.00193     0.79446
      H   86    0.19608      0.00000     0.80143    0.00249     0.80392
      C   87   -0.37654      1.99945     4.36692    0.01017     6.37654
      H   88    0.19595      0.00000     0.80237    0.00168     0.80405
      H   89    0.18572      0.00000     0.81237    0.00190     0.81428
      C   90   -0.58773      1.99947     4.58191    0.00635     6.58773
      H   91    0.20187      0.00000     0.79680    0.00132     0.79813
      H   92    0.21249      0.00000     0.78645    0.00107     0.78751
      H   93    0.19758      0.00000     0.80101    0.00141     0.80242
 =======================================================================
   * Total *    1.00000    143.94144   239.12201    0.93655   384.00000

 Normal termination of Gaussian 16 at Mon Jan 20 00:05:41 2025.
