 Gaussian 16, Revision B.01,
 Gaussian 16:  ES64L-G16RevB.01 20-Dec-2017

 ------------------------------------------
 # nmr=giao b3lyp/genecp pop=nbo scfcyc=200
 ------------------------------------------

 ---------
 DS-24_SPE
 ---------
 Symbolic Z-matrix:
 Charge =  1 Multiplicity = 1

                         Standard orientation:
 ---------------------------------------------------------------------
 Center     Atomic      Atomic             Coordinates (Angstroms)
 Number     Number       Type             X           Y           Z
 ---------------------------------------------------------------------
      1         15           0        0.416259   -1.402451    0.074500
      2         15           0        0.410821    1.411229    0.045740
      3          7           0       -3.177780    0.004601    0.843420
      4          6           0       -0.278551   -2.420460   -1.298500
      5          6           0        0.149099   -2.172330   -2.605500
      6          6           0       -0.392791   -2.884890   -3.670110
      7          6           0       -1.364482   -3.852690   -3.437210
      8          6           0       -1.795322   -4.105469   -2.137740
      9          6           0       -1.256342   -3.394560   -1.071120
     10          6           0        0.408039   -2.530051    1.532060
     11          6           0        1.062198   -3.764351    1.433400
     12          6           0        1.140438   -4.606811    2.535320
     13          6           0        0.572218   -4.226531    3.748400
     14          6           0       -0.076521   -3.001600    3.853220
     15          6           0       -0.155601   -2.154210    2.751770
     16          6           0       -0.270339    2.383290   -1.365890
     17          6           0       -1.333608    3.276720   -1.195130
     18          6           0       -1.856828    3.956891   -2.288680
     19          6           0       -1.324708    3.754220   -3.559590
     20          6           0       -0.267529    2.868170   -3.735990
     21          6           0        0.258291    2.185259   -2.643580
     22          6           0        0.371061    2.579929    1.470550
     23          6           0       -0.077959    2.177150    2.729300
     24          6           0       -0.015178    3.050820    3.810500
     25          6           0        0.504792    4.329999    3.647190
     26          6           0        0.961052    4.736389    2.396340
     27          6           0        0.897982    3.867589    1.313420
     28          6           0       -0.703610    0.004840    0.378340
     29          6           0       -2.022800    0.003931    0.559640
     30          1           0        0.907029   -1.420091   -2.787930
     31          1           0       -0.051661   -2.689330   -4.679090
     32          1           0       -1.782032   -4.412339   -4.264770
     33          1           0       -2.549012   -4.860739   -1.952870
     34          1           0       -1.590542   -3.609460   -0.064030
     35          1           0        1.497188   -4.081121    0.492750
     36          1           0        1.643047   -5.561801    2.446220
     37          1           0        0.633128   -4.884601    4.605920
     38          1           0       -0.523721   -2.702900    4.793170
     39          1           0       -0.662121   -1.202960    2.843460
     40          1           0       -1.746418    3.454330   -0.209910
     41          1           0       -2.677128    4.649651   -2.147720
     42          1           0       -1.730718    4.290270   -4.408260
     43          1           0        0.152351    2.712830   -4.722000
     44          1           0        1.083531    1.496829   -2.780540
     45          1           0       -0.480739    1.182820    2.866450
     46          1           0       -0.373689    2.730360    4.780800
     47          1           0        0.552833    5.008869    4.489180
     48          1           0        1.364033    5.732429    2.261940
     49          1           0        1.244522    4.203809    0.343570
     50         45           0        2.293570    0.004228   -0.257960
     51          6           0        3.893161    1.435438   -1.005230
     52          6           0        3.868311    1.470968    0.374900
     53          6           0        3.987469   -1.434292    0.215400
     54          6           0        3.734179   -1.474942   -1.140850
     55          6           0        4.915990    0.695467   -1.848530
     56          1           0        3.329221    2.203318   -1.524010
     57          1           0        3.310091    2.275858    0.841200
     58          6           0        4.786130    0.732217    1.317520
     59          6           0        5.142030   -0.701913    0.872910
     60          1           0        3.502519   -2.183182    0.831610
     61          6           0        4.494910   -0.743643   -2.220550
     62          1           0        3.103959   -2.280632   -1.504270
     63          1           0        5.076761    1.256837   -2.770500
     64          1           0        5.876540    0.687687   -1.333630
     65          1           0        5.704461    1.313567    1.469110
     66          1           0        4.294150    0.692508    2.291550
     67          1           0        6.000100   -0.691103    0.200950
     68          1           0        5.455399   -1.268523    1.751320
     69          1           0        3.860300   -0.710872   -3.109160
     70          1           0        5.379489   -1.324933   -2.509650
     71          6           0       -4.506020   -0.004138    0.425090
     72          6           0       -5.491420    0.021782    1.430350
     73          6           0       -4.825780   -0.039088   -0.948040
     74          6           0       -6.824120    0.013513    1.030890
     75          6           0       -6.174870   -0.046497   -1.291820
     76          6           0       -7.164150   -0.020317   -0.316220
     77          1           0       -7.602190    0.033413    1.783640
     78          1           0       -6.450750   -0.073317   -2.338760
     79          1           0       -8.206900   -0.026546   -0.608040
     80          6           0       -3.758480   -0.067889   -2.003690
     81          1           0       -3.115030    0.814271   -1.951110
     82          1           0       -3.113630   -0.944749   -1.902130
     83          1           0       -4.204750   -0.095868   -2.996570
     84          6           0       -5.115890    0.057392    2.886380
     85          1           0       -4.523690   -0.816928    3.165900
     86          1           0       -4.517500    0.940332    3.122030
     87          1           0       -6.007530    0.076023    3.511480
 ---------------------------------------------------------------------

 SCF Done:  E(RB3LYP) =  -2473.64560662     A.U. after   17 cycles

      1  P    Isotropic =   300.8268   Anisotropy =    93.6085

      2  P    Isotropic =   297.8130   Anisotropy =    94.3542

      3  N    Isotropic =    82.7182   Anisotropy =   127.4003

      4  C    Isotropic =    39.6316   Anisotropy =   178.7323

      5  C    Isotropic =    43.2408   Anisotropy =   179.9084

      6  C    Isotropic =    49.5545   Anisotropy =   187.2933

      7  C    Isotropic =    46.0077   Anisotropy =   196.6745

      8  C    Isotropic =    49.1245   Anisotropy =   189.7007

      9  C    Isotropic =    46.7315   Anisotropy =   190.2455

     10  C    Isotropic =    43.7404   Anisotropy =   168.9221

     11  C    Isotropic =    47.9062   Anisotropy =   187.6475

     12  C    Isotropic =    48.5106   Anisotropy =   190.2293

     13  C    Isotropic =    46.8620   Anisotropy =   194.5100

     14  C    Isotropic =    49.3988   Anisotropy =   187.5091

     15  C    Isotropic =    48.2974   Anisotropy =   187.5017

     16  C    Isotropic =    40.3657   Anisotropy =   179.4792

     17  C    Isotropic =    46.6834   Anisotropy =   189.9400

     18  C    Isotropic =    48.9562   Anisotropy =   189.8552

     19  C    Isotropic =    45.7908   Anisotropy =   197.1923

     20  C    Isotropic =    49.5426   Anisotropy =   187.0478

     21  C    Isotropic =    42.8004   Anisotropy =   178.8830

     22  C    Isotropic =    43.0762   Anisotropy =   169.1514

     23  C    Isotropic =    48.1389   Anisotropy =   188.6040

     24  C    Isotropic =    49.5091   Anisotropy =   187.4555

     25  C    Isotropic =    46.8330   Anisotropy =   194.4940

     26  C    Isotropic =    48.5610   Anisotropy =   190.1456

     27  C    Isotropic =    47.7741   Anisotropy =   188.7895

     28  C    Isotropic =   131.7806   Anisotropy =    50.8758

     29  C    Isotropic =    35.9404   Anisotropy =   172.9502

     30  H    Isotropic =    23.2175   Anisotropy =     9.1906

     31  H    Isotropic =    24.0535   Anisotropy =     6.7122

     32  H    Isotropic =    24.1335   Anisotropy =     3.3841

     33  H    Isotropic =    24.5060   Anisotropy =     6.0284

     34  H    Isotropic =    24.8173   Anisotropy =    10.6704

     35  H    Isotropic =    24.8308   Anisotropy =    11.0637

     36  H    Isotropic =    24.2134   Anisotropy =     6.3859

     37  H    Isotropic =    24.0223   Anisotropy =     3.7726

     38  H    Isotropic =    23.8937   Anisotropy =     6.7309

     39  H    Isotropic =    23.3160   Anisotropy =    10.4759

     40  H    Isotropic =    24.7248   Anisotropy =    10.1892

     41  H    Isotropic =    24.4726   Anisotropy =     6.0574

     42  H    Isotropic =    24.0940   Anisotropy =     3.4228

     43  H    Isotropic =    24.0184   Anisotropy =     6.6687

     44  H    Isotropic =    23.0945   Anisotropy =     9.5951

     45  H    Isotropic =    23.3103   Anisotropy =    10.4376

     46  H    Isotropic =    23.9089   Anisotropy =     6.7843

     47  H    Isotropic =    24.0354   Anisotropy =     3.7531

     48  H    Isotropic =    24.2323   Anisotropy =     6.3166

     49  H    Isotropic =    24.8588   Anisotropy =    11.3080

     50  Rh   Isotropic =  -312.3837   Anisotropy =   349.6597

     51  C    Isotropic =    82.2255   Anisotropy =   116.4883

     52  C    Isotropic =    73.1526   Anisotropy =   122.3867

     53  C    Isotropic =    76.0655   Anisotropy =   125.7390

     54  C    Isotropic =    79.8649   Anisotropy =   112.1445

     55  C    Isotropic =   153.8622   Anisotropy =    25.4178

     56  H    Isotropic =    26.8945   Anisotropy =     6.3168

     57  H    Isotropic =    26.9717   Anisotropy =     5.1156

     58  C    Isotropic =   148.1130   Anisotropy =    29.3525

     59  C    Isotropic =   154.1108   Anisotropy =    24.9859

     60  H    Isotropic =    27.2597   Anisotropy =     6.5633

     61  C    Isotropic =   147.5089   Anisotropy =    29.5013

     62  H    Isotropic =    26.3637   Anisotropy =     3.6984

     63  H    Isotropic =    29.7231   Anisotropy =    11.5986

     64  H    Isotropic =    29.7865   Anisotropy =     9.7768

     65  H    Isotropic =    29.4721   Anisotropy =    12.5797

     66  H    Isotropic =    29.6066   Anisotropy =     6.5891

     67  H    Isotropic =    29.9668   Anisotropy =     9.7860

     68  H    Isotropic =    30.1581   Anisotropy =    11.0239

     69  H    Isotropic =    28.8074   Anisotropy =     8.0115

     70  H    Isotropic =    29.0175   Anisotropy =    12.7726

     71  C    Isotropic =    51.8889   Anisotropy =   100.9012

     72  C    Isotropic =    36.8146   Anisotropy =   192.2275

     73  C    Isotropic =    34.5471   Anisotropy =   191.1905

     74  C    Isotropic =    49.8464   Anisotropy =   159.2198

     75  C    Isotropic =    49.9973   Anisotropy =   157.3227

     76  C    Isotropic =    46.0789   Anisotropy =   189.4082

     77  H    Isotropic =    24.6466   Anisotropy =     6.7619

     78  H    Isotropic =    25.0015   Anisotropy =     8.7527

     79  H    Isotropic =    24.5537   Anisotropy =     4.1799

     80  C    Isotropic =   164.1074   Anisotropy =    26.6891

     81  H    Isotropic =    31.5279   Anisotropy =    12.5875

     82  H    Isotropic =    31.6840   Anisotropy =    13.1014

     83  H    Isotropic =    30.7940   Anisotropy =     7.8972

     84  C    Isotropic =   163.0774   Anisotropy =    31.3289

     85  H    Isotropic =    29.2742   Anisotropy =     6.2729

     86  H    Isotropic =    29.2916   Anisotropy =     6.2641

     87  H    Isotropic =    29.7504   Anisotropy =    10.0043

 The electronic state is 1-A.
 Alpha  occ. eigenvalues --  -77.23343 -77.23340 -14.46530 -10.35831 -10.31978
 Alpha  occ. eigenvalues --  -10.28793 -10.28783 -10.28781 -10.28770 -10.28744
 Alpha  occ. eigenvalues --  -10.28490 -10.28250 -10.28217 -10.28217 -10.28106
 Alpha  occ. eigenvalues --  -10.28035 -10.27781 -10.27764 -10.27734 -10.27677
 Alpha  occ. eigenvalues --  -10.27613 -10.27557 -10.27554 -10.27512 -10.27211
 Alpha  occ. eigenvalues --  -10.27176 -10.27136 -10.27111 -10.27110 -10.27066
 Alpha  occ. eigenvalues --  -10.26961 -10.26945 -10.26924 -10.26906 -10.26902
 Alpha  occ. eigenvalues --  -10.26845 -10.26812 -10.26633 -10.26626 -10.26572
 Alpha  occ. eigenvalues --  -10.26479 -10.26135 -10.26008 -10.25668 -10.25324
 Alpha  occ. eigenvalues --   -6.69206  -6.69205  -4.85515  -4.85513  -4.85413
 Alpha  occ. eigenvalues --   -4.85411  -4.85121  -4.85120  -3.30733  -2.07605
 Alpha  occ. eigenvalues --   -2.06992  -2.04188  -1.07969  -0.96342  -0.96088
 Alpha  occ. eigenvalues --   -0.95951  -0.95499  -0.95479  -0.93661  -0.90060
 Alpha  occ. eigenvalues --   -0.88356  -0.88159  -0.87244  -0.86758  -0.86713
 Alpha  occ. eigenvalues --   -0.84829  -0.84771  -0.84748  -0.84568  -0.84303
 Alpha  occ. eigenvalues --   -0.84281  -0.84109  -0.80448  -0.79563  -0.77295
 Alpha  occ. eigenvalues --   -0.77033  -0.75454  -0.75193  -0.72764  -0.70780
 Alpha  occ. eigenvalues --   -0.70623  -0.70452  -0.70409  -0.69796  -0.69675
 Alpha  occ. eigenvalues --   -0.69598  -0.68250  -0.67657  -0.66601  -0.65099
 Alpha  occ. eigenvalues --   -0.64157  -0.62439  -0.61945  -0.61749  -0.61510
 Alpha  occ. eigenvalues --   -0.60014  -0.59261  -0.58353  -0.57146  -0.56518
 Alpha  occ. eigenvalues --   -0.56372  -0.55825  -0.55662  -0.55543  -0.55506
 Alpha  occ. eigenvalues --   -0.55133  -0.55013  -0.54965  -0.54658  -0.53906
 Alpha  occ. eigenvalues --   -0.53405  -0.52879  -0.52458  -0.52298  -0.52111
 Alpha  occ. eigenvalues --   -0.52003  -0.51890  -0.51807  -0.51717  -0.51508
 Alpha  occ. eigenvalues --   -0.50816  -0.50516  -0.50435  -0.50168  -0.49508
 Alpha  occ. eigenvalues --   -0.49059  -0.48405  -0.47719  -0.47683  -0.47276
 Alpha  occ. eigenvalues --   -0.47084  -0.46767  -0.46695  -0.46489  -0.45877
 Alpha  occ. eigenvalues --   -0.45552  -0.45209  -0.44724  -0.44712  -0.44534
 Alpha  occ. eigenvalues --   -0.44471  -0.44447  -0.44111  -0.43993  -0.43270
 Alpha  occ. eigenvalues --   -0.42966  -0.42796  -0.42748  -0.42546  -0.42251
 Alpha  occ. eigenvalues --   -0.40654  -0.37480  -0.36945  -0.36660  -0.35938
 Alpha  occ. eigenvalues --   -0.35815  -0.35611  -0.35438  -0.35142  -0.35045
 Alpha  occ. eigenvalues --   -0.34339  -0.34267  -0.33697  -0.33664  -0.33398
 Alpha  occ. eigenvalues --   -0.33081  -0.32964  -0.29872
 Alpha virt. eigenvalues --   -0.16159  -0.15912  -0.14061  -0.13106  -0.12108
 Alpha virt. eigenvalues --   -0.11931  -0.11607  -0.11265  -0.10663  -0.10261
 Alpha virt. eigenvalues --   -0.09686  -0.09636  -0.08886  -0.08452  -0.07052

 Mulliken charges:
               1
     1  P    0.474271
     2  P    0.474661
     3  N   -0.047004
     4  C   -0.265618
     5  C   -0.042131
     6  C   -0.112774
     7  C   -0.093010
     8  C   -0.093963
     9  C   -0.036652
    10  C   -0.145121
    11  C   -0.137071
    12  C   -0.082407
    13  C   -0.099944
    14  C   -0.113167
    15  C   -0.037006
    16  C   -0.258673
    17  C   -0.055519
    18  C   -0.085464
    19  C   -0.095318
    20  C   -0.114425
    21  C   -0.047400
    22  C   -0.171134
    23  C   -0.030633
    24  C   -0.121421
    25  C   -0.093819
    26  C   -0.089359
    27  C   -0.105203
    28  C   -1.022088
    29  C    0.675138
    30  H    0.146277
    31  H    0.128504
    32  H    0.136900
    33  H    0.133735
    34  H    0.153573
    35  H    0.155707
    36  H    0.133303
    37  H    0.136208
    38  H    0.129037
    39  H    0.123314
    40  H    0.151869
    41  H    0.133874
    42  H    0.136783
    43  H    0.128629
    44  H    0.157281
    45  H    0.122253
    46  H    0.127807
    47  H    0.136429
    48  H    0.133029
    49  H    0.156813
    50  Rh  -0.652044
    51  C   -0.025991
    52  C   -0.112807
    53  C   -0.032973
    54  C   -0.097926
    55  C   -0.344449
    56  H    0.189022
    57  H    0.215395
    58  C   -0.223849
    59  C   -0.351410
    60  H    0.203602
    61  C   -0.225648
    62  H    0.195785
    63  H    0.165607
    64  H    0.167190
    65  H    0.166965
    66  H    0.135894
    67  H    0.164131
    68  H    0.167498
    69  H    0.126315
    70  H    0.169217
    71  C    0.182713
    72  C   -0.030125
    73  C    0.037694
    74  C   -0.141364
    75  C   -0.155548
    76  C   -0.020250
    77  H    0.119292
    78  H    0.115705
    79  H    0.132536
    80  C   -0.543295
    81  H    0.180618
    82  H    0.178954
    83  H    0.148789
    84  C   -0.415997
    85  H    0.137984
    86  H    0.138660
    87  H    0.145042
 Sum of Mulliken charges =   1.00000

 Dipole moment (field-independent basis, Debye):
    X=             -0.6884    Y=             -0.0085    Z=             -0.4451  Tot=              0.8198
 Quadrupole moment (field-independent basis, Debye-Ang):
   XX=           -221.7055   YY=           -249.7645   ZZ=           -244.6403
   XY=             -0.3406   XZ=             -1.6561   YZ=             -0.5658

 Summary of Natural Population Analysis:

                                       Natural Population
                Natural  -----------------------------------------------
    Atom  No    Charge         Core      Valence    Rydberg      Total
 -----------------------------------------------------------------------
      P    1    1.16074      9.99629     3.78825    0.05472    13.83926
      P    2    1.16094      9.99629     3.78799    0.05478    13.83906
      N    3   -0.33945      1.99909     5.32351    0.01685     7.33945
      C    4   -0.34504      1.99899     4.32175    0.02430     6.34504
      C    5   -0.18650      1.99909     4.17204    0.01537     6.18650
      C    6   -0.19748      1.99920     4.18364    0.01464     6.19748
      C    7   -0.18035      1.99920     4.16646    0.01469     6.18035
      C    8   -0.19439      1.99919     4.18054    0.01465     6.19439
      C    9   -0.19445      1.99909     4.17946    0.01590     6.19445
      C   10   -0.34054      1.99899     4.31736    0.02419     6.34054
      C   11   -0.20060      1.99909     4.18629    0.01522     6.20060
      C   12   -0.19130      1.99920     4.17740    0.01470     6.19130
      C   13   -0.18442      1.99920     4.17049    0.01473     6.18442
      C   14   -0.19223      1.99920     4.17840    0.01463     6.19223
      C   15   -0.19452      1.99909     4.17986    0.01558     6.19452
      C   16   -0.34489      1.99899     4.32169    0.02422     6.34489
      C   17   -0.19479      1.99909     4.17981    0.01589     6.19479
      C   18   -0.19467      1.99919     4.18085    0.01462     6.19467
      C   19   -0.17976      1.99920     4.16589    0.01466     6.17976
      C   20   -0.19754      1.99920     4.18372    0.01463     6.19754
      C   21   -0.18526      1.99909     4.17076    0.01540     6.18526
      C   22   -0.34201      1.99899     4.31903    0.02399     6.34201
      C   23   -0.19403      1.99909     4.17933    0.01561     6.19403
      C   24   -0.19233      1.99920     4.17848    0.01465     6.19233
      C   25   -0.18444      1.99920     4.17049    0.01474     6.18444
      C   26   -0.19132      1.99920     4.17737    0.01475     6.19132
      C   27   -0.20201      1.99909     4.18777    0.01515     6.20201
      C   28   -0.92321      1.99885     4.89924    0.02512     6.92321
      C   29    0.50073      1.99883     3.47523    0.02521     5.49927
      H   30    0.21794      0.00000     0.77990    0.00216     0.78206
      H   31    0.21966      0.00000     0.77909    0.00125     0.78034
      H   32    0.22158      0.00000     0.77724    0.00119     0.77842
      H   33    0.22205      0.00000     0.77670    0.00125     0.77795
      H   34    0.22194      0.00000     0.77618    0.00188     0.77806
      H   35    0.21657      0.00000     0.78164    0.00179     0.78343
      H   36    0.22168      0.00000     0.77709    0.00123     0.77832
      H   37    0.22169      0.00000     0.77713    0.00118     0.77831
      H   38    0.21898      0.00000     0.77978    0.00124     0.78102
      H   39    0.21299      0.00000     0.78478    0.00223     0.78701
      H   40    0.22094      0.00000     0.77719    0.00187     0.77906
      H   41    0.22205      0.00000     0.77670    0.00125     0.77795
      H   42    0.22162      0.00000     0.77720    0.00119     0.77838
      H   43    0.21964      0.00000     0.77912    0.00124     0.78036
      H   44    0.21914      0.00000     0.77890    0.00195     0.78086
      H   45    0.21345      0.00000     0.78433    0.00223     0.78655
      H   46    0.21899      0.00000     0.77977    0.00124     0.78101
      H   47    0.22161      0.00000     0.77721    0.00118     0.77839
      H   48    0.22173      0.00000     0.77704    0.00123     0.77827
      H   49    0.21847      0.00000     0.77980    0.00173     0.78153
     Rh   50   -0.38406     35.98559     9.36852    0.02994    45.38406
      C   51   -0.18216      1.99906     4.16356    0.01954     6.18216
      C   52   -0.15256      1.99907     4.13365    0.01984     6.15256
      C   53   -0.16493      1.99906     4.14651    0.01936     6.16493
      C   54   -0.16973      1.99907     4.15069    0.01997     6.16973
      C   55   -0.42255      1.99936     4.41145    0.01174     6.42255
      H   56    0.22495      0.00000     0.77298    0.00207     0.77505
      H   57    0.22979      0.00000     0.76797    0.00223     0.77021
      C   58   -0.41852      1.99935     4.40662    0.01255     6.41852
      C   59   -0.42299      1.99936     4.41184    0.01178     6.42299
      H   60    0.22917      0.00000     0.76851    0.00231     0.77083
      C   61   -0.41815      1.99936     4.40648    0.01231     6.41815
      H   62    0.22580      0.00000     0.77218    0.00202     0.77420
      H   63    0.22639      0.00000     0.77211    0.00150     0.77361
      H   64    0.21429      0.00000     0.78374    0.00197     0.78571
      H   65    0.23148      0.00000     0.76659    0.00193     0.76852
      H   66    0.21921      0.00000     0.77928    0.00151     0.78079
      H   67    0.21264      0.00000     0.78535    0.00201     0.78736
      H   68    0.22831      0.00000     0.77021    0.00148     0.77169
      H   69    0.21478      0.00000     0.78375    0.00147     0.78522
      H   70    0.23165      0.00000     0.76641    0.00194     0.76835
      C   71    0.06769      1.99872     3.91461    0.01898     5.93231
      C   72    0.02994      1.99907     3.95684    0.01415     5.97006
      C   73    0.01932      1.99906     3.96671    0.01491     5.98068
      C   74   -0.20720      1.99912     4.19401    0.01406     6.20720
      C   75   -0.20744      1.99913     4.19381    0.01451     6.20744
      C   76   -0.15693      1.99922     4.14303    0.01469     6.15693
      H   77    0.21819      0.00000     0.78049    0.00132     0.78181
      H   78    0.21662      0.00000     0.78189    0.00149     0.78338
      H   79    0.22122      0.00000     0.77765    0.00113     0.77878
      C   80   -0.62562      1.99941     4.61722    0.00899     6.62562
      H   81    0.22404      0.00000     0.77358    0.00239     0.77596
      H   82    0.22418      0.00000     0.77344    0.00238     0.77582
      H   83    0.22538      0.00000     0.77326    0.00135     0.77462
      C   84   -0.61674      1.99940     4.61002    0.00731     6.61674
      H   85    0.22249      0.00000     0.77612    0.00139     0.77751
      H   86    0.22278      0.00000     0.77582    0.00140     0.77722
      H   87    0.22163      0.00000     0.77718    0.00119     0.77837
 =======================================================================
   * Total *    1.00000    141.94083   231.15395    0.90522   374.00000

 Normal termination of Gaussian 16 at Sun Jan 19 23:55:24 2025.
