 Gaussian 16, Revision B.01,
 Gaussian 16:  ES64L-G16RevB.01 20-Dec-2017

 ------------------------------------------
 # nmr=giao b3lyp/genecp pop=nbo scfcyc=200
 ------------------------------------------

 ---------
 DS-39_SPE
 ---------
 Symbolic Z-matrix:
 Charge =  1 Multiplicity = 1

                         Standard orientation:
 ---------------------------------------------------------------------
 Center     Atomic      Atomic             Coordinates (Angstroms)
 Number     Number       Type             X           Y           Z
 ---------------------------------------------------------------------
      1         15           0       -0.415250   -1.355659   -0.099820
      2         15           0       -0.071299    1.428480   -0.411480
      3          6           0       -1.530849    0.274021    0.167770
      4          6           0       -0.087820   -2.997240   -2.433670
      5          6           0       -0.686170   -3.538809   -3.734080
      6          6           0       -2.149140   -3.210659    1.359710
      7          6           0       -2.210190   -4.418019    2.299120
      8          6           0        0.521781    2.865130   -2.807090
      9          6           0        0.166711    3.171630   -4.264040
     10          6           0       -1.508019    3.829421    0.336470
     11          6           0       -1.514489    5.107301    1.178940
     12          1           0        0.143770   -3.836260   -1.770540
     13          1           0        0.860140   -2.497250   -2.647450
     14          1           0        0.003950   -4.228730   -4.222300
     15          1           0       -0.901850   -2.730769   -4.436900
     16          1           0       -1.618230   -4.077469   -3.548880
     17          1           0       -2.647330   -3.463309    0.420340
     18          1           0       -2.709370   -2.379599    1.794980
     19          1           0       -3.244260   -4.712119    2.485350
     20          1           0       -1.690980   -5.279499    1.873200
     21          1           0       -1.749580   -4.194259    3.264120
     22          1           0        1.535871    2.459100   -2.758960
     23          1           0        0.531521    3.797840   -2.236760
     24          1           0        0.874471    3.881240   -4.695560
     25          1           0        0.187601    2.266620   -4.875480
     26          1           0       -0.831899    3.606481   -4.345140
     27          1           0       -2.366099    3.208001    0.598830
     28          1           0       -1.623259    4.093731   -0.717190
     29          1           0       -2.437079    5.668631    1.022860
     30          1           0       -1.440549    4.881681    2.245430
     31          1           0       -0.679509    5.761881    0.917960
     32         45           0        1.616690   -0.157980   -0.060460
     33          6           0        2.980930   -1.687450    0.970000
     34          6           0        3.075960   -1.854250   -0.394410
     35          6           0        3.521591    1.031100   -0.466950
     36          6           0        3.150201    1.223870    0.847550
     37          6           0        4.001170   -0.984330    1.845590
     38          1           0        2.285370   -2.332200    1.495210
     39          1           0        2.471560   -2.637460   -0.839220
     40          6           0        4.149880   -1.308440   -1.302010
     41          6           0        4.631421    0.114660   -0.946070
     42          1           0        3.197611    1.779910   -1.181310
     43          6           0        3.710161    0.516290    2.056960
     44          1           0        2.600341    2.130010    1.078880
     45          1           0        4.016890   -1.473980    2.820750
     46          1           0        4.997660   -1.122260    1.426840
     47          1           0        5.005180   -1.995480   -1.318100
     48          1           0        3.753130   -1.305810   -2.319770
     49          1           0        5.422030    0.072460   -0.197200
     50          1           0        5.085461    0.556240   -1.834620
     51          1           0        2.990191    0.628800    2.870550
     52          1           0        4.621451    1.026590    2.393320
     53          6           0       -0.706030   -2.774139    1.085570
     54          1           0       -0.198980   -2.517960    2.016590
     55          1           0       -0.139940   -3.606600    0.653630
     56          6           0       -1.032870   -2.012259   -1.735170
     57          1           0       -1.219900   -1.149719   -2.375060
     58          1           0       -2.004780   -2.479399   -1.559580
     59          6           0       -0.463979    1.872351   -2.177780
     60          1           0       -1.484409    2.255971   -2.206570
     61          1           0       -0.460169    0.939971   -2.744100
     62          6           0       -0.216129    3.025940    0.534310
     63          1           0        0.654681    3.622730    0.245290
     64          1           0       -0.077969    2.781110    1.588930
     65          6           0       -4.807970    0.045121   -1.525540
     66          1           0       -4.903669    1.124741   -1.666050
     67          1           0       -4.381070   -0.357739   -2.447850
     68          6           0       -3.850360   -0.211729   -0.377550
     69          1           0       -4.229939    0.204621    0.555490
     70          1           0       -3.688960   -1.284599   -0.232790
     71          8           0       -2.586609    0.422331   -0.701860
     72          6           0       -6.183270   -0.573259   -1.267750
     73          1           0       -6.642770   -0.164559   -0.364900
     74          1           0       -6.857860   -0.371739   -2.100420
     75          1           0       -6.121320   -1.657909   -1.149870
     76          6           0       -1.152689    0.311791    2.615370
     77          1           0       -1.125080   -0.756959    2.841350
     78          1           0       -0.126419    0.638390    2.419930
     79          6           0       -1.757979    1.071721    3.783100
     80          1           0       -2.797189    0.755281    3.901970
     81          1           0       -1.781349    2.137341    3.542100
     82          8           0       -1.982229    0.531561    1.459960
     83          6           0       -0.984539    0.839221    5.081770
     84          1           0        0.054071    1.168880    4.997310
     85          1           0       -1.438079    1.393831    5.903550
     86          1           0       -0.979110   -0.216699    5.362540
 ---------------------------------------------------------------------

 SCF Done:  E(RB3LYP) =  -2005.47607127     A.U. after   15 cycles

      1  P    Isotropic =   255.8856   Anisotropy =    98.5218

      2  P    Isotropic =   259.1023   Anisotropy =    71.9441

      3  C    Isotropic =    43.1918   Anisotropy =    34.2855

      4  C    Isotropic =   160.4632   Anisotropy =    16.7941

      5  C    Isotropic =   167.4239   Anisotropy =    32.2538

      6  C    Isotropic =   160.1611   Anisotropy =    17.3493

      7  C    Isotropic =   167.7869   Anisotropy =    32.2297

      8  C    Isotropic =   162.6872   Anisotropy =    16.1212

      9  C    Isotropic =   167.5213   Anisotropy =    32.3551

     10  C    Isotropic =   162.6653   Anisotropy =    18.1665

     11  C    Isotropic =   167.8449   Anisotropy =    32.3170

     12  H    Isotropic =    30.6049   Anisotropy =     4.9122

     13  H    Isotropic =    30.3893   Anisotropy =     7.7762

     14  H    Isotropic =    30.4308   Anisotropy =    12.2021

     15  H    Isotropic =    30.8818   Anisotropy =     8.2166

     16  H    Isotropic =    30.9460   Anisotropy =     9.4469

     17  H    Isotropic =    30.3100   Anisotropy =     5.0451

     18  H    Isotropic =    30.4136   Anisotropy =     5.9620

     19  H    Isotropic =    30.4333   Anisotropy =    12.0947

     20  H    Isotropic =    30.9855   Anisotropy =     9.6135

     21  H    Isotropic =    30.9637   Anisotropy =     8.5364

     22  H    Isotropic =    30.5602   Anisotropy =     7.2279

     23  H    Isotropic =    30.6772   Anisotropy =     5.5250

     24  H    Isotropic =    30.4583   Anisotropy =    12.3728

     25  H    Isotropic =    30.9265   Anisotropy =     8.3292

     26  H    Isotropic =    30.8637   Anisotropy =     9.3081

     27  H    Isotropic =    30.1758   Anisotropy =     6.5340

     28  H    Isotropic =    30.4124   Anisotropy =     5.3905

     29  H    Isotropic =    30.4971   Anisotropy =    12.3602

     30  H    Isotropic =    30.9747   Anisotropy =     7.9926

     31  H    Isotropic =    31.0402   Anisotropy =     9.6753

     32  Rh   Isotropic =  -276.8360   Anisotropy =   297.4247

     33  C    Isotropic =    77.3763   Anisotropy =   123.3864

     34  C    Isotropic =    78.1244   Anisotropy =   115.3371

     35  C    Isotropic =    80.7961   Anisotropy =   119.6715

     36  C    Isotropic =    77.2835   Anisotropy =   116.5159

     37  C    Isotropic =   153.9554   Anisotropy =    25.3529

     38  H    Isotropic =    26.9584   Anisotropy =     6.3668

     39  H    Isotropic =    26.4687   Anisotropy =     4.7952

     40  C    Isotropic =   148.1062   Anisotropy =    30.0824

     41  C    Isotropic =   154.1419   Anisotropy =    24.8764

     42  H    Isotropic =    27.0526   Anisotropy =     7.3814

     43  C    Isotropic =   146.8296   Anisotropy =    30.0127

     44  H    Isotropic =    26.4963   Anisotropy =     4.2834

     45  H    Isotropic =    29.9232   Anisotropy =    11.2977

     46  H    Isotropic =    29.7480   Anisotropy =     9.6219

     47  H    Isotropic =    29.1073   Anisotropy =    12.7317

     48  H    Isotropic =    29.2513   Anisotropy =     7.7940

     49  H    Isotropic =    29.7759   Anisotropy =     9.6955

     50  H    Isotropic =    29.8613   Anisotropy =    11.7056

     51  H    Isotropic =    29.3334   Anisotropy =     7.5980

     52  H    Isotropic =    29.1416   Anisotropy =    12.6031

     53  C    Isotropic =   148.7045   Anisotropy =    36.1421

     54  H    Isotropic =    30.2474   Anisotropy =     4.1354

     55  H    Isotropic =    30.2035   Anisotropy =     5.0160

     56  C    Isotropic =   153.0388   Anisotropy =    32.5841

     57  H    Isotropic =    30.2835   Anisotropy =     5.3244

     58  H    Isotropic =    30.0791   Anisotropy =     5.4581

     59  C    Isotropic =   152.9425   Anisotropy =    28.4692

     60  H    Isotropic =    29.3940   Anisotropy =     4.7730

     61  H    Isotropic =    30.5148   Anisotropy =     5.5690

     62  C    Isotropic =   153.3493   Anisotropy =    42.6657

     63  H    Isotropic =    30.3092   Anisotropy =     4.7381

     64  H    Isotropic =    30.4383   Anisotropy =     4.0544

     65  C    Isotropic =   158.3727   Anisotropy =    21.2272

     66  H    Isotropic =    30.2035   Anisotropy =     5.9217

     67  H    Isotropic =    30.2818   Anisotropy =     4.5350

     68  C    Isotropic =   111.1191   Anisotropy =    72.1668

     69  H    Isotropic =    27.8349   Anisotropy =     8.0654

     70  H    Isotropic =    29.0420   Anisotropy =     5.6431

     71  O    Isotropic =   194.8068   Anisotropy =    52.5588

     72  C    Isotropic =   174.4234   Anisotropy =    23.0445

     73  H    Isotropic =    31.0624   Anisotropy =     9.3528

     74  H    Isotropic =    30.5762   Anisotropy =    11.9043

     75  H    Isotropic =    31.1849   Anisotropy =     8.3280

     76  C    Isotropic =   110.1875   Anisotropy =    67.0429

     77  H    Isotropic =    28.2593   Anisotropy =     5.7846

     78  H    Isotropic =    27.4714   Anisotropy =     6.7694

     79  C    Isotropic =   157.1440   Anisotropy =    22.8092

     80  H    Isotropic =    30.0326   Anisotropy =     6.6875

     81  H    Isotropic =    30.1640   Anisotropy =     6.0312

     82  O    Isotropic =   211.5221   Anisotropy =    89.0505

     83  C    Isotropic =   174.3710   Anisotropy =    21.7114

     84  H    Isotropic =    31.1003   Anisotropy =     7.3997

     85  H    Isotropic =    30.4695   Anisotropy =    12.1401

     86  H    Isotropic =    31.0333   Anisotropy =     8.5528

 The electronic state is 1-A.
 Alpha  occ. eigenvalues --  -77.22695 -77.22621 -19.25838 -19.25302 -10.41195
 Alpha  occ. eigenvalues --  -10.33061 -10.31646 -10.29638 -10.29413 -10.29301
 Alpha  occ. eigenvalues --  -10.29208 -10.29159 -10.29019 -10.29005 -10.28668
 Alpha  occ. eigenvalues --  -10.27936 -10.27872 -10.27724 -10.27710 -10.27613
 Alpha  occ. eigenvalues --  -10.27497 -10.27476 -10.27012 -10.26808 -10.25819
 Alpha  occ. eigenvalues --  -10.25507 -10.25403 -10.25282 -10.25040 -10.24907
 Alpha  occ. eigenvalues --  -10.24379  -6.68760  -6.68733  -4.85027  -4.85011
 Alpha  occ. eigenvalues --   -4.84952  -4.84916  -4.84673  -4.84641  -3.31664
 Alpha  occ. eigenvalues --   -2.08548  -2.07876  -2.05133  -1.19506  -1.12989
 Alpha  occ. eigenvalues --   -0.94721  -0.91362  -0.90829  -0.89706  -0.89438
 Alpha  occ. eigenvalues --   -0.89131  -0.88591  -0.88279  -0.88052  -0.83747
 Alpha  occ. eigenvalues --   -0.81907  -0.80721  -0.80479  -0.78728  -0.78426
 Alpha  occ. eigenvalues --   -0.78106  -0.78027  -0.74590  -0.71007  -0.70849
 Alpha  occ. eigenvalues --   -0.70342  -0.70046  -0.69730  -0.69393  -0.68557
 Alpha  occ. eigenvalues --   -0.66291  -0.65964  -0.65729  -0.62855  -0.62752
 Alpha  occ. eigenvalues --   -0.60447  -0.60406  -0.59706  -0.58600  -0.57794
 Alpha  occ. eigenvalues --   -0.57215  -0.57117  -0.56765  -0.56524  -0.56201
 Alpha  occ. eigenvalues --   -0.54708  -0.53918  -0.53888  -0.53302  -0.53086
 Alpha  occ. eigenvalues --   -0.52929  -0.52702  -0.51950  -0.51890  -0.51673
 Alpha  occ. eigenvalues --   -0.51448  -0.50896  -0.50720  -0.50229  -0.49469
 Alpha  occ. eigenvalues --   -0.49033  -0.48904  -0.48501  -0.48319  -0.48197
 Alpha  occ. eigenvalues --   -0.47881  -0.47644  -0.47212  -0.46420  -0.46274
 Alpha  occ. eigenvalues --   -0.46219  -0.45442  -0.45344  -0.45226  -0.44802
 Alpha  occ. eigenvalues --   -0.44692  -0.44444  -0.44396  -0.44107  -0.43809
 Alpha  occ. eigenvalues --   -0.43722  -0.43496  -0.43421  -0.43377  -0.43246
 Alpha  occ. eigenvalues --   -0.43131  -0.42707  -0.42537  -0.42298  -0.42038
 Alpha  occ. eigenvalues --   -0.40987  -0.39578  -0.36879  -0.36631  -0.35184
 Alpha  occ. eigenvalues --   -0.35077  -0.34619  -0.33765  -0.30898
 Alpha virt. eigenvalues --   -0.16412  -0.13606  -0.09944  -0.09082  -0.08543
 Alpha virt. eigenvalues --   -0.07977  -0.07774  -0.07509  -0.07313  -0.05864
 Alpha virt. eigenvalues --   -0.05678  -0.05542  -0.05042  -0.05009  -0.04459

 Mulliken charges:
               1
     1  P    0.309640
     2  P    0.331279
     3  C   -0.063713
     4  C   -0.251232
     5  C   -0.359426
     6  C   -0.244028
     7  C   -0.362640
     8  C   -0.217521
     9  C   -0.365735
    10  C   -0.216467
    11  C   -0.367579
    12  H    0.124375
    13  H    0.131089
    14  H    0.145119
    15  H    0.120343
    16  H    0.124357
    17  H    0.131449
    18  H    0.142997
    19  H    0.147400
    20  H    0.124588
    21  H    0.118788
    22  H    0.107205
    23  H    0.134841
    24  H    0.144983
    25  H    0.120560
    26  H    0.125272
    27  H    0.151782
    28  H    0.130371
    29  H    0.146252
    30  H    0.119133
    31  H    0.120720
    32  Rh  -0.514830
    33  C   -0.010398
    34  C   -0.106027
    35  C   -0.033992
    36  C   -0.105112
    37  C   -0.351126
    38  H    0.181623
    39  H    0.185099
    40  C   -0.223844
    41  C   -0.345000
    42  H    0.181250
    43  C   -0.218421
    44  H    0.194944
    45  H    0.166938
    46  H    0.170056
    47  H    0.171890
    48  H    0.131495
    49  H    0.167359
    50  H    0.168656
    51  H    0.128211
    52  H    0.171759
    53  C   -0.320244
    54  H    0.159996
    55  H    0.163231
    56  C   -0.273349
    57  H    0.168230
    58  H    0.147875
    59  C   -0.281987
    60  H    0.194024
    61  H    0.130178
    62  C   -0.336352
    63  H    0.178058
    64  H    0.147783
    65  C   -0.212841
    66  H    0.127557
    67  H    0.117209
    68  C   -0.039385
    69  H    0.149328
    70  H    0.087146
    71  O   -0.221659
    72  C   -0.355646
    73  H    0.119743
    74  H    0.146425
    75  H    0.112996
    76  C   -0.091730
    77  H    0.112545
    78  H    0.124749
    79  C   -0.212411
    80  H    0.134495
    81  H    0.126579
    82  O   -0.235961
    83  C   -0.363506
    84  H    0.109409
    85  H    0.152627
    86  H    0.120157
 Sum of Mulliken charges =   1.00000

 Dipole moment (field-independent basis, Debye):
    X=              0.8815    Y=             -0.8073    Z=              0.4680  Tot=              1.2837
 Quadrupole moment (field-independent basis, Debye-Ang):
   XX=           -189.3626   YY=           -197.1999   ZZ=           -203.0675
   XY=              2.2596   XZ=             -0.3331   YZ=             -0.7081

 Summary of Natural Population Analysis:

                                       Natural Population
                Natural  -----------------------------------------------
    Atom  No    Charge         Core      Valence    Rydberg      Total
 -----------------------------------------------------------------------
      P    1    0.98315      9.99666     3.97262    0.04756    14.01685
      P    2    1.05641      9.99659     3.89745    0.04955    13.94359
      C    3    0.16373      1.99938     3.79320    0.04368     5.83627
      C    4   -0.38337      1.99944     4.37401    0.00991     6.38337
      C    5   -0.58594      1.99947     4.58018    0.00630     6.58594
      C    6   -0.39247      1.99944     4.38227    0.01075     6.39247
      C    7   -0.58622      1.99946     4.58036    0.00639     6.58622
      C    8   -0.38594      1.99943     4.37616    0.01035     6.38594
      C    9   -0.58485      1.99947     4.57914    0.00625     6.58485
      C   10   -0.39192      1.99944     4.38105    0.01144     6.39192
      C   11   -0.58530      1.99946     4.57974    0.00610     6.58530
      H   12    0.19139      0.00000     0.80644    0.00217     0.80861
      H   13    0.20196      0.00000     0.79617    0.00187     0.79804
      H   14    0.21779      0.00000     0.78115    0.00106     0.78221
      H   15    0.20264      0.00000     0.79607    0.00129     0.79736
      H   16    0.20370      0.00000     0.79504    0.00127     0.79630
      H   17    0.19581      0.00000     0.80238    0.00181     0.80419
      H   18    0.20191      0.00000     0.79619    0.00190     0.79809
      H   19    0.21945      0.00000     0.77948    0.00107     0.78055
      H   20    0.20402      0.00000     0.79454    0.00144     0.79598
      H   21    0.20174      0.00000     0.79686    0.00140     0.79826
      H   22    0.19913      0.00000     0.79904    0.00183     0.80087
      H   23    0.19511      0.00000     0.80290    0.00199     0.80489
      H   24    0.21739      0.00000     0.78154    0.00107     0.78261
      H   25    0.20147      0.00000     0.79712    0.00141     0.79853
      H   26    0.20493      0.00000     0.79375    0.00132     0.79507
      H   27    0.21114      0.00000     0.78665    0.00221     0.78886
      H   28    0.19620      0.00000     0.80205    0.00175     0.80380
      H   29    0.21896      0.00000     0.77998    0.00106     0.78104
      H   30    0.19975      0.00000     0.79892    0.00132     0.80025
      H   31    0.20188      0.00000     0.79668    0.00143     0.79812
     Rh   32   -0.42130     35.98584     9.40968    0.02577    45.42130
      C   33   -0.16782      1.99907     4.14889    0.01986     6.16782
      C   34   -0.16969      1.99908     4.15035    0.02027     6.16969
      C   35   -0.18363      1.99907     4.16449    0.02006     6.18363
      C   36   -0.15675      1.99908     4.13727    0.02040     6.15675
      C   37   -0.42446      1.99936     4.41301    0.01209     6.42446
      H   38    0.22067      0.00000     0.77727    0.00206     0.77933
      H   39    0.22447      0.00000     0.77348    0.00205     0.77553
      C   40   -0.41867      1.99935     4.40649    0.01283     6.41867
      C   41   -0.42288      1.99936     4.41157    0.01194     6.42288
      H   42    0.22339      0.00000     0.77415    0.00246     0.77661
      C   43   -0.41723      1.99935     4.40509    0.01279     6.41723
      H   44    0.22128      0.00000     0.77671    0.00201     0.77872
      H   45    0.22770      0.00000     0.77087    0.00143     0.77230
      H   46    0.21569      0.00000     0.78239    0.00191     0.78431
      H   47    0.23392      0.00000     0.76424    0.00183     0.76608
      H   48    0.21615      0.00000     0.78227    0.00158     0.78385
      H   49    0.21451      0.00000     0.78356    0.00193     0.78549
      H   50    0.22877      0.00000     0.76979    0.00144     0.77123
      H   51    0.21272      0.00000     0.78551    0.00177     0.78728
      H   52    0.23338      0.00000     0.76479    0.00183     0.76662
      C   53   -0.67731      1.99936     4.66381    0.01414     6.67731
      H   54    0.22864      0.00000     0.76956    0.00180     0.77136
      H   55    0.23388      0.00000     0.76398    0.00214     0.76612
      C   56   -0.67363      1.99937     4.65931    0.01496     6.67363
      H   57    0.23301      0.00000     0.76404    0.00295     0.76699
      H   58    0.22288      0.00000     0.77442    0.00271     0.77712
      C   59   -0.66951      1.99936     4.65465    0.01550     6.66951
      H   60    0.23997      0.00000     0.75724    0.00279     0.76003
      H   61    0.22889      0.00000     0.76926    0.00185     0.77111
      C   62   -0.67837      1.99937     4.66474    0.01426     6.67837
      H   63    0.23289      0.00000     0.76532    0.00179     0.76711
      H   64    0.22805      0.00000     0.76998    0.00197     0.77195
      C   65   -0.40110      1.99944     4.39026    0.01141     6.40110
      H   66    0.20705      0.00000     0.79136    0.00159     0.79295
      H   67    0.19991      0.00000     0.79846    0.00163     0.80009
      C   68   -0.06781      1.99920     4.05204    0.01657     6.06781
      H   69    0.18727      0.00000     0.80975    0.00298     0.81273
      H   70    0.16116      0.00000     0.83566    0.00319     0.83884
      O   71   -0.53915      1.99974     6.51781    0.02160     8.53915
      C   72   -0.59166      1.99946     4.58607    0.00613     6.59166
      H   73    0.20395      0.00000     0.79466    0.00138     0.79605
      H   74    0.22000      0.00000     0.77902    0.00098     0.78000
      H   75    0.19942      0.00000     0.79923    0.00136     0.80058
      C   76   -0.06309      1.99921     4.04813    0.01575     6.06309
      H   77    0.16834      0.00000     0.82820    0.00346     0.83166
      H   78    0.17876      0.00000     0.81833    0.00291     0.82124
      C   79   -0.39921      1.99943     4.38851    0.01127     6.39921
      H   80    0.21143      0.00000     0.78695    0.00162     0.78857
      H   81    0.19981      0.00000     0.79807    0.00213     0.80019
      O   82   -0.53919      1.99974     6.51881    0.02065     8.53919
      C   83   -0.59299      1.99946     4.58738    0.00614     6.59299
      H   84    0.19834      0.00000     0.80030    0.00136     0.80166
      H   85    0.22333      0.00000     0.77569    0.00098     0.77667
      H   86    0.20216      0.00000     0.79653    0.00132     0.79784
 =======================================================================
   * Total *    1.00000    113.96096   191.40853    0.63051   306.00000

 Normal termination of Gaussian 16 at Mon Jan 20 09:55:54 2025.
