 Gaussian 16, Revision B.01,
 Gaussian 16:  ES64L-G16RevB.01 20-Dec-2017

 ------------------------------------------
 # nmr=giao b3lyp/genecp pop=nbo scfcyc=200
 ------------------------------------------

 ---------
 DS-38_SPE
 ---------
 Symbolic Z-matrix:
 Charge =  1 Multiplicity = 1

                         Standard orientation:
 ---------------------------------------------------------------------
 Center     Atomic      Atomic             Coordinates (Angstroms)
 Number     Number       Type             X           Y           Z
 ---------------------------------------------------------------------
      1         45           0       -0.753075   -1.205542    0.065400
      2          6           0       -2.720543   -1.866838    1.004520
      3          6           0       -2.849283   -1.901399   -0.369080
      4          6           0       -0.348098   -3.416781   -0.318330
      5          6           0       -0.084709   -3.140160    1.007420
      6          6           0       -2.494089   -3.069948    1.900900
      7          1           0       -3.065016   -0.969429    1.506410
      8          1           0       -3.318266   -1.044760   -0.842950
      9          6           0       -2.712249   -3.109338   -1.262440
     10          6           0       -1.597856   -4.094805   -0.847950
     11          1           0        0.495882   -3.394698   -0.999550
     12          6           0       -1.004518   -3.363013    2.182080
     13          1           0        0.950390   -2.959696    1.277980
     14          1           0       -2.993620   -2.888409    2.853710
     15          1           0       -2.980047   -3.944349    1.468730
     16          1           0       -3.672218   -3.637781   -1.317100
     17          1           0       -2.513050   -2.750618   -2.274550
     18          1           0       -1.971504   -4.801916   -0.107900
     19          1           0       -1.324054   -4.690324   -1.720290
     20          1           0       -0.661911   -2.719692    2.995140
     21          1           0       -0.891405   -4.391632    2.546840
     22         15           0       -1.093733    1.101117   -0.141710
     23         15           0        1.364391   -0.240055   -0.257220
     24          6           0        2.892502   -0.571020    0.653050
     25          1           0        2.964772   -0.580930    1.730530
     26          6           0        3.882273   -0.885397   -0.207280
     27          6           0        3.495173   -0.783158   -1.646310
     28          6           0        2.222012   -0.384432   -1.846230
     29          1           0        1.749681   -0.280294   -2.811900
     30          6           0       -2.701038    2.708342   -1.406200
     31          6           0       -1.732685    1.812125   -1.682040
     32          1           0       -1.456924    1.482196   -2.672710
     33          6           0       -2.907269    2.952551    0.054730
     34          6           0       -2.105857    2.221374    0.853700
     35          1           0       -2.082707    2.254074    1.932170
     36          6           0       -3.921312    3.940178    0.543990
     37          1           0       -3.717676    4.939978    0.151720
     38          1           0       -4.926951    3.668414    0.212070
     39          1           0       -3.925122    3.995098    1.631310
     40          6           0       -3.522151    3.418909   -2.437380
     41          1           0       -4.585750    3.197926   -2.313920
     42          1           0       -3.412504    4.502849   -2.348250
     43          1           0       -3.229060    3.128650   -3.445130
     44          6           0        5.263045   -1.296902    0.201550
     45          1           0        5.501378   -2.297241   -0.169780
     46          1           0        6.014413   -0.619100   -0.212290
     47          1           0        5.368455   -1.302092    1.285160
     48          6           0        4.466834   -1.106405   -2.739220
     49          1           0        5.355492   -0.472952   -2.675910
     50          1           0        4.811098   -2.141514   -2.666030
     51          1           0        4.018124   -0.966186   -3.721410
     52          6           0        0.756395    1.568903    0.082530
     53          6           0        1.310622    2.717505   -0.736050
     54          6           0        2.713280    3.089399   -0.257360
     55          1           0        0.639419    3.575943   -0.624010
     56          1           0        1.310893    2.447075   -1.791890
     57          6           0        2.671559    3.453849    1.226400
     58          1           0        3.097188    3.931101   -0.835380
     59          1           0        3.397113    2.253942   -0.421490
     60          1           0        3.665309    3.561803    1.659190
     61          1           0        2.168216    4.417778    1.361940
     62          6           0        1.913312    2.475927    2.092850
     63          8           0        0.889595    1.747533    1.498410
     64          8           0        2.077453    2.329147    3.265760
 ---------------------------------------------------------------------

 SCF Done:  E(RB3LYP) =  -1917.11968981     A.U. after   16 cycles

      1  Rh   Isotropic =  -307.1043   Anisotropy =   351.4089

      2  C    Isotropic =    75.8082   Anisotropy =   126.0750

      3  C    Isotropic =    76.3903   Anisotropy =   118.1920

      4  C    Isotropic =    77.4524   Anisotropy =   123.2961

      5  C    Isotropic =    74.0556   Anisotropy =   120.8999

      6  C    Isotropic =   153.9311   Anisotropy =    24.8832

      7  H    Isotropic =    26.7966   Anisotropy =     7.1768

      8  H    Isotropic =    26.8526   Anisotropy =     4.8589

      9  C    Isotropic =   147.4861   Anisotropy =    29.7604

     10  C    Isotropic =   154.1355   Anisotropy =    24.7634

     11  H    Isotropic =    27.3702   Anisotropy =     7.0759

     12  C    Isotropic =   147.7835   Anisotropy =    29.8121

     13  H    Isotropic =    26.3100   Anisotropy =     4.5518

     14  H    Isotropic =    29.8100   Anisotropy =    11.4484

     15  H    Isotropic =    29.7918   Anisotropy =     9.0109

     16  H    Isotropic =    29.2042   Anisotropy =    12.2997

     17  H    Isotropic =    29.2539   Anisotropy =     7.9332

     18  H    Isotropic =    29.8285   Anisotropy =     9.1034

     19  H    Isotropic =    29.9788   Anisotropy =    11.4351

     20  H    Isotropic =    28.8943   Anisotropy =     7.8443

     21  H    Isotropic =    29.1211   Anisotropy =    12.2345

     22  P    Isotropic =   273.7962   Anisotropy =    38.8280

     23  P    Isotropic =   272.9731   Anisotropy =    44.3363

     24  C    Isotropic =    54.9009   Anisotropy =   126.5728

     25  H    Isotropic =    25.4308   Anisotropy =     5.3419

     26  C    Isotropic =    14.1584   Anisotropy =   179.6541

     27  C    Isotropic =    15.3485   Anisotropy =   174.0061

     28  C    Isotropic =    58.9136   Anisotropy =   120.7348

     29  H    Isotropic =    25.7804   Anisotropy =     5.9158

     30  C    Isotropic =    14.3226   Anisotropy =   173.3197

     31  C    Isotropic =    61.4449   Anisotropy =   117.1766

     32  H    Isotropic =    25.8672   Anisotropy =     5.8156

     33  C    Isotropic =    12.8177   Anisotropy =   179.4527

     34  C    Isotropic =    57.7138   Anisotropy =   119.6643

     35  H    Isotropic =    25.5731   Anisotropy =     5.9789

     36  C    Isotropic =   164.9333   Anisotropy =    30.8827

     37  H    Isotropic =    29.7516   Anisotropy =     8.4386

     38  H    Isotropic =    29.7598   Anisotropy =     8.2847

     39  H    Isotropic =    29.6172   Anisotropy =     7.0195

     40  C    Isotropic =   164.8765   Anisotropy =    30.9653

     41  H    Isotropic =    29.7029   Anisotropy =     8.2339

     42  H    Isotropic =    29.7045   Anisotropy =     8.5029

     43  H    Isotropic =    29.6637   Anisotropy =     6.7950

     44  C    Isotropic =   164.9256   Anisotropy =    30.9746

     45  H    Isotropic =    29.7792   Anisotropy =     8.4304

     46  H    Isotropic =    29.8201   Anisotropy =     8.2567

     47  H    Isotropic =    29.6331   Anisotropy =     6.8953

     48  C    Isotropic =   164.7163   Anisotropy =    31.3144

     49  H    Isotropic =    29.7524   Anisotropy =     8.3737

     50  H    Isotropic =    29.7368   Anisotropy =     8.3097

     51  H    Isotropic =    29.6845   Anisotropy =     6.9750

     52  C    Isotropic =    57.3375   Anisotropy =    29.3322

     53  C    Isotropic =   148.8132   Anisotropy =    14.5129

     54  C    Isotropic =   163.6916   Anisotropy =    13.0732

     55  H    Isotropic =    30.7038   Anisotropy =     6.8467

     56  H    Isotropic =    30.0021   Anisotropy =     2.6169

     57  C    Isotropic =   151.7011   Anisotropy =    20.6035

     58  H    Isotropic =    30.5127   Anisotropy =    11.2358

     59  H    Isotropic =    31.0552   Anisotropy =     6.8578

     60  H    Isotropic =    29.6137   Anisotropy =     8.8115

     61  H    Isotropic =    29.7480   Anisotropy =     8.3420

     62  C    Isotropic =    13.7474   Anisotropy =    85.4098

     63  O    Isotropic =    88.4348   Anisotropy =   184.4488

     64  O    Isotropic =  -146.0896   Anisotropy =   590.5723

 The electronic state is 1-A.
 Alpha  occ. eigenvalues --  -77.23923 -77.23904 -19.28036 -19.21468 -10.40602
 Alpha  occ. eigenvalues --  -10.38251 -10.31239 -10.31183 -10.31176 -10.31054
 Alpha  occ. eigenvalues --  -10.29687 -10.29672 -10.29654 -10.29534 -10.29495
 Alpha  occ. eigenvalues --  -10.29194 -10.29048 -10.29017 -10.28983 -10.28834
 Alpha  occ. eigenvalues --  -10.28698 -10.27992 -10.27822 -10.27752 -10.27650
 Alpha  occ. eigenvalues --  -10.27557 -10.27485 -10.27391 -10.27274  -6.70037
 Alpha  occ. eigenvalues --   -6.70028  -4.86309  -4.86307  -4.86243  -4.86227
 Alpha  occ. eigenvalues --   -4.85936  -4.85925  -3.32478  -2.09471  -2.08750
 Alpha  occ. eigenvalues --   -2.05830  -1.20846  -1.13363  -0.97509  -0.97276
 Alpha  occ. eigenvalues --   -0.94946  -0.92925  -0.89723  -0.89029  -0.88450
 Alpha  occ. eigenvalues --   -0.87287  -0.87188  -0.84872  -0.84289  -0.80836
 Alpha  occ. eigenvalues --   -0.79661  -0.78505  -0.78403  -0.78270  -0.74427
 Alpha  occ. eigenvalues --   -0.74208  -0.73354  -0.71016  -0.68559  -0.67274
 Alpha  occ. eigenvalues --   -0.66309  -0.63760  -0.62906  -0.62163  -0.61708
 Alpha  occ. eigenvalues --   -0.61082  -0.60445  -0.59207  -0.58664  -0.58404
 Alpha  occ. eigenvalues --   -0.57550  -0.56957  -0.56649  -0.55926  -0.55321
 Alpha  occ. eigenvalues --   -0.54469  -0.54278  -0.54174  -0.54021  -0.53094
 Alpha  occ. eigenvalues --   -0.53058  -0.52688  -0.51746  -0.51675  -0.51547
 Alpha  occ. eigenvalues --   -0.51119  -0.51025  -0.50611  -0.50542  -0.50476
 Alpha  occ. eigenvalues --   -0.48746  -0.48382  -0.47553  -0.47199  -0.46944
 Alpha  occ. eigenvalues --   -0.46483  -0.46395  -0.46343  -0.46202  -0.46007
 Alpha  occ. eigenvalues --   -0.45694  -0.45468  -0.44444  -0.43946  -0.43602
 Alpha  occ. eigenvalues --   -0.43440  -0.41891  -0.41349  -0.38869  -0.37964
 Alpha  occ. eigenvalues --   -0.37113  -0.36650  -0.35983  -0.35739  -0.35408
 Alpha  occ. eigenvalues --   -0.35033  -0.34384  -0.31611
 Alpha virt. eigenvalues --   -0.18255  -0.18018  -0.16983  -0.12266  -0.10606
 Alpha virt. eigenvalues --   -0.09766  -0.09237  -0.08276  -0.07754  -0.06886
 Alpha virt. eigenvalues --   -0.06745  -0.06336  -0.05793  -0.05442  -0.04594

 Mulliken charges:
               1
     1  Rh  -0.609381
     2  C   -0.025999
     3  C   -0.071419
     4  C   -0.002152
     5  C   -0.109933
     6  C   -0.346136
     7  H    0.186809
     8  H    0.183201
     9  C   -0.218173
    10  C   -0.343371
    11  H    0.177576
    12  C   -0.214868
    13  H    0.195850
    14  H    0.172485
    15  H    0.166537
    16  H    0.171566
    17  H    0.133625
    18  H    0.167684
    19  H    0.169743
    20  H    0.141491
    21  H    0.173448
    22  P    0.390738
    23  P    0.410977
    24  C   -0.182448
    25  H    0.199207
    26  C   -0.004632
    27  C   -0.062099
    28  C   -0.115310
    29  H    0.166553
    30  C   -0.032867
    31  C   -0.130757
    32  H    0.163771
    33  C   -0.026129
    34  C   -0.131876
    35  H    0.185612
    36  C   -0.396335
    37  H    0.151451
    38  H    0.148666
    39  H    0.153861
    40  C   -0.400674
    41  H    0.152323
    42  H    0.151768
    43  H    0.147965
    44  C   -0.393250
    45  H    0.150493
    46  H    0.150190
    47  H    0.155304
    48  C   -0.402967
    49  H    0.151069
    50  H    0.152617
    51  H    0.148519
    52  C   -0.240437
    53  C   -0.183122
    54  C   -0.242231
    55  H    0.167952
    56  H    0.149576
    57  C   -0.264977
    58  H    0.169679
    59  H    0.151526
    60  H    0.184622
    61  H    0.171688
    62  C    0.223916
    63  O   -0.188117
    64  O   -0.250399
 Sum of Mulliken charges =   1.00000

 Dipole moment (field-independent basis, Debye):
    X=             -0.2277    Y=              0.4537    Z=             -4.8421  Tot=              4.8686
 Quadrupole moment (field-independent basis, Debye-Ang):
   XX=           -146.9286   YY=           -156.3955   ZZ=           -199.9858
   XY=             -7.8398   XZ=             -8.9115   YZ=             -9.8309

 Summary of Natural Population Analysis:

                                       Natural Population
                Natural  -----------------------------------------------
    Atom  No    Charge         Core      Valence    Rydberg      Total
 -----------------------------------------------------------------------
     Rh    1   -0.42706     35.98435     9.41073    0.03197    45.42706
      C    2   -0.15804      1.99904     4.13907    0.01993     6.15804
      C    3   -0.15263      1.99904     4.13328    0.02032     6.15263
      C    4   -0.16535      1.99903     4.14680    0.01952     6.16535
      C    5   -0.14521      1.99904     4.12580    0.02037     6.14521
      C    6   -0.42335      1.99937     4.41216    0.01183     6.42335
      H    7    0.23297      0.00000     0.76547    0.00156     0.76703
      H    8    0.22876      0.00000     0.76940    0.00184     0.77124
      C    9   -0.42243      1.99936     4.41073    0.01235     6.42243
      C   10   -0.42275      1.99937     4.41157    0.01181     6.42275
      H   11    0.22827      0.00000     0.76983    0.00190     0.77173
      C   12   -0.42394      1.99936     4.41225    0.01233     6.42394
      H   13    0.23000      0.00000     0.76813    0.00187     0.77000
      H   14    0.23162      0.00000     0.76692    0.00146     0.76838
      H   15    0.21155      0.00000     0.78644    0.00200     0.78845
      H   16    0.23518      0.00000     0.76298    0.00185     0.76482
      H   17    0.21954      0.00000     0.77900    0.00146     0.78046
      H   18    0.21236      0.00000     0.78562    0.00203     0.78764
      H   19    0.22996      0.00000     0.76858    0.00147     0.77004
      H   20    0.22457      0.00000     0.77399    0.00144     0.77543
      H   21    0.23549      0.00000     0.76266    0.00185     0.76451
      P   22    1.09211      9.99636     3.85710    0.05444    13.90789
      P   23    1.06354      9.99639     3.88631    0.05376    13.93646
      C   24   -0.51316      1.99893     4.49823    0.01599     6.51316
      H   25    0.25140      0.00000     0.74679    0.00181     0.74860
      C   26    0.02156      1.99901     3.96407    0.01536     5.97844
      C   27    0.01967      1.99902     3.96575    0.01556     5.98033
      C   28   -0.51408      1.99893     4.49959    0.01556     6.51408
      H   29    0.23838      0.00000     0.75982    0.00180     0.76162
      C   30    0.02312      1.99902     3.96240    0.01545     5.97688
      C   31   -0.51234      1.99893     4.49813    0.01528     6.51234
      H   32    0.23780      0.00000     0.76039    0.00181     0.76220
      C   33    0.02159      1.99902     3.96415    0.01524     5.97841
      C   34   -0.49713      1.99893     4.48186    0.01634     6.49713
      H   35    0.25019      0.00000     0.74813    0.00167     0.74981
      C   36   -0.63054      1.99938     4.62351    0.00765     6.63054
      H   37    0.22944      0.00000     0.76908    0.00148     0.77056
      H   38    0.22978      0.00000     0.76871    0.00151     0.77022
      H   39    0.22964      0.00000     0.76910    0.00126     0.77036
      C   40   -0.63067      1.99938     4.62368    0.00761     6.63067
      H   41    0.23034      0.00000     0.76815    0.00151     0.76966
      H   42    0.23059      0.00000     0.76793    0.00148     0.76941
      H   43    0.22635      0.00000     0.77238    0.00127     0.77365
      C   44   -0.63090      1.99938     4.62383    0.00769     6.63090
      H   45    0.23033      0.00000     0.76817    0.00150     0.76967
      H   46    0.22915      0.00000     0.76935    0.00150     0.77085
      H   47    0.23006      0.00000     0.76868    0.00126     0.76994
      C   48   -0.63013      1.99938     4.62313    0.00763     6.63013
      H   49    0.23000      0.00000     0.76851    0.00148     0.77000
      H   50    0.23039      0.00000     0.76810    0.00151     0.76961
      H   51    0.22652      0.00000     0.77222    0.00127     0.77348
      C   52   -0.13844      1.99930     4.10422    0.03492     6.13844
      C   53   -0.45608      1.99929     4.44248    0.01432     6.45608
      C   54   -0.38658      1.99940     4.37579    0.01139     6.38658
      H   55    0.21991      0.00000     0.77699    0.00310     0.78009
      H   56    0.23336      0.00000     0.76510    0.00154     0.76664
      C   57   -0.51210      1.99927     4.50186    0.01097     6.51210
      H   58    0.22767      0.00000     0.77094    0.00138     0.77233
      H   59    0.20674      0.00000     0.79093    0.00233     0.79326
      H   60    0.25132      0.00000     0.74745    0.00124     0.74868
      H   61    0.24221      0.00000     0.75643    0.00135     0.75779
      C   62    0.75462      1.99936     3.20425    0.04177     5.24538
      O   63   -0.53880      1.99974     6.51790    0.02117     8.53880
      O   64   -0.49632      1.99974     6.48390    0.01268     8.49632
 =======================================================================
   * Total *    1.00000    109.95611   163.41690    0.62700   274.00000

 Normal termination of Gaussian 16 at Mon Jan 20 09:36:06 2025.
