 Gaussian 16, Revision B.01,
 Gaussian 16:  ES64L-G16RevB.01 20-Dec-2017

 ------------------------------------------
 # nmr=giao b3lyp/genecp pop=nbo scfcyc=200
 ------------------------------------------

 ---------
 DS-32_SPE
 ---------
 Symbolic Z-matrix:
 Charge =  1 Multiplicity = 1

                         Standard orientation:
 ---------------------------------------------------------------------
 Center     Atomic      Atomic             Coordinates (Angstroms)
 Number     Number       Type             X           Y           Z
 ---------------------------------------------------------------------
      1         15           0        0.889920    1.289070    0.282850
      2         15           0        0.419660   -1.401070   -0.202650
      3          6           0       -0.677750   -1.357430   -2.808290
      4          6           0       -0.934191   -1.884670   -4.070370
      5          6           0       -0.572541   -3.193760   -4.369260
      6          6           0        0.049559   -3.976630   -3.400670
      7          6           0        0.306749   -3.454200   -2.138570
      8          6           0       -0.063271   -2.139700   -1.826590
      9          1           0       -0.952660   -0.333480   -2.588780
     10          1           0       -1.415120   -1.269330   -4.820710
     11          1           0       -0.772011   -3.602550   -5.351750
     12          1           0        0.336449   -4.995880   -3.627640
     13          1           0        0.789619   -4.078320   -1.396460
     14          6           0       -1.054121   -3.616490    0.884600
     15          6           0       -1.404351   -4.483320    1.915130
     16          6           0       -0.771771   -4.393420    3.150420
     17          6           0        0.216899   -3.435120    3.352630
     18          6           0        0.570839   -2.570320    2.323520
     19          6           0       -0.065541   -2.647260    1.079870
     20          1           0       -1.543671   -3.720160   -0.075950
     21          1           0       -2.169931   -5.230990    1.749290
     22          1           0       -1.043131   -5.071580    3.949650
     23          1           0        0.719749   -3.366840    4.309330
     24          1           0        1.348609   -1.832260    2.481130
     25          6           0        0.102530    1.511110    2.991400
     26          6           0        0.173830    2.035410    4.278150
     27          6           0        1.003520    3.118090    4.548790
     28          6           0        1.766760    3.674010    3.526340
     29          6           0        1.698750    3.152240    2.239580
     30          6           0        0.855790    2.070290    1.956350
     31          1           0       -0.538730    0.661700    2.794310
     32          1           0       -0.420410    1.595830    5.069720
     33          1           0        1.056970    3.526180    5.550180
     34          1           0        2.416561    4.516220    3.729280
     35          1           0        2.297880    3.600550    1.456530
     36          6           0        1.252590    2.418160   -2.238130
     37          6           0        1.184100    3.401050   -3.218580
     38          6           0        0.675241    4.659170   -2.910220
     39          6           0        0.231661    4.927290   -1.619440
     40          6           0        0.290650    3.942230   -0.638460
     41          6           0        0.799990    2.676380   -0.939440
     42          1           0        1.664330    1.444540   -2.477590
     43          1           0        1.537980    3.188280   -4.219740
     44          1           0        0.630411    5.428680   -3.670650
     45          1           0       -0.160329    5.906130   -1.372340
     46          1           0       -0.055479    4.170920    0.360760
     47          6           0       -0.512520    0.144010    0.079640
     48         45           0        2.526250   -0.374270   -0.052990
     49          6           0        4.394900    0.870529   -0.456680
     50          6           0        4.285860    0.648289    0.900460
     51          6           0        3.928199   -2.160161    0.180280
     52          6           0        3.755869   -1.892401   -1.162090
     53          6           0        5.328520    0.129599   -1.396160
     54          1           0        3.996300    1.805129   -0.835970
     55          1           0        3.836710    1.433319    1.499500
     56          6           0        5.006070   -0.405751    1.705980
     57          6           0        5.142819   -1.774181    1.003890
     58          1           0        3.292319   -2.923261    0.615900
     59          6           0        4.689570   -1.112131   -2.055700
     60          1           0        3.019979   -2.482981   -1.697750
     61          1           0        5.643040    0.815329   -2.184810
     62          1           0        6.237570   -0.149531   -0.863340
     63          1           0        5.998690   -0.036091    1.993100
     64          1           0        4.456940   -0.537071    2.640950
     65          1           0        6.032139   -1.790211    0.373870
     66          1           0        5.302849   -2.538631    1.766230
     67          1           0        4.118740   -0.796991   -2.931930
     68          1           0        5.476889   -1.775361   -2.435990
     69          6           0       -1.877430    0.349390    0.154420
     70          6           0       -2.471050    1.714440    0.400270
     71          1           0       -3.256610    1.641001    1.153370
     72          1           0       -1.705940    2.367150    0.814250
     73          7           0       -2.740670   -0.673420   -0.053380
     74          1           0       -2.339740   -1.552150   -0.346440
     75          6           0       -4.158620   -0.701449    0.156800
     76          6           0       -5.001670   -0.979409   -0.916460
     77          6           0       -4.701270   -0.537619    1.429490
     78          6           0       -6.373430   -1.075479   -0.717300
     79          1           0       -4.582270   -1.120169   -1.905290
     80          6           0       -6.075820   -0.617809    1.613400
     81          1           0       -4.048850   -0.370499    2.277310
     82          6           0       -6.937580   -0.885539    0.546430
     83          1           0       -7.015710   -1.297359   -1.561430
     84          1           0       -6.483440   -0.489589    2.609360
     85          6           0       -3.059800    2.350640   -0.875400
     86          1           0       -3.804170    1.679481   -1.310090
     87          1           0       -2.265760    2.468510   -1.617860
     88          6           0       -3.709190    3.708181   -0.595520
     89          1           0       -2.971239    4.377710   -0.141740
     90          1           0       -4.503520    3.580161    0.147030
     91          6           0       -4.284649    4.359741   -1.852800
     92          1           0       -4.742979    5.323271   -1.623020
     93          1           0       -3.506879    4.531501   -2.600990
     94          1           0       -5.051720    3.729471   -2.309440
     95          6           0       -8.428210   -0.951139    0.750450
     96          1           0       -8.880350    0.037881    0.631710
     97          1           0       -8.900990   -1.615169    0.026060
     98          1           0       -8.678270   -1.305539    1.751180
 ---------------------------------------------------------------------

 SCF Done:  E(RB3LYP) =  -2592.85581807     A.U. after   17 cycles

      1  P    Isotropic =   301.5701   Anisotropy =    76.6067

      2  P    Isotropic =   309.5699   Anisotropy =    79.8319

      3  C    Isotropic =    48.2490   Anisotropy =   190.5296

      4  C    Isotropic =    48.9150   Anisotropy =   189.1965

      5  C    Isotropic =    46.7658   Anisotropy =   194.9231

      6  C    Isotropic =    48.3387   Anisotropy =   190.5190

      7  C    Isotropic =    47.2879   Anisotropy =   189.7036

      8  C    Isotropic =    48.4032   Anisotropy =   168.8172

      9  H    Isotropic =    23.8947   Anisotropy =     9.0723

     10  H    Isotropic =    24.0289   Anisotropy =     7.1682

     11  H    Isotropic =    23.9801   Anisotropy =     3.5362

     12  H    Isotropic =    24.0728   Anisotropy =     6.0147

     13  H    Isotropic =    24.4585   Anisotropy =    10.9623

     14  C    Isotropic =    47.7542   Anisotropy =   187.5896

     15  C    Isotropic =    50.0170   Anisotropy =   187.4208

     16  C    Isotropic =    46.4194   Anisotropy =   195.6912

     17  C    Isotropic =    48.4615   Anisotropy =   188.6145

     18  C    Isotropic =    41.8210   Anisotropy =   183.3924

     19  C    Isotropic =    44.2332   Anisotropy =   175.2947

     20  H    Isotropic =    24.4921   Anisotropy =    10.6432

     21  H    Isotropic =    24.4544   Anisotropy =     6.3643

     22  H    Isotropic =    24.0873   Anisotropy =     3.4005

     23  H    Isotropic =    24.0218   Anisotropy =     7.0058

     24  H    Isotropic =    23.3318   Anisotropy =     9.8368

     25  C    Isotropic =    48.4727   Anisotropy =   191.2184

     26  C    Isotropic =    49.1591   Anisotropy =   188.4147

     27  C    Isotropic =    47.1916   Anisotropy =   193.6460

     28  C    Isotropic =    48.9907   Anisotropy =   189.3551

     29  C    Isotropic =    47.6962   Anisotropy =   188.8630

     30  C    Isotropic =    44.9528   Anisotropy =   172.2141

     31  H    Isotropic =    24.1227   Anisotropy =     9.5150

     32  H    Isotropic =    24.1238   Anisotropy =     7.1286

     33  H    Isotropic =    24.0529   Anisotropy =     3.4892

     34  H    Isotropic =    24.1123   Anisotropy =     6.0822

     35  H    Isotropic =    24.4234   Anisotropy =    10.9415

     36  C    Isotropic =    41.9497   Anisotropy =   183.6213

     37  C    Isotropic =    48.9434   Anisotropy =   187.8773

     38  C    Isotropic =    46.3696   Anisotropy =   195.0267

     39  C    Isotropic =    49.6165   Anisotropy =   188.6215

     40  C    Isotropic =    47.5655   Anisotropy =   191.4282

     41  C    Isotropic =    41.6885   Anisotropy =   177.8465

     42  H    Isotropic =    23.2841   Anisotropy =     9.6173

     43  H    Isotropic =    24.0335   Anisotropy =     6.7935

     44  H    Isotropic =    24.0574   Anisotropy =     3.3005

     45  H    Isotropic =    24.3044   Anisotropy =     5.8185

     46  H    Isotropic =    24.2691   Anisotropy =    10.7780

     47  C    Isotropic =    84.5305   Anisotropy =    55.0506

     48  Rh   Isotropic =  -297.4264   Anisotropy =   325.2610

     49  C    Isotropic =    80.0512   Anisotropy =   119.7644

     50  C    Isotropic =    73.8733   Anisotropy =   120.5285

     51  C    Isotropic =    80.7922   Anisotropy =   118.8211

     52  C    Isotropic =    74.7228   Anisotropy =   119.1247

     53  C    Isotropic =   153.9659   Anisotropy =    24.9089

     54  H    Isotropic =    27.1270   Anisotropy =     5.1575

     55  H    Isotropic =    26.8239   Anisotropy =     5.2089

     56  C    Isotropic =   148.2055   Anisotropy =    29.0873

     57  C    Isotropic =   153.9225   Anisotropy =    25.2189

     58  H    Isotropic =    27.1246   Anisotropy =     5.6240

     59  C    Isotropic =   148.0518   Anisotropy =    29.1145

     60  H    Isotropic =    26.8944   Anisotropy =     5.1341

     61  H    Isotropic =    29.9715   Anisotropy =    11.2661

     62  H    Isotropic =    29.8796   Anisotropy =    10.1230

     63  H    Isotropic =    29.3386   Anisotropy =    12.7497

     64  H    Isotropic =    29.4216   Anisotropy =     6.9313

     65  H    Isotropic =    29.9184   Anisotropy =    10.0694

     66  H    Isotropic =    29.9829   Anisotropy =    11.4167

     67  H    Isotropic =    29.3914   Anisotropy =     6.8744

     68  H    Isotropic =    29.3228   Anisotropy =    12.7748

     69  C    Isotropic =     7.7652   Anisotropy =   178.7935

     70  C    Isotropic =   149.7708   Anisotropy =    33.7922

     71  H    Isotropic =    29.7720   Anisotropy =     6.9751

     72  H    Isotropic =    30.0312   Anisotropy =     9.3524

     73  N    Isotropic =   113.0480   Anisotropy =    75.4468

     74  H    Isotropic =    25.7369   Anisotropy =    10.3059

     75  C    Isotropic =    44.0301   Anisotropy =   134.6753

     76  C    Isotropic =    52.7774   Anisotropy =   161.9234

     77  C    Isotropic =    52.3793   Anisotropy =   162.5619

     78  C    Isotropic =    47.9835   Anisotropy =   168.6780

     79  H    Isotropic =    25.0404   Anisotropy =     9.6926

     80  C    Isotropic =    48.7804   Anisotropy =   168.0384

     81  H    Isotropic =    25.2955   Anisotropy =     9.8533

     82  C    Isotropic =    35.0923   Anisotropy =   208.2134

     83  H    Isotropic =    24.5443   Anisotropy =     7.8580

     84  H    Isotropic =    24.6447   Anisotropy =     8.0214

     85  C    Isotropic =   152.0828   Anisotropy =    36.6563

     86  H    Isotropic =    31.1318   Anisotropy =     7.9588

     87  H    Isotropic =    31.9616   Anisotropy =     7.1079

     88  C    Isotropic =   157.2008   Anisotropy =    26.3868

     89  H    Isotropic =    31.2723   Anisotropy =     4.3414

     90  H    Isotropic =    31.4421   Anisotropy =     6.3857

     91  C    Isotropic =   169.8756   Anisotropy =    29.5589

     92  H    Isotropic =    31.0878   Anisotropy =    12.3789

     93  H    Isotropic =    31.7101   Anisotropy =     6.9114

     94  H    Isotropic =    31.6276   Anisotropy =     9.0396

     95  C    Isotropic =   162.3900   Anisotropy =    42.6825

     96  H    Isotropic =    29.3798   Anisotropy =     9.0044

     97  H    Isotropic =    29.6638   Anisotropy =     8.4137

     98  H    Isotropic =    29.6660   Anisotropy =     8.4023

 The electronic state is 1-A.
 Alpha  occ. eigenvalues --  -77.22574 -77.22550 -14.45386 -10.34432 -10.30735
 Alpha  occ. eigenvalues --  -10.28842 -10.28763 -10.28554 -10.28489 -10.27727
 Alpha  occ. eigenvalues --  -10.27715 -10.27714 -10.27682 -10.27582 -10.27529
 Alpha  occ. eigenvalues --  -10.27519 -10.27465 -10.27365 -10.27357 -10.27341
 Alpha  occ. eigenvalues --  -10.27311 -10.27243 -10.27190 -10.27083 -10.27066
 Alpha  occ. eigenvalues --  -10.27016 -10.26998 -10.26975 -10.26971 -10.26924
 Alpha  occ. eigenvalues --  -10.26836 -10.26779 -10.26774 -10.26756 -10.26756
 Alpha  occ. eigenvalues --  -10.26749 -10.26652 -10.26649 -10.26368 -10.26352
 Alpha  occ. eigenvalues --  -10.26153 -10.26146 -10.26036 -10.26001 -10.25476
 Alpha  occ. eigenvalues --  -10.24443 -10.24192 -10.22930  -6.68479  -6.68423
 Alpha  occ. eigenvalues --   -4.84746  -4.84718  -4.84698  -4.84659  -4.84401
 Alpha  occ. eigenvalues --   -4.84349  -3.30085  -2.06974  -2.06312  -2.03574
 Alpha  occ. eigenvalues --   -1.06469  -0.96144  -0.95837  -0.95475  -0.95222
 Alpha  occ. eigenvalues --   -0.95095  -0.93181  -0.90517  -0.88263  -0.87869
 Alpha  occ. eigenvalues --   -0.86806  -0.86483  -0.86439  -0.84773  -0.84656
 Alpha  occ. eigenvalues --   -0.84522  -0.84402  -0.84270  -0.84146  -0.84003
 Alpha  occ. eigenvalues --   -0.83858  -0.81730  -0.79112  -0.77958  -0.76591
 Alpha  occ. eigenvalues --   -0.75391  -0.74645  -0.72231  -0.70766  -0.70634
 Alpha  occ. eigenvalues --   -0.70533  -0.70391  -0.70134  -0.69572  -0.69375
 Alpha  occ. eigenvalues --   -0.69348  -0.69264  -0.67170  -0.66621  -0.66247
 Alpha  occ. eigenvalues --   -0.66091  -0.64629  -0.63015  -0.61762  -0.61521
 Alpha  occ. eigenvalues --   -0.61427  -0.61100  -0.59881  -0.58791  -0.57275
 Alpha  occ. eigenvalues --   -0.56629  -0.56233  -0.55782  -0.55490  -0.55375
 Alpha  occ. eigenvalues --   -0.55246  -0.55179  -0.55105  -0.54963  -0.54873
 Alpha  occ. eigenvalues --   -0.54611  -0.54145  -0.53764  -0.52968  -0.52484
 Alpha  occ. eigenvalues --   -0.52450  -0.52118  -0.51921  -0.51892  -0.51662
 Alpha  occ. eigenvalues --   -0.51526  -0.51445  -0.51373  -0.51216  -0.50793
 Alpha  occ. eigenvalues --   -0.50440  -0.49996  -0.49800  -0.48476  -0.47742
 Alpha  occ. eigenvalues --   -0.47705  -0.47579  -0.47035  -0.46870  -0.46714
 Alpha  occ. eigenvalues --   -0.46563  -0.46339  -0.45832  -0.45687  -0.45105
 Alpha  occ. eigenvalues --   -0.44799  -0.44630  -0.44514  -0.44454  -0.44281
 Alpha  occ. eigenvalues --   -0.44199  -0.44137  -0.43962  -0.43446  -0.43316
 Alpha  occ. eigenvalues --   -0.42829  -0.42355  -0.42253  -0.42064  -0.41799
 Alpha  occ. eigenvalues --   -0.41560  -0.40825  -0.40759  -0.40173  -0.37137
 Alpha  occ. eigenvalues --   -0.36705  -0.36025  -0.35845  -0.35649  -0.35323
 Alpha  occ. eigenvalues --   -0.35303  -0.34961  -0.34719  -0.34627  -0.34542
 Alpha  occ. eigenvalues --   -0.33620  -0.33097  -0.32945  -0.32364  -0.31367
 Alpha  occ. eigenvalues --   -0.29240
 Alpha virt. eigenvalues --   -0.15738  -0.13860  -0.12849  -0.12625  -0.12147
 Alpha virt. eigenvalues --   -0.11453  -0.11042  -0.10838  -0.10377  -0.10323
 Alpha virt. eigenvalues --   -0.10121  -0.09297  -0.08727  -0.08008  -0.06634

 Mulliken charges:
               1
     1  P    0.439447
     2  P    0.398262
     3  C   -0.075099
     4  C   -0.110586
     5  C   -0.098589
     6  C   -0.082922
     7  C   -0.149086
     8  C   -0.171525
     9  H    0.181535
    10  H    0.129407
    11  H    0.135835
    12  H    0.133779
    13  H    0.166798
    14  C   -0.101517
    15  C   -0.101015
    16  C   -0.097479
    17  C   -0.095313
    18  C   -0.075882
    19  C   -0.199685
    20  H    0.167358
    21  H    0.132294
    22  H    0.135594
    23  H    0.128805
    24  H    0.180969
    25  C   -0.082061
    26  C   -0.099413
    27  C   -0.104563
    28  C   -0.079135
    29  C   -0.181018
    30  C   -0.121567
    31  H    0.171977
    32  H    0.126888
    33  H    0.133969
    34  H    0.132627
    35  H    0.171242
    36  C   -0.081420
    37  C   -0.094824
    38  C   -0.098667
    39  C   -0.098463
    40  C   -0.083570
    41  C   -0.220355
    42  H    0.178425
    43  H    0.128297
    44  H    0.134144
    45  H    0.132229
    46  H    0.169222
    47  C   -0.813266
    48  Rh  -0.710956
    49  C   -0.022958
    50  C   -0.103960
    51  C   -0.022840
    52  C   -0.102196
    53  C   -0.348450
    54  H    0.195036
    55  H    0.207071
    56  C   -0.230713
    57  C   -0.347209
    58  H    0.189523
    59  C   -0.229738
    60  H    0.204611
    61  H    0.165370
    62  H    0.165011
    63  H    0.166953
    64  H    0.131984
    65  H    0.165037
    66  H    0.165176
    67  H    0.131627
    68  H    0.166708
    69  C    0.419820
    70  C   -0.296623
    71  H    0.159612
    72  H    0.175657
    73  N   -0.152740
    74  H    0.262911
    75  C   -0.025915
    76  C   -0.142342
    77  C   -0.103629
    78  C   -0.123740
    79  H    0.134473
    80  C   -0.125302
    81  H    0.146237
    82  C    0.095895
    83  H    0.127230
    84  H    0.126510
    85  C   -0.227024
    86  H    0.150444
    87  H    0.135481
    88  C   -0.208005
    89  H    0.107389
    90  H    0.121985
    91  C   -0.359202
    92  H    0.137061
    93  H    0.115695
    94  H    0.117117
    95  C   -0.430161
    96  H    0.153777
    97  H    0.140132
    98  H    0.140083
 Sum of Mulliken charges =   1.00000

 Dipole moment (field-independent basis, Debye):
    X=             -0.8579    Y=             -0.7106    Z=              0.1815  Tot=              1.1286
 Quadrupole moment (field-independent basis, Debye-Ang):
   XX=           -238.8532   YY=           -267.4342   ZZ=           -268.8784
   XY=              4.9507   XZ=             -1.0988   YZ=              1.7656

 Summary of Natural Population Analysis:

                                       Natural Population
                Natural  -----------------------------------------------
    Atom  No    Charge         Core      Valence    Rydberg      Total
 -----------------------------------------------------------------------
      P    1    1.14393      9.99620     3.80383    0.05604    13.85607
      P    2    1.12192      9.99624     3.82562    0.05622    13.87808
      C    3   -0.20360      1.99909     4.18845    0.01605     6.20360
      C    4   -0.19470      1.99920     4.18067    0.01484     6.19470
      C    5   -0.18570      1.99920     4.17171    0.01478     6.18570
      C    6   -0.19251      1.99920     4.17856    0.01475     6.19251
      C    7   -0.20597      1.99910     4.19138    0.01549     6.20597
      C    8   -0.34857      1.99899     4.32533    0.02425     6.34857
      H    9    0.22146      0.00000     0.77614    0.00240     0.77854
      H   10    0.21942      0.00000     0.77933    0.00124     0.78058
      H   11    0.22162      0.00000     0.77720    0.00118     0.77838
      H   12    0.22187      0.00000     0.77690    0.00123     0.77813
      H   13    0.21891      0.00000     0.77917    0.00192     0.78109
      C   14   -0.20781      1.99909     4.19283    0.01589     6.20781
      C   15   -0.19259      1.99920     4.17857    0.01483     6.19259
      C   16   -0.18139      1.99920     4.16758    0.01461     6.18139
      C   17   -0.19534      1.99920     4.18165    0.01450     6.19534
      C   18   -0.18846      1.99910     4.17373    0.01563     6.18846
      C   19   -0.33749      1.99898     4.31379    0.02473     6.33749
      H   20    0.21360      0.00000     0.78437    0.00203     0.78640
      H   21    0.22127      0.00000     0.77748    0.00125     0.77873
      H   22    0.22141      0.00000     0.77741    0.00118     0.77859
      H   23    0.21986      0.00000     0.77890    0.00124     0.78014
      H   24    0.22425      0.00000     0.77385    0.00191     0.77575
      C   25   -0.19967      1.99909     4.18525    0.01533     6.19967
      C   26   -0.19357      1.99920     4.17968    0.01470     6.19357
      C   27   -0.18690      1.99920     4.17291    0.01478     6.18690
      C   28   -0.19272      1.99919     4.17879    0.01474     6.19272
      C   29   -0.20833      1.99909     4.19394    0.01530     6.20833
      C   30   -0.34012      1.99898     4.31714    0.02400     6.34012
      H   31    0.21857      0.00000     0.77913    0.00229     0.78143
      H   32    0.21829      0.00000     0.78046    0.00125     0.78171
      H   33    0.22105      0.00000     0.77777    0.00118     0.77895
      H   34    0.22111      0.00000     0.77766    0.00124     0.77889
      H   35    0.21840      0.00000     0.77969    0.00191     0.78160
      C   36   -0.18932      1.99909     4.17476    0.01546     6.18932
      C   37   -0.19781      1.99919     4.18403    0.01459     6.19781
      C   38   -0.18250      1.99920     4.16851    0.01479     6.18250
      C   39   -0.19647      1.99919     4.18204    0.01524     6.19647
      C   40   -0.20006      1.99909     4.18439    0.01658     6.20006
      C   41   -0.34164      1.99897     4.31790    0.02477     6.34164
      H   42    0.22298      0.00000     0.77512    0.00190     0.77702
      H   43    0.21941      0.00000     0.77933    0.00126     0.78059
      H   44    0.22112      0.00000     0.77770    0.00118     0.77888
      H   45    0.22086      0.00000     0.77784    0.00130     0.77914
      H   46    0.21984      0.00000     0.77768    0.00248     0.78016
      C   47   -0.80372      1.99902     4.77854    0.02616     6.80372
     Rh   48   -0.37521     35.98589     9.36100    0.02831    45.37521
      C   49   -0.17928      1.99906     4.16071    0.01950     6.17928
      C   50   -0.16215      1.99907     4.14328    0.01979     6.16215
      C   51   -0.18050      1.99907     4.16188    0.01956     6.18050
      C   52   -0.16270      1.99907     4.14382    0.01980     6.16270
      C   53   -0.42236      1.99936     4.41123    0.01177     6.42236
      H   54    0.22722      0.00000     0.77079    0.00199     0.77278
      H   55    0.22867      0.00000     0.76914    0.00219     0.77133
      C   56   -0.41715      1.99935     4.40524    0.01256     6.41715
      C   57   -0.42220      1.99936     4.41107    0.01176     6.42220
      H   58    0.22606      0.00000     0.77196    0.00197     0.77394
      C   59   -0.41690      1.99935     4.40498    0.01257     6.41690
      H   60    0.22757      0.00000     0.77025    0.00217     0.77243
      H   61    0.22620      0.00000     0.77230    0.00150     0.77380
      H   62    0.21292      0.00000     0.78507    0.00200     0.78708
      H   63    0.23056      0.00000     0.76750    0.00194     0.76944
      H   64    0.21525      0.00000     0.78322    0.00153     0.78475
      H   65    0.21283      0.00000     0.78516    0.00200     0.78717
      H   66    0.22612      0.00000     0.77238    0.00150     0.77388
      H   67    0.21501      0.00000     0.78345    0.00154     0.78499
      H   68    0.23036      0.00000     0.76770    0.00194     0.76964
      C   69    0.31884      1.99890     3.65762    0.02464     5.68116
      C   70   -0.44684      1.99932     4.43562    0.01191     6.44684
      H   71    0.23018      0.00000     0.76697    0.00285     0.76982
      H   72    0.22074      0.00000     0.77645    0.00281     0.77926
      N   73   -0.54366      1.99941     5.52621    0.01805     7.54366
      H   74    0.40366      0.00000     0.59289    0.00345     0.59634
      C   75    0.09593      1.99886     3.88821    0.01701     5.90407
      C   76   -0.20507      1.99908     4.19139    0.01460     6.20507
      C   77   -0.20688      1.99907     4.19401    0.01380     6.20688
      C   78   -0.19092      1.99912     4.17806    0.01375     6.19092
      H   79    0.21844      0.00000     0.77996    0.00161     0.78156
      C   80   -0.19237      1.99912     4.17941    0.01384     6.19237
      H   81    0.21537      0.00000     0.78304    0.00160     0.78463
      C   82    0.00083      1.99914     3.98586    0.01417     5.99917
      H   83    0.21586      0.00000     0.78279    0.00136     0.78414
      H   84    0.21539      0.00000     0.78323    0.00139     0.78461
      C   85   -0.37227      1.99940     4.36251    0.01036     6.37227
      H   86    0.20205      0.00000     0.79536    0.00259     0.79795
      H   87    0.20040      0.00000     0.79691    0.00269     0.79960
      C   88   -0.37803      1.99945     4.36821    0.01037     6.37803
      H   89    0.18876      0.00000     0.80919    0.00206     0.81124
      H   90    0.19578      0.00000     0.80255    0.00167     0.80422
      C   91   -0.58782      1.99947     4.58202    0.00633     6.58782
      H   92    0.21210      0.00000     0.78683    0.00107     0.78790
      H   93    0.19878      0.00000     0.79975    0.00147     0.80122
      H   94    0.20004      0.00000     0.79863    0.00134     0.79996
      C   95   -0.61644      1.99941     4.60980    0.00723     6.61644
      H   96    0.22449      0.00000     0.77412    0.00138     0.77551
      H   97    0.21908      0.00000     0.77967    0.00125     0.78092
      H   98    0.21904      0.00000     0.77970    0.00126     0.78096
 =======================================================================
   * Total *    1.00000    147.93983   251.10382    0.95635   400.00000

 Normal termination of Gaussian 16 at Mon Jan 20 01:40:55 2025.
