 Gaussian 16, Revision B.01,
 Gaussian 16:  ES64L-G16RevB.01 20-Dec-2017

 ------------------------------------------
 # nmr=giao b3lyp/genecp pop=nbo scfcyc=200
 ------------------------------------------

 ---------
 DS-36_SPE
 ---------
 Symbolic Z-matrix:
 Charge =  1 Multiplicity = 1

                         Standard orientation:
 ---------------------------------------------------------------------
 Center     Atomic      Atomic             Coordinates (Angstroms)
 Number     Number       Type             X           Y           Z
 ---------------------------------------------------------------------
      1         15           0        0.668355   -1.303527   -0.076219
      2         15           0        0.416573    1.465972   -0.097719
      3          6           0        1.740558    0.205968   -0.674949
      4          6           0        0.666372   -2.917607    2.289451
      5          6           0        1.374354   -3.331664    3.581451
      6          6           0        2.143225   -3.524291   -1.311099
      7          6           0        2.054540   -4.724211   -2.258089
      8          6           0        0.093965    3.129400    2.196091
      9          6           0        0.621983    3.591273    3.556261
     10          6           0        1.737632    3.809118   -1.199509
     11          6           0        1.667767    4.953937   -2.212989
     12          1           0        0.528426   -3.799428    1.656901
     13          1           0       -0.333159   -2.544262    2.526061
     14          1           0        0.802038   -4.094797    4.111151
     15          1           0        1.497800   -2.480654    4.255131
     16          1           0        2.365726   -3.742350    3.377211
     17          1           0        2.445517   -3.870729   -0.319899
     18          1           0        2.930962   -2.850787   -1.657359
     19          1           0        3.010293   -5.247747   -2.311389
     20          1           0        1.302034   -5.440354   -1.920449
     21          1           0        1.788669   -4.412512   -3.270689
     22          1           0       -0.909473    2.712926    2.318671
     23          1           0       -0.006988    3.996580    1.537601
     24          1           0       -0.041230    4.336560    3.998211
     25          1           0        0.697177    2.755793    4.256031
     26          1           0        1.613391    4.040407    3.464951
     27          1           0        2.611435    3.186701   -1.406249
     28          1           0        1.889221    4.221628   -0.199619
     29          1           0        2.575005    5.559031   -2.177249
     30          1           0        1.559099    4.577317   -3.232769
     31          1           0        0.820974    5.613353   -2.009179
     32         45           0       -1.343140   -0.078486   -0.079629
     33          6           0       -2.828363   -1.683133   -0.773289
     34          6           0       -2.800773   -1.667443    0.603961
     35          6           0       -3.179066    1.217556    0.329161
     36          6           0       -2.924876    1.223047   -1.026249
     37          6           0       -3.909056   -1.067318   -1.641879
     38          1           0       -2.195340   -2.410130   -1.269459
     39          1           0       -2.174090   -2.405410    1.093771
     40          6           0       -3.774326   -0.971697    1.522381
     41          6           0       -4.257522    0.407581    1.023411
     42          1           0       -2.774240    2.042047    0.905811
     43          6           0       -3.603942    0.381044   -2.077869
     44          1           0       -2.376740    2.070569   -1.423649
     45          1           0       -4.024583   -1.680328   -2.537299
     46          1           0       -4.865856   -1.114332   -1.122609
     47          1           0       -4.638833   -1.621691    1.706541
     48          1           0       -3.284837   -0.848435    2.491101
     49          1           0       -5.114832    0.293137    0.360521
     50          1           0       -4.618335    0.976129    1.882051
     51          1           0       -2.955052    0.360507   -2.956179
     52          1           0       -4.529495    0.872860   -2.402629
     53          6           0        0.811382   -2.772377   -1.219629
     54          1           0        0.497590   -2.421328   -2.205479
     55          1           0        0.025075   -3.456740   -0.885689
     56          6           0        1.445738   -1.838044    1.528441
     57          1           0        1.547714   -0.943073    2.143461
     58          1           0        2.460679   -2.180109    1.314311
     59          6           0        1.012020    2.081764    1.553481
     60          1           0        2.023708    2.467769    1.422021
     61          1           0        1.091874    1.211465    2.206181
     62          6           0        0.464586    2.952482   -1.218969
     63          1           0       -0.401816    3.559778   -0.939849
     64          1           0        0.259668    2.587481   -2.228109
     65          6           0        1.854098    0.201328   -2.200909
     66          1           0        2.333674    1.116520   -2.550769
     67          1           0        2.443412   -0.643249   -2.557929
     68          1           0        0.868459    0.133654   -2.663209
     69          6           0        5.253969    0.157323    0.536351
     70          1           0        6.182761   -0.335823    0.243961
     71          1           0        5.419934    1.235044    0.517811
     72          1           0        5.014690   -0.138718    1.558371
     73          6           0        4.144390   -0.231282   -0.417249
     74          1           0        4.400079    0.055899   -1.440739
     75          1           0        3.978895   -1.313512   -0.399809
     76          8           0        2.946797    0.451503    0.000791
 ---------------------------------------------------------------------

 SCF Done:  E(RB3LYP) =  -1812.26241690     A.U. after   15 cycles

      1  P    Isotropic =   274.5147   Anisotropy =    38.9387

      2  P    Isotropic =   272.2631   Anisotropy =    49.2155

      3  C    Isotropic =    77.0326   Anisotropy =    57.5345

      4  C    Isotropic =   161.7658   Anisotropy =    16.7790

      5  C    Isotropic =   167.5094   Anisotropy =    32.2053

      6  C    Isotropic =   161.3114   Anisotropy =    17.0292

      7  C    Isotropic =   168.1379   Anisotropy =    31.8053

      8  C    Isotropic =   162.7062   Anisotropy =    15.8148

      9  C    Isotropic =   167.5625   Anisotropy =    32.0973

     10  C    Isotropic =   162.5766   Anisotropy =    18.9867

     11  C    Isotropic =   168.2026   Anisotropy =    32.0884

     12  H    Isotropic =    30.6385   Anisotropy =     5.0874

     13  H    Isotropic =    30.3938   Anisotropy =     7.6974

     14  H    Isotropic =    30.4261   Anisotropy =    12.2098

     15  H    Isotropic =    30.8668   Anisotropy =     8.4026

     16  H    Isotropic =    30.9152   Anisotropy =     9.3072

     17  H    Isotropic =    30.4336   Anisotropy =     5.2108

     18  H    Isotropic =    30.6322   Anisotropy =     6.3010

     19  H    Isotropic =    30.4720   Anisotropy =    12.3481

     20  H    Isotropic =    30.9868   Anisotropy =     9.2246

     21  H    Isotropic =    30.9361   Anisotropy =     8.9096

     22  H    Isotropic =    30.4773   Anisotropy =     7.3603

     23  H    Isotropic =    30.6649   Anisotropy =     5.6452

     24  H    Isotropic =    30.4370   Anisotropy =    12.2511

     25  H    Isotropic =    30.8924   Anisotropy =     8.3334

     26  H    Isotropic =    30.8404   Anisotropy =     9.3436

     27  H    Isotropic =    30.4556   Anisotropy =     6.4251

     28  H    Isotropic =    30.3279   Anisotropy =     5.2131

     29  H    Isotropic =    30.4911   Anisotropy =    12.3692

     30  H    Isotropic =    30.9679   Anisotropy =     8.7395

     31  H    Isotropic =    31.0197   Anisotropy =     9.4592

     32  Rh   Isotropic =  -276.6508   Anisotropy =   303.8136

     33  C    Isotropic =    76.6938   Anisotropy =   124.5717

     34  C    Isotropic =    78.2538   Anisotropy =   115.6334

     35  C    Isotropic =    80.5636   Anisotropy =   119.8953

     36  C    Isotropic =    76.4039   Anisotropy =   117.7730

     37  C    Isotropic =   153.8865   Anisotropy =    25.3677

     38  H    Isotropic =    27.0438   Anisotropy =     6.5600

     39  H    Isotropic =    26.4438   Anisotropy =     4.7809

     40  C    Isotropic =   148.0934   Anisotropy =    30.0302

     41  C    Isotropic =   154.1633   Anisotropy =    24.7895

     42  H    Isotropic =    27.0967   Anisotropy =     7.0736

     43  C    Isotropic =   147.1839   Anisotropy =    30.9189

     44  H    Isotropic =    26.5753   Anisotropy =     4.5778

     45  H    Isotropic =    29.9049   Anisotropy =    11.5333

     46  H    Isotropic =    29.7346   Anisotropy =     9.5202

     47  H    Isotropic =    29.1096   Anisotropy =    12.6179

     48  H    Isotropic =    29.2681   Anisotropy =     7.7214

     49  H    Isotropic =    29.7712   Anisotropy =     9.6737

     50  H    Isotropic =    29.8730   Anisotropy =    11.5856

     51  H    Isotropic =    29.3018   Anisotropy =     7.6292

     52  H    Isotropic =    29.1367   Anisotropy =    12.6740

     53  C    Isotropic =   154.3329   Anisotropy =    44.9215

     54  H    Isotropic =    30.4362   Anisotropy =     3.6830

     55  H    Isotropic =    30.4110   Anisotropy =     4.1251

     56  C    Isotropic =   153.7956   Anisotropy =    30.5733

     57  H    Isotropic =    30.2449   Anisotropy =     5.5225

     58  H    Isotropic =    30.0868   Anisotropy =     5.1151

     59  C    Isotropic =   154.0970   Anisotropy =    25.8960

     60  H    Isotropic =    29.4484   Anisotropy =     4.9937

     61  H    Isotropic =    30.4171   Anisotropy =     5.9094

     62  C    Isotropic =   154.9398   Anisotropy =    45.8718

     63  H    Isotropic =    30.3678   Anisotropy =     4.6611

     64  H    Isotropic =    30.3424   Anisotropy =     3.8172

     65  C    Isotropic =   166.1027   Anisotropy =    19.8821

     66  H    Isotropic =    30.4696   Anisotropy =     8.7346

     67  H    Isotropic =    30.1068   Anisotropy =     7.1932

     68  H    Isotropic =    29.9504   Anisotropy =     3.8809

     69  C    Isotropic =   169.1651   Anisotropy =    26.7686

     70  H    Isotropic =    30.7030   Anisotropy =    11.8611

     71  H    Isotropic =    30.5662   Anisotropy =     8.4179

     72  H    Isotropic =    30.6114   Anisotropy =     6.5585

     73  C    Isotropic =   117.5246   Anisotropy =    68.6294

     74  H    Isotropic =    28.2009   Anisotropy =     7.6444

     75  H    Isotropic =    28.8004   Anisotropy =     5.0107

     76  O    Isotropic =   231.0397   Anisotropy =    41.2852

 The electronic state is 1-A.
 Alpha  occ. eigenvalues --  -77.23019 -77.22969 -19.25097 -10.36747 -10.32598
 Alpha  occ. eigenvalues --  -10.29663 -10.29408 -10.29406 -10.29308 -10.29267
 Alpha  occ. eigenvalues --  -10.29220 -10.29016 -10.28838 -10.28772 -10.28134
 Alpha  occ. eigenvalues --  -10.27906 -10.27807 -10.27736 -10.27634 -10.27609
 Alpha  occ. eigenvalues --  -10.27577 -10.27486 -10.25740 -10.25619 -10.25405
 Alpha  occ. eigenvalues --  -10.25257 -10.25143  -6.69097  -6.69038  -4.85379
 Alpha  occ. eigenvalues --   -4.85305  -4.85285  -4.85239  -4.85007  -4.84948
 Alpha  occ. eigenvalues --   -3.31645  -2.08536  -2.07865  -2.05114  -1.15529
 Alpha  occ. eigenvalues --   -0.94719  -0.92310  -0.91063  -0.89443  -0.89299
 Alpha  occ. eigenvalues --   -0.89055  -0.88853  -0.88267  -0.85154  -0.82391
 Alpha  occ. eigenvalues --   -0.82021  -0.80581  -0.78967  -0.78581  -0.78087
 Alpha  occ. eigenvalues --   -0.76182  -0.72208  -0.71159  -0.70842  -0.70468
 Alpha  occ. eigenvalues --   -0.69889  -0.69338  -0.66165  -0.65883  -0.65309
 Alpha  occ. eigenvalues --   -0.62746  -0.60441  -0.59991  -0.59423  -0.58680
 Alpha  occ. eigenvalues --   -0.58397  -0.57591  -0.57282  -0.56908  -0.56477
 Alpha  occ. eigenvalues --   -0.56002  -0.54362  -0.53895  -0.53842  -0.53332
 Alpha  occ. eigenvalues --   -0.53063  -0.52883  -0.52039  -0.51910  -0.51699
 Alpha  occ. eigenvalues --   -0.51139  -0.51041  -0.50377  -0.50248  -0.49549
 Alpha  occ. eigenvalues --   -0.49159  -0.48830  -0.48558  -0.48451  -0.48259
 Alpha  occ. eigenvalues --   -0.48131  -0.47559  -0.46552  -0.46302  -0.46166
 Alpha  occ. eigenvalues --   -0.45846  -0.45218  -0.45061  -0.44886  -0.44457
 Alpha  occ. eigenvalues --   -0.44261  -0.43953  -0.43837  -0.43726  -0.43471
 Alpha  occ. eigenvalues --   -0.43276  -0.43116  -0.42791  -0.42622  -0.41112
 Alpha  occ. eigenvalues --   -0.40718  -0.37594  -0.36763  -0.35943  -0.35103
 Alpha  occ. eigenvalues --   -0.34663  -0.33889  -0.30958
 Alpha virt. eigenvalues --   -0.16385  -0.13565  -0.09847  -0.09133  -0.07953
 Alpha virt. eigenvalues --   -0.07809  -0.07435  -0.07298  -0.06824  -0.06074
 Alpha virt. eigenvalues --   -0.05573  -0.05365  -0.05178  -0.04783  -0.04161

 Mulliken charges:
               1
     1  P    0.356204
     2  P    0.382172
     3  C   -0.080078
     4  C   -0.227504
     5  C   -0.364494
     6  C   -0.222440
     7  C   -0.363329
     8  C   -0.221808
     9  C   -0.365128
    10  C   -0.218383
    11  C   -0.355192
    12  H    0.131069
    13  H    0.120908
    14  H    0.146655
    15  H    0.121829
    16  H    0.123821
    17  H    0.137276
    18  H    0.116637
    19  H    0.147367
    20  H    0.124898
    21  H    0.121084
    22  H    0.112612
    23  H    0.132585
    24  H    0.145414
    25  H    0.120970
    26  H    0.124430
    27  H    0.134326
    28  H    0.135565
    29  H    0.147173
    30  H    0.119168
    31  H    0.121439
    32  Rh  -0.538988
    33  C   -0.018168
    34  C   -0.105233
    35  C   -0.025909
    36  C   -0.116384
    37  C   -0.353207
    38  H    0.182482
    39  H    0.183594
    40  C   -0.222661
    41  C   -0.345183
    42  H    0.176780
    43  C   -0.213717
    44  H    0.192823
    45  H    0.167926
    46  H    0.169347
    47  H    0.172346
    48  H    0.131205
    49  H    0.167374
    50  H    0.168999
    51  H    0.127672
    52  H    0.171180
    53  C   -0.334647
    54  H    0.161043
    55  H    0.168086
    56  C   -0.292113
    57  H    0.154913
    58  H    0.155501
    59  C   -0.278399
    60  H    0.189262
    61  H    0.127768
    62  C   -0.373554
    63  H    0.177063
    64  H    0.163737
    65  C   -0.508032
    66  H    0.176824
    67  H    0.173990
    68  H    0.168012
    69  C   -0.357534
    70  H    0.135172
    71  H    0.134242
    72  H    0.128619
    73  C   -0.065231
    74  H    0.138190
    75  H    0.105595
    76  O   -0.226036
 Sum of Mulliken charges =   1.00000

 Dipole moment (field-independent basis, Debye):
    X=              0.7696    Y=             -0.5565    Z=             -1.0798  Tot=              1.4380
 Quadrupole moment (field-independent basis, Debye-Ang):
   XX=           -164.5855   YY=           -170.5676   ZZ=           -186.1630
   XY=             -2.1334   XZ=             -3.0352   YZ=             -0.0726

 Summary of Natural Population Analysis:

                                       Natural Population
                Natural  -----------------------------------------------
    Atom  No    Charge         Core      Valence    Rydberg      Total
 -----------------------------------------------------------------------
      P    1    1.06173      9.99661     3.89256    0.04909    13.93827
      P    2    1.12064      9.99655     3.83198    0.05084    13.87936
      C    3   -0.17396      1.99931     4.14026    0.03440     6.17396
      C    4   -0.38387      1.99944     4.37454    0.00989     6.38387
      C    5   -0.58597      1.99947     4.58012    0.00638     6.58597
      C    6   -0.38990      1.99944     4.37963    0.01084     6.38990
      C    7   -0.58613      1.99946     4.58020    0.00647     6.58613
      C    8   -0.38576      1.99943     4.37600    0.01033     6.38576
      C    9   -0.58497      1.99947     4.57928    0.00622     6.58497
      C   10   -0.38930      1.99944     4.37877    0.01109     6.38930
      C   11   -0.58691      1.99947     4.58115    0.00629     6.58691
      H   12    0.19375      0.00000     0.80424    0.00200     0.80625
      H   13    0.19988      0.00000     0.79834    0.00178     0.80012
      H   14    0.21843      0.00000     0.78051    0.00106     0.78157
      H   15    0.20274      0.00000     0.79584    0.00142     0.79726
      H   16    0.20357      0.00000     0.79515    0.00127     0.79643
      H   17    0.19810      0.00000     0.80010    0.00180     0.80190
      H   18    0.19223      0.00000     0.80562    0.00216     0.80777
      H   19    0.21942      0.00000     0.77951    0.00107     0.78058
      H   20    0.20429      0.00000     0.79430    0.00141     0.79571
      H   21    0.20279      0.00000     0.79579    0.00143     0.79721
      H   22    0.20055      0.00000     0.79763    0.00182     0.79945
      H   23    0.19425      0.00000     0.80376    0.00199     0.80575
      H   24    0.21749      0.00000     0.78144    0.00107     0.78251
      H   25    0.20165      0.00000     0.79694    0.00141     0.79835
      H   26    0.20462      0.00000     0.79407    0.00132     0.79538
      H   27    0.19828      0.00000     0.79941    0.00231     0.80172
      H   28    0.19975      0.00000     0.79851    0.00175     0.80025
      H   29    0.21929      0.00000     0.77964    0.00106     0.78071
      H   30    0.20110      0.00000     0.79748    0.00142     0.79890
      H   31    0.20381      0.00000     0.79477    0.00142     0.79619
     Rh   32   -0.41777     35.98558     9.40596    0.02622    45.41777
      C   33   -0.16494      1.99906     4.14607    0.01981     6.16494
      C   34   -0.16999      1.99907     4.15064    0.02029     6.16999
      C   35   -0.18279      1.99906     4.16377    0.01996     6.18279
      C   36   -0.15359      1.99907     4.13420    0.02032     6.15359
      C   37   -0.42481      1.99936     4.41335    0.01210     6.42481
      H   38    0.22030      0.00000     0.77754    0.00216     0.77970
      H   39    0.22318      0.00000     0.77474    0.00208     0.77682
      C   40   -0.41899      1.99935     4.40683    0.01280     6.41899
      C   41   -0.42321      1.99936     4.41190    0.01194     6.42321
      H   42    0.22320      0.00000     0.77439    0.00240     0.77680
      C   43   -0.41817      1.99935     4.40601    0.01281     6.41817
      H   44    0.22081      0.00000     0.77706    0.00213     0.77919
      H   45    0.22817      0.00000     0.77041    0.00142     0.77183
      H   46    0.21509      0.00000     0.78298    0.00193     0.78491
      H   47    0.23384      0.00000     0.76432    0.00184     0.76616
      H   48    0.21591      0.00000     0.78254    0.00155     0.78409
      H   49    0.21436      0.00000     0.78370    0.00195     0.78564
      H   50    0.22872      0.00000     0.76985    0.00144     0.77128
      H   51    0.21447      0.00000     0.78396    0.00157     0.78553
      H   52    0.23346      0.00000     0.76471    0.00183     0.76654
      C   53   -0.68379      1.99937     4.67020    0.01421     6.68379
      H   54    0.23460      0.00000     0.76358    0.00182     0.76540
      H   55    0.23369      0.00000     0.76440    0.00192     0.76631
      C   56   -0.67817      1.99937     4.66270    0.01610     6.67817
      H   57    0.23340      0.00000     0.76433    0.00226     0.76660
      H   58    0.22489      0.00000     0.77249    0.00263     0.77511
      C   59   -0.67474      1.99936     4.65955    0.01583     6.67474
      H   60    0.23973      0.00000     0.75773    0.00254     0.76027
      H   61    0.22839      0.00000     0.76945    0.00216     0.77161
      C   62   -0.68708      1.99937     4.67388    0.01383     6.68708
      H   63    0.23486      0.00000     0.76338    0.00175     0.76514
      H   64    0.23278      0.00000     0.76535    0.00187     0.76722
      C   65   -0.66147      1.99933     4.65082    0.01131     6.66147
      H   66    0.22595      0.00000     0.77212    0.00193     0.77405
      H   67    0.22206      0.00000     0.77610    0.00185     0.77794
      H   68    0.23093      0.00000     0.76785    0.00123     0.76907
      C   69   -0.60311      1.99946     4.59673    0.00692     6.60311
      H   70    0.22091      0.00000     0.77809    0.00100     0.77909
      H   71    0.21494      0.00000     0.78380    0.00126     0.78506
      H   72    0.21074      0.00000     0.78794    0.00132     0.78926
      C   73   -0.06754      1.99927     4.05337    0.01491     6.06754
      H   74    0.16843      0.00000     0.82918    0.00240     0.83157
      H   75    0.16031      0.00000     0.83716    0.00253     0.83969
      O   76   -0.54953      1.99976     6.52586    0.02391     8.54953
 =======================================================================
   * Total *    1.00000    105.96264   167.47851    0.55885   274.00000

 Normal termination of Gaussian 16 at Mon Jan 20 01:06:24 2025.
