 Gaussian 16, Revision B.01,
 Gaussian 16:  ES64L-G16RevB.01 20-Dec-2017

 ------------------------------------------
 # nmr=giao b3lyp/genecp pop=nbo scfcyc=200
 ------------------------------------------

 ---------
 DS-44_SPE
 ---------
 Symbolic Z-matrix:
 Charge =  1 Multiplicity = 1

                         Standard orientation:
 ---------------------------------------------------------------------
 Center     Atomic      Atomic             Coordinates (Angstroms)
 Number     Number       Type             X           Y           Z
 ---------------------------------------------------------------------
      1         15           0        0.577466   -1.326581    0.055029
      2         15           0       -0.519116    1.273492    0.059339
      3          6           0        1.292381    0.466747   -0.121801
      4          6           0        0.455820   -3.247611    2.166229
      5          6           0        0.739189   -3.609142    3.629019
      6          6           0        3.103212   -2.610019   -0.548321
      7          6           0        3.888900   -3.501531   -1.517751
      8          6           0       -2.401854    2.148658    2.013899
      9          6           0       -2.697172    2.596149    3.450689
     10          6           0        0.062382    4.102580   -0.368311
     11          6           0       -0.048584    5.299491   -1.321201
     12          1           0        0.968958   -3.963642    1.517429
     13          1           0       -0.614560   -3.361358    1.970389
     14          1           0        0.224931   -2.895720    4.281529
     15          1           0        1.809260   -3.490035    3.827479
     16          1           0        3.155191   -3.046479    0.453439
     17          1           0        3.581455   -1.629600   -0.486851
     18          1           0        3.397717   -4.477619   -1.590111
     19          1           0        3.848371   -3.063841   -2.520361
     20          1           0       -3.026676    1.286220    1.767889
     21          1           0       -2.689251    2.951079    1.326689
     22          1           0       -2.407845    1.797498    4.141679
     23          1           0       -2.067730    3.457327    3.697259
     24          1           0        1.119411    3.904507   -0.166431
     25          1           0       -0.389437    4.372032    0.590409
     26          1           0        0.411915    5.040229   -2.279981
     27          1           0       -1.105274    5.492884   -1.532411
     28         45           0       -1.569792   -0.715125   -0.655231
     29          6           0       -2.107928   -2.578983   -1.862011
     30          6           0       -2.615848   -2.708912   -0.586341
     31          6           0       -3.729660   -0.047868   -1.018341
     32          6           0       -2.986030    0.183420   -2.156811
     33          6           0       -2.905557   -2.203691   -3.096561
     34          1           0       -1.145429   -3.037716   -2.057141
     35          1           0       -2.031060   -3.288673    0.120439
     36          6           0       -4.031587   -2.436077   -0.142731
     37          6           0       -4.686414   -1.206035   -0.807421
     38          1           0       -3.857318    0.788562   -0.340791
     39          6           0       -2.913142   -0.688431   -3.385881
     40          1           0       -2.613227    1.190708   -2.308621
     41          1           0       -2.474248   -2.717512   -3.957241
     42          1           0       -3.924218   -2.579408   -3.003721
     43          1           0       -4.651640   -3.324846   -0.314821
     44          1           0       -4.016347   -2.289867    0.939709
     45          1           0       -5.141604   -1.484824   -1.757531
     46          1           0       -5.506603   -0.867223   -0.172231
     47          1           0       -2.001011   -0.423813   -3.924881
     48          1           0       -3.742831   -0.442878   -4.060821
     49          6           0        1.641093   -2.445304   -0.977521
     50          1           0        1.579284   -2.036644   -1.987191
     51          1           0        1.133400   -3.414563   -0.995831
     52          6           0        0.894185   -1.817632    1.823669
     53          1           0        0.355227   -1.111860    2.458859
     54          1           0        1.960345   -1.686135    2.021829
     55          6           0       -0.925085    1.782003    1.813189
     56          1           0       -0.288812    2.619562    2.099639
     57          1           0       -0.667737    0.944803    2.463899
     58          6           0       -0.615262    2.848982   -0.931351
     59          1           0       -1.685001    3.035596   -1.065711
     60          1           0       -0.227292    2.602071   -1.921181
     61          6           0       -4.166241    2.956613    3.670579
     62          1           0       -4.343280    3.270854    4.700289
     63          1           0       -4.476349    3.775964    3.017379
     64          1           0       -4.819134    2.103855    3.468599
     65          6           0        0.602479    6.565169   -0.764011
     66          1           0        1.668219    6.414196   -0.574771
     67          1           0        0.506562    7.396279   -1.464271
     68          1           0        0.137040    6.870280    0.176399
     69          6           0        5.346829   -3.692495   -1.099891
     70          1           0        5.419728   -4.163385   -0.116371
     71          1           0        5.879287   -4.327507   -1.809801
     72          1           0        5.873932   -2.736487   -1.050691
     73          6           0        0.307645   -5.031750    3.984359
     74          1           0        0.831783   -5.770012    3.372579
     75          1           0        0.522484   -5.257481    5.029969
     76          1           0       -0.765035   -5.172087    3.829519
     77          6           0        2.342114    1.442924    1.905649
     78          1           0        1.903157    2.439675    1.800849
     79          1           0        1.713892    0.858616    2.582239
     80          8           0        2.412942    0.818093    0.613719
     81          6           0        3.754634    1.544930    2.453639
     82          1           0        4.369316    2.096218    1.737849
     83          1           0        4.178722    0.540278    2.525349
     84          6           0        3.789867    2.232559    3.819359
     85          1           0        3.202965    1.685321    4.561109
     86          1           0        4.812747    2.293916    4.191629
     87          1           0        3.398180    3.251251    3.766859
     88          6           0        2.412465    1.625713   -1.981801
     89          1           0        1.878106    1.997985   -2.858751
     90          1           0        2.463487    2.421303   -1.238981
     91          6           0        3.808443    1.166839   -2.369901
     92          1           0        4.320812    0.800648   -1.478001
     93          1           0        3.719481    0.323940   -3.060401
     94          6           0        4.614207    2.292727   -3.020891
     95          1           0        4.740809    3.140237   -2.342591
     96          1           0        5.609466    1.944354   -3.298981
     97          1           0        4.129238    2.660498   -3.928441
     98          8           0        1.620381    0.518066   -1.477731
 ---------------------------------------------------------------------

 SCF Done:  E(RB3LYP) =  -2162.78078436     A.U. after   15 cycles

      1  P    Isotropic =   249.6815   Anisotropy =    63.6014

      2  P    Isotropic =   233.8481   Anisotropy =   106.6942

      3  C    Isotropic =    45.5898   Anisotropy =    30.6312

      4  C    Isotropic =   153.7863   Anisotropy =    32.2290

      5  C    Isotropic =   154.1282   Anisotropy =    29.0720

      6  C    Isotropic =   154.3698   Anisotropy =    33.7010

      7  C    Isotropic =   154.8698   Anisotropy =    28.7485

      8  C    Isotropic =   151.3862   Anisotropy =    34.1567

      9  C    Isotropic =   154.2416   Anisotropy =    28.6239

     10  C    Isotropic =   152.0562   Anisotropy =    33.2767

     11  C    Isotropic =   155.0476   Anisotropy =    28.3835

     12  H    Isotropic =    30.7132   Anisotropy =     5.1590

     13  H    Isotropic =    30.6137   Anisotropy =     6.6633

     14  H    Isotropic =    30.5156   Anisotropy =     5.5020

     15  H    Isotropic =    30.4456   Anisotropy =     6.1811

     16  H    Isotropic =    30.6379   Anisotropy =     5.7054

     17  H    Isotropic =    30.3663   Anisotropy =     6.9493

     18  H    Isotropic =    30.6442   Anisotropy =     6.9738

     19  H    Isotropic =    30.5108   Anisotropy =     5.4938

     20  H    Isotropic =    30.4951   Anisotropy =     7.9222

     21  H    Isotropic =    30.8447   Anisotropy =     5.1157

     22  H    Isotropic =    30.4988   Anisotropy =     5.5976

     23  H    Isotropic =    30.5213   Anisotropy =     6.5026

     24  H    Isotropic =    30.7112   Anisotropy =     5.4970

     25  H    Isotropic =    30.3816   Anisotropy =     5.5037

     26  H    Isotropic =    30.5190   Anisotropy =     5.5585

     27  H    Isotropic =    30.5338   Anisotropy =     6.8464

     28  Rh   Isotropic =  -274.1491   Anisotropy =   298.2689

     29  C    Isotropic =    79.3042   Anisotropy =   121.4069

     30  C    Isotropic =    79.6695   Anisotropy =   113.4124

     31  C    Isotropic =    81.8541   Anisotropy =   118.0363

     32  C    Isotropic =    75.4988   Anisotropy =   118.8093

     33  C    Isotropic =   154.0217   Anisotropy =    25.1294

     34  H    Isotropic =    27.0827   Anisotropy =     6.5439

     35  H    Isotropic =    26.4498   Anisotropy =     5.6266

     36  C    Isotropic =   147.1255   Anisotropy =    30.8556

     37  C    Isotropic =   154.3281   Anisotropy =    24.4031

     38  H    Isotropic =    27.1995   Anisotropy =     6.6743

     39  C    Isotropic =   147.5070   Anisotropy =    30.7988

     40  H    Isotropic =    26.5269   Anisotropy =     4.1345

     41  H    Isotropic =    29.8939   Anisotropy =    11.5163

     42  H    Isotropic =    29.7683   Anisotropy =     9.7180

     43  H    Isotropic =    29.0942   Anisotropy =    12.7449

     44  H    Isotropic =    29.2772   Anisotropy =     7.5428

     45  H    Isotropic =    29.7952   Anisotropy =     9.7977

     46  H    Isotropic =    29.9175   Anisotropy =    11.3812

     47  H    Isotropic =    29.2089   Anisotropy =     7.4637

     48  H    Isotropic =    29.1726   Anisotropy =    12.7738

     49  C    Isotropic =   155.9912   Anisotropy =    44.3822

     50  H    Isotropic =    29.7657   Anisotropy =     3.0491

     51  H    Isotropic =    30.4749   Anisotropy =     4.6477

     52  C    Isotropic =   155.3974   Anisotropy =    25.0282

     53  H    Isotropic =    30.5100   Anisotropy =     5.8215

     54  H    Isotropic =    29.6781   Anisotropy =     4.3441

     55  C    Isotropic =   149.0935   Anisotropy =    32.8204

     56  H    Isotropic =    29.6856   Anisotropy =     4.5508

     57  H    Isotropic =    30.1451   Anisotropy =     5.6040

     58  C    Isotropic =   155.6370   Anisotropy =    40.7685

     59  H    Isotropic =    30.2505   Anisotropy =     4.6661

     60  H    Isotropic =    30.1592   Anisotropy =     3.1686

     61  C    Isotropic =   169.0169   Anisotropy =    29.4533

     62  H    Isotropic =    30.5444   Anisotropy =    12.1667

     63  H    Isotropic =    31.0027   Anisotropy =     8.5127

     64  H    Isotropic =    31.0074   Anisotropy =     7.8024

     65  C    Isotropic =   169.2258   Anisotropy =    29.2936

     66  H    Isotropic =    31.0197   Anisotropy =     7.7159

     67  H    Isotropic =    30.5336   Anisotropy =    12.2394

     68  H    Isotropic =    30.9766   Anisotropy =     8.5760

     69  C    Isotropic =   169.1858   Anisotropy =    29.2183

     70  H    Isotropic =    31.0225   Anisotropy =     8.5152

     71  H    Isotropic =    30.5894   Anisotropy =    12.2671

     72  H    Isotropic =    31.0283   Anisotropy =     7.3779

     73  C    Isotropic =   168.9888   Anisotropy =    29.7446

     74  H    Isotropic =    30.9669   Anisotropy =     8.6317

     75  H    Isotropic =    30.5413   Anisotropy =    12.0804

     76  H    Isotropic =    30.9837   Anisotropy =     8.1282

     77  C    Isotropic =   106.5276   Anisotropy =    66.3380

     78  H    Isotropic =    28.4612   Anisotropy =     4.6441

     79  H    Isotropic =    28.4324   Anisotropy =     5.9243

     80  O    Isotropic =   180.9669   Anisotropy =   152.8595

     81  C    Isotropic =   157.3031   Anisotropy =    22.1017

     82  H    Isotropic =    30.1456   Anisotropy =     5.8255

     83  H    Isotropic =    30.1859   Anisotropy =     5.4019

     84  C    Isotropic =   174.5738   Anisotropy =    22.3000

     85  H    Isotropic =    31.1955   Anisotropy =     7.9527

     86  H    Isotropic =    30.5643   Anisotropy =    12.0377

     87  H    Isotropic =    31.1448   Anisotropy =     8.5003

     88  C    Isotropic =   109.8419   Anisotropy =    78.0830

     89  H    Isotropic =    28.1540   Anisotropy =     6.2565

     90  H    Isotropic =    28.3226   Anisotropy =     5.7025

     91  C    Isotropic =   154.7159   Anisotropy =    28.7173

     92  H    Isotropic =    30.1393   Anisotropy =     5.0896

     93  H    Isotropic =    30.1880   Anisotropy =     5.1548

     94  C    Isotropic =   174.5580   Anisotropy =    23.1070

     95  H    Isotropic =    31.2112   Anisotropy =     8.1739

     96  H    Isotropic =    30.6167   Anisotropy =    11.7898

     97  H    Isotropic =    31.1446   Anisotropy =     9.5669

     98  O    Isotropic =   207.9922   Anisotropy =    48.1024

 The electronic state is 1-A.
 Alpha  occ. eigenvalues --  -77.22820 -77.22292 -19.25618 -19.24964 -10.41045
 Alpha  occ. eigenvalues --  -10.32896 -10.31795 -10.29292 -10.29257 -10.29012
 Alpha  occ. eigenvalues --  -10.28945 -10.28763 -10.28674 -10.28472 -10.28265
 Alpha  occ. eigenvalues --  -10.27559 -10.27485 -10.27333 -10.27289 -10.27262
 Alpha  occ. eigenvalues --  -10.27064 -10.27043 -10.26456 -10.26328 -10.25973
 Alpha  occ. eigenvalues --  -10.25941 -10.25763 -10.25534 -10.25051 -10.24993
 Alpha  occ. eigenvalues --  -10.24353 -10.24155 -10.24110 -10.23920 -10.23395
 Alpha  occ. eigenvalues --   -6.68835  -6.68397  -4.85111  -4.85036  -4.84737
 Alpha  occ. eigenvalues --   -4.84669  -4.84585  -4.84302  -3.31117  -2.08009
 Alpha  occ. eigenvalues --   -2.07376  -2.04541  -1.19104  -1.12575  -0.94216
 Alpha  occ. eigenvalues --   -0.91572  -0.91084  -0.89881  -0.89624  -0.89113
 Alpha  occ. eigenvalues --   -0.88919  -0.87931  -0.87785  -0.85307  -0.84509
 Alpha  occ. eigenvalues --   -0.82449  -0.81973  -0.81536  -0.80115  -0.78428
 Alpha  occ. eigenvalues --   -0.77599  -0.76674  -0.75670  -0.73686  -0.73029
 Alpha  occ. eigenvalues --   -0.71948  -0.70327  -0.69600  -0.68662  -0.68255
 Alpha  occ. eigenvalues --   -0.67947  -0.67884  -0.67198  -0.66354  -0.65646
 Alpha  occ. eigenvalues --   -0.65475  -0.62586  -0.62237  -0.60215  -0.59880
 Alpha  occ. eigenvalues --   -0.59101  -0.58366  -0.58215  -0.57508  -0.57268
 Alpha  occ. eigenvalues --   -0.56584  -0.56042  -0.56018  -0.54482  -0.53705
 Alpha  occ. eigenvalues --   -0.53413  -0.53050  -0.52864  -0.52749  -0.52505
 Alpha  occ. eigenvalues --   -0.52365  -0.52190  -0.52114  -0.51907  -0.51615
 Alpha  occ. eigenvalues --   -0.51420  -0.51257  -0.50508  -0.50328  -0.49956
 Alpha  occ. eigenvalues --   -0.49341  -0.48584  -0.48171  -0.47944  -0.47713
 Alpha  occ. eigenvalues --   -0.47469  -0.47111  -0.46659  -0.46392  -0.46140
 Alpha  occ. eigenvalues --   -0.45927  -0.45815  -0.45761  -0.45597  -0.45181
 Alpha  occ. eigenvalues --   -0.45140  -0.44845  -0.44448  -0.44286  -0.43907
 Alpha  occ. eigenvalues --   -0.43701  -0.43489  -0.43400  -0.43099  -0.42949
 Alpha  occ. eigenvalues --   -0.42807  -0.42734  -0.42419  -0.42364  -0.42286
 Alpha  occ. eigenvalues --   -0.42122  -0.42035  -0.41856  -0.41348  -0.41277
 Alpha  occ. eigenvalues --   -0.41087  -0.40324  -0.39381  -0.36460  -0.36282
 Alpha  occ. eigenvalues --   -0.34710  -0.34614  -0.34047  -0.33277  -0.30299
 Alpha virt. eigenvalues --   -0.15663  -0.13089  -0.09333  -0.08726  -0.08345
 Alpha virt. eigenvalues --   -0.07893  -0.07443  -0.07008  -0.06576  -0.05952
 Alpha virt. eigenvalues --   -0.05675  -0.05338  -0.05193  -0.05064  -0.04535

 Mulliken charges:
               1
     1  P    0.428059
     2  P    0.354877
     3  C   -0.053342
     4  C   -0.261328
     5  C   -0.206126
     6  C   -0.263706
     7  C   -0.201001
     8  C   -0.275359
     9  C   -0.205970
    10  C   -0.267878
    11  C   -0.204352
    12  H    0.134430
    13  H    0.105121
    14  H    0.112660
    15  H    0.116420
    16  H    0.120547
    17  H    0.151676
    18  H    0.112301
    19  H    0.113553
    20  H    0.120977
    21  H    0.128785
    22  H    0.114133
    23  H    0.117431
    24  H    0.119582
    25  H    0.132338
    26  H    0.114380
    27  H    0.118596
    28  Rh  -0.525499
    29  C   -0.037272
    30  C   -0.094812
    31  C   -0.031257
    32  C   -0.119507
    33  C   -0.354951
    34  H    0.190488
    35  H    0.185029
    36  C   -0.220607
    37  C   -0.348812
    38  H    0.175625
    39  C   -0.208668
    40  H    0.189678
    41  H    0.167060
    42  H    0.167291
    43  H    0.169294
    44  H    0.127272
    45  H    0.167303
    46  H    0.165797
    47  H    0.128745
    48  H    0.168451
    49  C   -0.326828
    50  H    0.171403
    51  H    0.165342
    52  C   -0.306378
    53  H    0.136844
    54  H    0.185584
    55  C   -0.256054
    56  H    0.163333
    57  H    0.135624
    58  C   -0.344557
    59  H    0.181951
    60  H    0.173108
    61  C   -0.347778
    62  H    0.143706
    63  H    0.116520
    64  H    0.112741
    65  C   -0.351496
    66  H    0.113944
    67  H    0.144440
    68  H    0.116636
    69  C   -0.353746
    70  H    0.114360
    71  H    0.141001
    72  H    0.113654
    73  C   -0.349355
    74  H    0.117940
    75  H    0.142410
    76  H    0.113679
    77  C   -0.055599
    78  H    0.110617
    79  H    0.108446
    80  O   -0.204237
    81  C   -0.223144
    82  H    0.129986
    83  H    0.127363
    84  C   -0.355834
    85  H    0.115115
    86  H    0.150065
    87  H    0.117161
    88  C   -0.010724
    89  H    0.133400
    90  H    0.092385
    91  C   -0.239916
    92  H    0.133277
    93  H    0.125053
    94  C   -0.369340
    95  H    0.114872
    96  H    0.147012
    97  H    0.120057
    98  O   -0.271496
 Sum of Mulliken charges =   1.00000

 Dipole moment (field-independent basis, Debye):
    X=             -0.8907    Y=              0.7618    Z=              0.5222  Tot=              1.2831
 Quadrupole moment (field-independent basis, Debye-Ang):
   XX=           -216.4616   YY=           -214.8572   ZZ=           -228.1497
   XY=              2.8941   XZ=              3.8926   YZ=              0.9081

 Summary of Natural Population Analysis:

                                       Natural Population
                Natural  -----------------------------------------------
    Atom  No    Charge         Core      Valence    Rydberg      Total
 -----------------------------------------------------------------------
      P    1    1.08210      9.99653     3.87045    0.05092    13.91790
      P    2    1.01585      9.99659     3.93799    0.04957    13.98415
      C    3    0.13967      1.99937     3.81842    0.04253     5.86033
      C    4   -0.38382      1.99941     4.37333    0.01108     6.38382
      C    5   -0.37748      1.99945     4.36786    0.01017     6.37748
      C    6   -0.39284      1.99942     4.38030    0.01313     6.39284
      C    7   -0.37677      1.99945     4.36625    0.01107     6.37677
      C    8   -0.38578      1.99941     4.37494    0.01143     6.38578
      C    9   -0.37564      1.99945     4.36615    0.01005     6.37564
      C   10   -0.38961      1.99941     4.37810    0.01210     6.38961
      C   11   -0.37791      1.99945     4.36821    0.01025     6.37791
      H   12    0.19637      0.00000     0.80133    0.00229     0.80363
      H   13    0.19613      0.00000     0.80174    0.00213     0.80387
      H   14    0.19265      0.00000     0.80558    0.00177     0.80735
      H   15    0.19599      0.00000     0.80240    0.00160     0.80401
      H   16    0.19039      0.00000     0.80669    0.00292     0.80961
      H   17    0.20634      0.00000     0.79027    0.00339     0.79366
      H   18    0.19362      0.00000     0.80463    0.00175     0.80638
      H   19    0.19471      0.00000     0.80357    0.00173     0.80529
      H   20    0.20361      0.00000     0.79435    0.00204     0.79639
      H   21    0.19276      0.00000     0.80485    0.00239     0.80724
      H   22    0.19155      0.00000     0.80664    0.00181     0.80845
      H   23    0.19549      0.00000     0.80286    0.00165     0.80451
      H   24    0.19073      0.00000     0.80684    0.00243     0.80927
      H   25    0.19587      0.00000     0.80193    0.00220     0.80413
      H   26    0.19455      0.00000     0.80374    0.00172     0.80545
      H   27    0.19671      0.00000     0.80153    0.00176     0.80329
     Rh   28   -0.40038     35.98545     9.38935    0.02558    45.40038
      C   29   -0.16680      1.99906     4.14786    0.01988     6.16680
      C   30   -0.16731      1.99906     4.14789    0.02037     6.16731
      C   31   -0.18816      1.99906     4.16939    0.01971     6.18816
      C   32   -0.15032      1.99906     4.13093    0.02033     6.15032
      C   33   -0.42389      1.99936     4.41247    0.01206     6.42389
      H   34    0.22210      0.00000     0.77577    0.00213     0.77790
      H   35    0.22218      0.00000     0.77570    0.00212     0.77782
      C   36   -0.41817      1.99935     4.40601    0.01281     6.41817
      C   37   -0.42308      1.99936     4.41170    0.01202     6.42308
      H   38    0.22241      0.00000     0.77545    0.00214     0.77759
      C   39   -0.41856      1.99935     4.40642    0.01280     6.41856
      H   40    0.21974      0.00000     0.77808    0.00218     0.78026
      H   41    0.22787      0.00000     0.77071    0.00142     0.77213
      H   42    0.21372      0.00000     0.78432    0.00196     0.78628
      H   43    0.23233      0.00000     0.76580    0.00187     0.76767
      H   44    0.21443      0.00000     0.78404    0.00153     0.78557
      H   45    0.21385      0.00000     0.78417    0.00198     0.78615
      H   46    0.22693      0.00000     0.77162    0.00145     0.77307
      H   47    0.21705      0.00000     0.78133    0.00162     0.78295
      H   48    0.23185      0.00000     0.76629    0.00186     0.76815
      C   49   -0.67723      1.99937     4.66283    0.01504     6.67723
      H   50    0.25018      0.00000     0.74803    0.00179     0.74982
      H   51    0.22907      0.00000     0.76919    0.00174     0.77093
      C   52   -0.68152      1.99937     4.66794    0.01420     6.68152
      H   53    0.22246      0.00000     0.77528    0.00226     0.77754
      H   54    0.23053      0.00000     0.76632    0.00315     0.76947
      C   55   -0.67848      1.99936     4.66482    0.01430     6.67848
      H   56    0.22445      0.00000     0.77261    0.00294     0.77555
      H   57    0.22539      0.00000     0.77247    0.00213     0.77461
      C   58   -0.68558      1.99936     4.67234    0.01388     6.68558
      H   59    0.23346      0.00000     0.76457    0.00197     0.76654
      H   60    0.23984      0.00000     0.75829    0.00188     0.76016
      C   61   -0.58824      1.99947     4.58267    0.00610     6.58824
      H   62    0.21696      0.00000     0.78198    0.00106     0.78304
      H   63    0.20062      0.00000     0.79806    0.00133     0.79938
      H   64    0.19879      0.00000     0.79983    0.00138     0.80121
      C   65   -0.58840      1.99947     4.58300    0.00593     6.58840
      H   66    0.19880      0.00000     0.79985    0.00136     0.80120
      H   67    0.21743      0.00000     0.78152    0.00105     0.78257
      H   68    0.20057      0.00000     0.79808    0.00135     0.79943
      C   69   -0.58794      1.99947     4.58230    0.00617     6.58794
      H   70    0.19922      0.00000     0.79941    0.00137     0.80078
      H   71    0.21505      0.00000     0.78391    0.00105     0.78495
      H   72    0.19893      0.00000     0.79970    0.00137     0.80107
      C   73   -0.58836      1.99947     4.58292    0.00597     6.58836
      H   74    0.20117      0.00000     0.79748    0.00135     0.79883
      H   75    0.21637      0.00000     0.78258    0.00106     0.78363
      H   76    0.19922      0.00000     0.79940    0.00138     0.80078
      C   77   -0.05735      1.99921     4.04273    0.01540     6.05735
      H   78    0.16392      0.00000     0.83275    0.00333     0.83608
      H   79    0.16316      0.00000     0.83308    0.00376     0.83684
      O   80   -0.54329      1.99973     6.52048    0.02308     8.54329
      C   81   -0.39953      1.99944     4.38838    0.01171     6.39953
      H   82    0.20758      0.00000     0.79084    0.00158     0.79242
      H   83    0.20551      0.00000     0.79289    0.00160     0.79449
      C   84   -0.59335      1.99946     4.58776    0.00613     6.59335
      H   85    0.20070      0.00000     0.79794    0.00136     0.79930
      H   86    0.22261      0.00000     0.77642    0.00097     0.77739
      H   87    0.20157      0.00000     0.79707    0.00136     0.79843
      C   88   -0.06748      1.99920     4.05064    0.01764     6.06748
      H   89    0.17803      0.00000     0.81902    0.00295     0.82197
      H   90    0.17623      0.00000     0.82069    0.00308     0.82377
      C   91   -0.40452      1.99944     4.39480    0.01027     6.40452
      H   92    0.20494      0.00000     0.79307    0.00198     0.79506
      H   93    0.20005      0.00000     0.79798    0.00198     0.79995
      C   94   -0.59375      1.99946     4.58805    0.00624     6.59375
      H   95    0.19982      0.00000     0.79884    0.00134     0.80018
      H   96    0.22000      0.00000     0.77900    0.00100     0.78000
      H   97    0.20222      0.00000     0.79642    0.00136     0.79778
      O   98   -0.54283      1.99976     6.52282    0.02026     8.54283
 =======================================================================
   * Total *    1.00000    121.95810   215.34527    0.69663   338.00000

 Normal termination of Gaussian 16 at Mon Jan 20 11:09:32 2025.
