 Gaussian 16, Revision B.01,
 Gaussian 16:  ES64L-G16RevB.01 20-Dec-2017

 ------------------------------------------
 # nmr=giao b3lyp/genecp pop=nbo scfcyc=200
 ------------------------------------------

 ---------
 DS-49_SPE
 ---------
 Symbolic Z-matrix:
 Charge =  1 Multiplicity = 1

                         Standard orientation:
 ---------------------------------------------------------------------
 Center     Atomic      Atomic             Coordinates (Angstroms)
 Number     Number       Type             X           Y           Z
 ---------------------------------------------------------------------
      1         15           0        1.457870    0.233240   -0.194529
      2         15           0       -1.226820   -0.234221   -0.379459
      3          6           0       -0.011940    1.106330   -1.122669
      4          6           0        5.415300    1.547831   -0.482679
      5          6           0        3.842259    3.679400    1.136421
      6          6           0        3.216411   -2.053230   -3.595929
      7          6           0        4.427101   -2.261769   -0.736989
      8          6           0       -3.671639   -2.982221   -2.252379
      9          6           0       -1.314439   -2.440471   -4.197899
     10          1           0        6.210630    2.276591   -0.659529
     11          1           0        5.682390    0.976281    0.408251
     12          1           0        5.397010    0.868441   -1.336299
     13          1           0        4.598659    4.441051    0.931281
     14          1           0        2.885859    4.188230    1.267311
     15          1           0        4.106979    3.195731    2.079041
     16          1           0        3.731231   -2.961870   -3.917889
     17          1           0        2.299780   -1.968760   -4.183089
     18          1           0        3.857480   -1.204140   -3.841189
     19          1           0        4.901081   -3.229189   -0.923129
     20          1           0        5.149410   -1.486349   -0.994129
     21          1           0        4.230161   -2.196799    0.335101
     22          1           0       -4.300909   -2.572321   -1.460029
     23          1           0       -4.331359   -3.336051   -3.048619
     24          1           0       -3.141599   -3.848551   -1.850889
     25          1           0       -1.890639   -2.782501   -5.061489
     26          1           0       -0.590380   -1.707450   -4.559459
     27          1           0       -0.770269   -3.301020   -3.804779
     28         45           0        0.196010   -0.952800    1.321151
     29          6           0       -1.334000   -1.465271    2.995641
     30          6           0       -1.032059   -2.612590    2.304861
     31          6           0        1.772140   -1.843070    2.732891
     32          6           0        1.463700   -0.568840    3.157151
     33          6           0       -0.767040   -1.067270    4.344221
     34          1           0       -2.214700   -0.920601    2.679741
     35          1           0       -1.706969   -2.904681    1.506041
     36          6           0       -0.034779   -3.671240    2.705021
     37          6           0        1.263461   -3.133260    3.348861
     38          1           0        2.644130   -1.943680    2.096241
     39          6           0        0.503040   -0.192120    4.257641
     40          1           0        2.128010    0.230070    2.845001
     41          1           0       -1.530580   -0.509211    4.889021
     42          1           0       -0.572490   -1.960980    4.936151
     43          1           0       -0.513889   -4.385420    3.386191
     44          1           0        0.218871   -4.243530    1.810491
     45          1           0        1.126581   -2.998030    4.421431
     46          1           0        2.037491   -3.895010    3.242161
     47          1           0        0.209170    0.847740    4.100231
     48          1           0        1.027320   -0.210950    5.221501
     49          6           0       -3.338760   -0.174671   -3.581899
     50          1           0       -4.044690    0.240819   -2.862769
     51          1           0       -2.615510    0.601279   -3.837559
     52          1           0       -3.895740   -0.433421   -4.486279
     53          6           0        1.644621   -3.494480   -1.316809
     54          1           0        1.412651   -3.483670   -0.249959
     55          1           0        0.706641   -3.384960   -1.861809
     56          1           0        2.071001   -4.470770   -1.561029
     57          6           0        3.199399    3.207820   -1.883099
     58          1           0        3.103440    2.458080   -2.671699
     59          1           0        2.245159    3.725390   -1.769429
     60          1           0        3.933039    3.944050   -2.221799
     61         14           0        2.853251   -2.125710   -1.756989
     62         14           0        3.775660    2.436980   -0.267519
     63         14           0       -2.470370   -1.697741   -2.915249
     64          6           0       -5.071500   -0.495501    1.088941
     65          1           0       -5.393210   -1.015471    0.184481
     66          1           0       -4.530320   -1.208051    1.715381
     67          1           0       -5.971860   -0.199161    1.633351
     68          6           0       -4.934780    2.184849   -0.488889
     69          1           0       -5.280210    1.671909   -1.388009
     70          1           0       -5.812970    2.604439    0.009201
     71          1           0       -4.295980    3.015549   -0.794039
     72          6           0       -3.482020    1.917239    2.234941
     73          1           0       -2.892780    1.279609    2.895911
     74          1           0       -2.886330    2.798509    1.994011
     75          1           0       -4.359380    2.251529    2.795041
     76         14           0       -4.040230    1.023439    0.678001
     77          8           0       -2.653040    0.469069   -0.178969
     78          8           0       -1.444300   -1.272251   -1.588339
     79          8           0        2.094290   -0.607020   -1.429349
     80          8           0        2.610100    1.264390    0.246221
     81          7           0        0.026420    1.090050   -2.556929
     82          1           0        0.524920    1.885650   -2.939459
     83          1           0        0.449370    0.240050   -2.907689
     84          6           0       -0.380440    2.476030   -0.594229
     85          6           0       -1.155961    3.335009   -1.389009
     86          6           0       -0.041290    2.941510    0.679531
     87          1           0       -1.475520    3.017129   -2.373389
     88          6           0       -0.449631    4.207230    1.078501
     89          1           0        0.541400    2.334610    1.357901
     90          6           0       -1.196611    4.979819    0.197741
     91          1           0       -0.188681    4.590910    2.056601
     92          1           0       -1.526961    5.975949    0.471411
     93          7           0       -1.551871    4.549989   -1.013949
 ---------------------------------------------------------------------

 SCF Done:  E(RB3LYP) =  -3385.85817016     A.U. after   17 cycles

      1  P    Isotropic =   164.4124   Anisotropy =   189.6178

      2  P    Isotropic =   174.1113   Anisotropy =   185.2134

      3  C    Isotropic =    56.1212   Anisotropy =    92.8207

      4  C    Isotropic =   180.9130   Anisotropy =    13.1172

      5  C    Isotropic =   183.1352   Anisotropy =    13.4375

      6  C    Isotropic =   182.8034   Anisotropy =    13.9903

      7  C    Isotropic =   181.2216   Anisotropy =    11.9142

      8  C    Isotropic =   181.5443   Anisotropy =    14.1946

      9  C    Isotropic =   181.6660   Anisotropy =    12.8054

     10  H    Isotropic =    31.7543   Anisotropy =    12.0267

     11  H    Isotropic =    31.5598   Anisotropy =     6.5607

     12  H    Isotropic =    31.6648   Anisotropy =     7.4156

     13  H    Isotropic =    31.9502   Anisotropy =    12.2431

     14  H    Isotropic =    31.7376   Anisotropy =     8.8117

     15  H    Isotropic =    31.5473   Anisotropy =     7.4836

     16  H    Isotropic =    31.5861   Anisotropy =    11.6005

     17  H    Isotropic =    31.3852   Anisotropy =     8.3402

     18  H    Isotropic =    31.3989   Anisotropy =     8.4174

     19  H    Isotropic =    31.5753   Anisotropy =    11.3630

     20  H    Isotropic =    31.3259   Anisotropy =     9.1918

     21  H    Isotropic =    31.7525   Anisotropy =     6.7208

     22  H    Isotropic =    31.6445   Anisotropy =     8.1790

     23  H    Isotropic =    31.6393   Anisotropy =    11.9759

     24  H    Isotropic =    31.4426   Anisotropy =     7.2443

     25  H    Isotropic =    31.5743   Anisotropy =    11.9406

     26  H    Isotropic =    31.4399   Anisotropy =     6.2175

     27  H    Isotropic =    31.3461   Anisotropy =     7.3918

     28  Rh   Isotropic =  -291.1043   Anisotropy =   322.4727

     29  C    Isotropic =    72.3855   Anisotropy =   130.6998

     30  C    Isotropic =    73.4125   Anisotropy =   123.2878

     31  C    Isotropic =    82.3895   Anisotropy =   115.9758

     32  C    Isotropic =    72.1354   Anisotropy =   124.9894

     33  C    Isotropic =   154.1253   Anisotropy =    24.3849

     34  H    Isotropic =    26.8839   Anisotropy =     6.6938

     35  H    Isotropic =    26.2282   Anisotropy =     4.2698

     36  C    Isotropic =   147.8904   Anisotropy =    26.9429

     37  C    Isotropic =   154.1862   Anisotropy =    23.7195

     38  H    Isotropic =    27.0818   Anisotropy =     6.6645

     39  C    Isotropic =   147.2358   Anisotropy =    28.4180

     40  H    Isotropic =    26.0330   Anisotropy =     4.1627

     41  H    Isotropic =    29.9306   Anisotropy =    10.4397

     42  H    Isotropic =    29.7387   Anisotropy =     9.5321

     43  H    Isotropic =    29.1488   Anisotropy =    12.5914

     44  H    Isotropic =    29.2188   Anisotropy =     7.1252

     45  H    Isotropic =    29.7336   Anisotropy =     9.7730

     46  H    Isotropic =    29.8299   Anisotropy =    11.0258

     47  H    Isotropic =    29.1753   Anisotropy =     6.9334

     48  H    Isotropic =    29.0733   Anisotropy =    12.5294

     49  C    Isotropic =   182.1409   Anisotropy =    11.9450

     50  H    Isotropic =    31.4900   Anisotropy =     9.0354

     51  H    Isotropic =    30.7114   Anisotropy =     6.2512

     52  H    Isotropic =    31.6581   Anisotropy =    12.1566

     53  C    Isotropic =   180.4728   Anisotropy =     9.2137

     54  H    Isotropic =    30.8275   Anisotropy =    10.3339

     55  H    Isotropic =    31.1010   Anisotropy =     9.7881

     56  H    Isotropic =    31.5103   Anisotropy =    11.1886

     57  C    Isotropic =   182.8872   Anisotropy =     9.5082

     58  H    Isotropic =    32.0822   Anisotropy =     5.5075

     59  H    Isotropic =    32.6997   Anisotropy =     9.1638

     60  H    Isotropic =    31.9891   Anisotropy =    12.6607

     61  Si   Isotropic =   310.3669   Anisotropy =    30.9929

     62  Si   Isotropic =   311.2705   Anisotropy =    32.4932

     63  Si   Isotropic =   310.0109   Anisotropy =    33.2621

     64  C    Isotropic =   181.6343   Anisotropy =    13.7069

     65  H    Isotropic =    31.5938   Anisotropy =     8.0264

     66  H    Isotropic =    32.0010   Anisotropy =     6.8055

     67  H    Isotropic =    31.8577   Anisotropy =    11.9125

     68  C    Isotropic =   182.5474   Anisotropy =    13.1413

     69  H    Isotropic =    31.6979   Anisotropy =     7.8541

     70  H    Isotropic =    32.1351   Anisotropy =    11.9253

     71  H    Isotropic =    31.8218   Anisotropy =     8.7019

     72  C    Isotropic =   182.7896   Anisotropy =     9.0382

     73  H    Isotropic =    32.1856   Anisotropy =     8.3035

     74  H    Isotropic =    32.6557   Anisotropy =    11.1785

     75  H    Isotropic =    32.2196   Anisotropy =    11.8441

     76  Si   Isotropic =   312.4663   Anisotropy =    31.9631

     77  O    Isotropic =   193.3866   Anisotropy =   104.0114

     78  O    Isotropic =   186.5582   Anisotropy =   115.8728

     79  O    Isotropic =   179.2584   Anisotropy =   132.2498

     80  O    Isotropic =   199.7312   Anisotropy =    90.9902

     81  N    Isotropic =   202.6341   Anisotropy =    49.8752

     82  H    Isotropic =    30.4130   Anisotropy =    13.4008

     83  H    Isotropic =    28.9605   Anisotropy =     8.0015

     84  C    Isotropic =    46.6611   Anisotropy =   179.6791

     85  C    Isotropic =    29.0103   Anisotropy =   177.5647

     86  C    Isotropic =    45.0367   Anisotropy =   197.1811

     87  H    Isotropic =    22.5952   Anisotropy =    10.9862

     88  C    Isotropic =    57.9042   Anisotropy =   177.5785

     89  H    Isotropic =    23.5669   Anisotropy =     7.5218

     90  C    Isotropic =    26.4278   Anisotropy =   181.1080

     91  H    Isotropic =    24.4520   Anisotropy =     6.9202

     92  H    Isotropic =    22.8307   Anisotropy =     5.6875

     93  N    Isotropic =  -108.0919   Anisotropy =   604.6842

 The electronic state is 1-A.
 Alpha  occ. eigenvalues --  -77.29989 -77.29713 -66.25888 -66.25796 -66.25724
 Alpha  occ. eigenvalues --  -66.25228 -19.24228 -19.24151 -19.23848 -19.23546
 Alpha  occ. eigenvalues --  -14.41382 -14.40373 -10.33625 -10.29958 -10.29776
 Alpha  occ. eigenvalues --  -10.29706 -10.29544 -10.29543 -10.29470 -10.29073
 Alpha  occ. eigenvalues --  -10.28881 -10.28021 -10.27934 -10.27850 -10.27707
 Alpha  occ. eigenvalues --  -10.27699 -10.24554 -10.24463 -10.24395 -10.24306
 Alpha  occ. eigenvalues --  -10.24204 -10.24177 -10.24145 -10.24040 -10.23952
 Alpha  occ. eigenvalues --  -10.23749 -10.23447 -10.23337  -6.74795  -6.74631
 Alpha  occ. eigenvalues --   -5.39412  -5.39302  -5.39192  -5.38734  -4.91264
 Alpha  occ. eigenvalues --   -4.91106  -4.91055  -4.90872  -4.90665  -4.90492
 Alpha  occ. eigenvalues --   -3.75581  -3.75482  -3.75384  -3.75162  -3.75154
 Alpha  occ. eigenvalues --   -3.75049  -3.75035  -3.74940  -3.74917  -3.74911
 Alpha  occ. eigenvalues --   -3.74485  -3.74469  -3.32010  -2.09012  -2.08167
 Alpha  occ. eigenvalues --   -2.05450  -1.13909  -1.13546  -1.09572  -1.09155
 Alpha  occ. eigenvalues --   -1.04124  -1.00888  -0.94893  -0.91014  -0.89669
 Alpha  occ. eigenvalues --   -0.88450  -0.86727  -0.82468  -0.81561  -0.81213
 Alpha  occ. eigenvalues --   -0.80859  -0.80703  -0.79933  -0.78314  -0.77972
 Alpha  occ. eigenvalues --   -0.77805  -0.77760  -0.77607  -0.77480  -0.77234
 Alpha  occ. eigenvalues --   -0.77150  -0.76887  -0.74189  -0.73636  -0.72671
 Alpha  occ. eigenvalues --   -0.71042  -0.68763  -0.66297  -0.65474  -0.64691
 Alpha  occ. eigenvalues --   -0.63008  -0.62837  -0.61532  -0.60397  -0.59626
 Alpha  occ. eigenvalues --   -0.58267  -0.57632  -0.56674  -0.55933  -0.55453
 Alpha  occ. eigenvalues --   -0.54670  -0.54145  -0.53923  -0.53683  -0.53169
 Alpha  occ. eigenvalues --   -0.53075  -0.52812  -0.52659  -0.52317  -0.51823
 Alpha  occ. eigenvalues --   -0.51639  -0.51294  -0.50986  -0.50910  -0.50701
 Alpha  occ. eigenvalues --   -0.50679  -0.50604  -0.50371  -0.50122  -0.50083
 Alpha  occ. eigenvalues --   -0.49569  -0.49545  -0.49285  -0.49071  -0.48873
 Alpha  occ. eigenvalues --   -0.48788  -0.48724  -0.48638  -0.48527  -0.48409
 Alpha  occ. eigenvalues --   -0.48338  -0.48209  -0.48161  -0.47973  -0.47871
 Alpha  occ. eigenvalues --   -0.47808  -0.47667  -0.47088  -0.46996  -0.46508
 Alpha  occ. eigenvalues --   -0.46456  -0.46434  -0.46271  -0.45611  -0.45139
 Alpha  occ. eigenvalues --   -0.44805  -0.44576  -0.43846  -0.43547  -0.42368
 Alpha  occ. eigenvalues --   -0.41848  -0.40100  -0.40041  -0.39781  -0.39663
 Alpha  occ. eigenvalues --   -0.39496  -0.39199  -0.38964  -0.38901  -0.38413
 Alpha  occ. eigenvalues --   -0.37709  -0.37089  -0.35908  -0.35682  -0.35289
 Alpha  occ. eigenvalues --   -0.34704  -0.34013  -0.32632  -0.30986
 Alpha virt. eigenvalues --   -0.16818  -0.14238  -0.12789  -0.11866  -0.10041
 Alpha virt. eigenvalues --   -0.09450  -0.07926  -0.07408  -0.07291  -0.06673
 Alpha virt. eigenvalues --   -0.06136  -0.05274  -0.05126  -0.04922  -0.04336

 Mulliken charges:
               1
     1  P    0.711838
     2  P    0.739085
     3  C   -0.267608
     4  C   -0.538242
     5  C   -0.540353
     6  C   -0.510461
     7  C   -0.558521
     8  C   -0.535170
     9  C   -0.548241
    10  H    0.151322
    11  H    0.144676
    12  H    0.130883
    13  H    0.146899
    14  H    0.144968
    15  H    0.140218
    16  H    0.145468
    17  H    0.139344
    18  H    0.144340
    19  H    0.151997
    20  H    0.145931
    21  H    0.129834
    22  H    0.128154
    23  H    0.147395
    24  H    0.139284
    25  H    0.151584
    26  H    0.128576
    27  H    0.141753
    28  Rh  -0.543712
    29  C   -0.034817
    30  C   -0.063071
    31  C   -0.042610
    32  C   -0.075302
    33  C   -0.362206
    34  H    0.157125
    35  H    0.179223
    36  C   -0.236645
    37  C   -0.360365
    38  H    0.172944
    39  C   -0.230914
    40  H    0.196042
    41  H    0.172236
    42  H    0.172324
    43  H    0.175830
    44  H    0.144693
    45  H    0.166879
    46  H    0.168283
    47  H    0.129774
    48  H    0.174218
    49  C   -0.532542
    50  H    0.117506
    51  H    0.155816
    52  H    0.147178
    53  C   -0.527273
    54  H    0.119977
    55  H    0.135387
    56  H    0.156516
    57  C   -0.591878
    58  H    0.134291
    59  H    0.157299
    60  H    0.156204
    61  Si   0.734303
    62  Si   0.784255
    63  Si   0.754854
    64  C   -0.576459
    65  H    0.142416
    66  H    0.145967
    67  H    0.151033
    68  C   -0.498338
    69  H    0.145478
    70  H    0.146479
    71  H    0.171968
    72  C   -0.584632
    73  H    0.129661
    74  H    0.157346
    75  H    0.153845
    76  Si   0.737070
    77  O   -0.459842
    78  O   -0.480453
    79  O   -0.500167
    80  O   -0.482616
    81  N   -0.368814
    82  H    0.225152
    83  H    0.228297
    84  C   -0.132347
    85  C   -0.164322
    86  C   -0.079148
    87  H    0.142834
    88  C   -0.090798
    89  H    0.159107
    90  C   -0.127313
    91  H    0.135835
    92  H    0.131039
    93  N   -0.025055
 Sum of Mulliken charges =   1.00000

 Dipole moment (field-independent basis, Debye):
    X=              1.8298    Y=             -2.4063    Z=              2.2220  Tot=              3.7517
 Quadrupole moment (field-independent basis, Debye-Ang):
   XX=           -242.4450   YY=           -263.2323   ZZ=           -254.0126
   XY=              6.3559   XZ=             -6.0952   YZ=              7.4637

 Summary of Natural Population Analysis:

                                       Natural Population
                Natural  -----------------------------------------------
    Atom  No    Charge         Core      Valence    Rydberg      Total
 -----------------------------------------------------------------------
      P    1    1.72770      9.99596     3.18073    0.09562    13.27230
      P    2    1.76462      9.99608     3.14357    0.09573    13.23538
      C    3   -0.41660      1.99931     4.38373    0.03357     6.41660
      C    4   -1.11069      1.99944     5.10308    0.00817     7.11069
      C    5   -1.10772      1.99943     5.10034    0.00795     7.10772
      C    6   -1.10724      1.99943     5.09970    0.00811     7.10724
      C    7   -1.11004      1.99943     5.10214    0.00847     7.11004
      C    8   -1.11031      1.99944     5.10263    0.00824     7.11031
      C    9   -1.10679      1.99944     5.09904    0.00831     7.10679
      H   10    0.24474      0.00000     0.75442    0.00084     0.75526
      H   11    0.24058      0.00000     0.75851    0.00091     0.75942
      H   12    0.23282      0.00000     0.76610    0.00108     0.76718
      H   13    0.24387      0.00000     0.75531    0.00082     0.75613
      H   14    0.23829      0.00000     0.76065    0.00107     0.76171
      H   15    0.23900      0.00000     0.76013    0.00087     0.76100
      H   16    0.24407      0.00000     0.75510    0.00083     0.75593
      H   17    0.23674      0.00000     0.76213    0.00113     0.76326
      H   18    0.24007      0.00000     0.75901    0.00092     0.75993
      H   19    0.24495      0.00000     0.75420    0.00085     0.75505
      H   20    0.24043      0.00000     0.75851    0.00107     0.75957
      H   21    0.22899      0.00000     0.76993    0.00108     0.77101
      H   22    0.23254      0.00000     0.76631    0.00115     0.76746
      H   23    0.24288      0.00000     0.75629    0.00083     0.75712
      H   24    0.23739      0.00000     0.76170    0.00091     0.76261
      H   25    0.24428      0.00000     0.75488    0.00083     0.75572
      H   26    0.23098      0.00000     0.76778    0.00124     0.76902
      H   27    0.23416      0.00000     0.76474    0.00110     0.76584
     Rh   28   -0.52793     35.98515     9.51477    0.02801    45.52793
      C   29   -0.16798      1.99907     4.14774    0.02117     6.16798
      C   30   -0.17134      1.99909     4.15125    0.02099     6.17134
      C   31   -0.19700      1.99908     4.17691    0.02102     6.19700
      C   32   -0.15143      1.99909     4.13146    0.02088     6.15143
      C   33   -0.42700      1.99936     4.41553    0.01212     6.42700
      H   34    0.22170      0.00000     0.77588    0.00242     0.77830
      H   35    0.23136      0.00000     0.76662    0.00201     0.76864
      C   36   -0.42244      1.99935     4.41073    0.01235     6.42244
      C   37   -0.42290      1.99936     4.41171    0.01184     6.42290
      H   38    0.22316      0.00000     0.77440    0.00243     0.77684
      C   39   -0.41925      1.99935     4.40703    0.01287     6.41925
      H   40    0.23287      0.00000     0.76501    0.00212     0.76713
      H   41    0.22867      0.00000     0.76982    0.00151     0.77133
      H   42    0.21659      0.00000     0.78140    0.00201     0.78341
      H   43    0.23607      0.00000     0.76206    0.00186     0.76393
      H   44    0.21993      0.00000     0.77857    0.00151     0.78007
      H   45    0.21523      0.00000     0.78278    0.00199     0.78477
      H   46    0.22894      0.00000     0.76956    0.00149     0.77106
      H   47    0.21597      0.00000     0.78236    0.00167     0.78403
      H   48    0.23478      0.00000     0.76327    0.00194     0.76522
      C   49   -1.11613      1.99943     5.10803    0.00867     7.11613
      H   50    0.23466      0.00000     0.76415    0.00119     0.76534
      H   51    0.25010      0.00000     0.74874    0.00116     0.74990
      H   52    0.24171      0.00000     0.75740    0.00089     0.75829
      C   53   -1.10500      1.99943     5.09669    0.00889     7.10500
      H   54    0.23402      0.00000     0.76453    0.00145     0.76598
      H   55    0.24104      0.00000     0.75774    0.00123     0.75896
      H   56    0.24268      0.00000     0.75643    0.00090     0.75732
      C   57   -1.12080      1.99943     5.11239    0.00898     7.12080
      H   58    0.23348      0.00000     0.76527    0.00125     0.76652
      H   59    0.23934      0.00000     0.75961    0.00105     0.76066
      H   60    0.24867      0.00000     0.75047    0.00086     0.75133
     Si   61    1.86197      9.99786     2.10658    0.03359    12.13803
     Si   62    1.86204      9.99793     2.10710    0.03293    12.13796
     Si   63    1.86432      9.99794     2.10422    0.03352    12.13568
      C   64   -1.11067      1.99943     5.10298    0.00825     7.11067
      H   65    0.23672      0.00000     0.76217    0.00112     0.76328
      H   66    0.23051      0.00000     0.76844    0.00106     0.76949
      H   67    0.24487      0.00000     0.75429    0.00084     0.75513
      C   68   -1.11003      1.99942     5.10264    0.00797     7.11003
      H   69    0.23718      0.00000     0.76173    0.00109     0.76282
      H   70    0.24265      0.00000     0.75651    0.00084     0.75735
      H   71    0.25086      0.00000     0.74808    0.00105     0.74914
      C   72   -1.10978      1.99943     5.10187    0.00848     7.10978
      H   73    0.22593      0.00000     0.77285    0.00122     0.77407
      H   74    0.24349      0.00000     0.75529    0.00122     0.75651
      H   75    0.24381      0.00000     0.75534    0.00085     0.75619
     Si   76    1.86908      9.99785     2.10101    0.03206    12.13092
      O   77   -1.14637      1.99975     7.13692    0.00970     9.14637
      O   78   -1.13577      1.99978     7.12514    0.01084     9.13577
      O   79   -1.14384      1.99978     7.13278    0.01128     9.14384
      O   80   -1.13829      1.99977     7.12883    0.00969     9.13829
      N   81   -0.81668      1.99955     5.79710    0.02003     7.81668
      H   82    0.37148      0.00000     0.62513    0.00339     0.62852
      H   83    0.38192      0.00000     0.61560    0.00247     0.61808
      C   84   -0.10845      1.99897     4.08620    0.02328     6.10845
      C   85    0.03172      1.99913     3.94494    0.02422     5.96828
      C   86   -0.17378      1.99908     4.15922    0.01547     6.17378
      H   87    0.20689      0.00000     0.79032    0.00279     0.79311
      C   88   -0.24475      1.99916     4.23079    0.01480     6.24475
      H   89    0.22306      0.00000     0.77437    0.00257     0.77694
      C   90    0.03131      1.99924     3.94633    0.02312     5.96869
      H   91    0.22381      0.00000     0.77481    0.00138     0.77619
      H   92    0.20257      0.00000     0.79590    0.00153     0.79743
      N   93   -0.38925      1.99950     5.37167    0.01808     7.38925
 =======================================================================
   * Total *    1.00000    159.94870   225.17815    0.87316   386.00000

 Normal termination of Gaussian 16 at Mon Jan 20 11:22:11 2025.
