 Gaussian 16, Revision B.01,
 Gaussian 16:  ES64L-G16RevB.01 20-Dec-2017

 ------------------------------------------
 # nmr=giao b3lyp/genecp pop=nbo scfcyc=200
 ------------------------------------------

 ---------
 DS-43_SPE
 ---------
 Symbolic Z-matrix:
 Charge =  1 Multiplicity = 1

                         Standard orientation:
 ---------------------------------------------------------------------
 Center     Atomic      Atomic             Coordinates (Angstroms)
 Number     Number       Type             X           Y           Z
 ---------------------------------------------------------------------
      1         15           0        1.382930    0.190230    0.460800
      2         15           0       -1.323620    0.395350    0.286280
      3          6           0        0.015560    1.041860    1.511080
      4          6           0        5.410540   -0.790580    1.482450
      5          6           0        3.591810   -1.090830    3.977400
      6          6           0        2.910460    3.834140   -1.601500
      7          6           0        4.350200    1.113240   -2.041400
      8          6           0       -4.100010    2.454071   -1.985270
      9          6           0       -1.654100    4.335280   -1.631770
     10          1           0        6.312520   -0.705220    2.093750
     11          1           0        5.272530   -1.847170    1.243270
     12          1           0        5.588980   -0.252300    0.550300
     13          1           0        4.449210   -1.030600    4.652560
     14          1           0        2.720140   -0.715360    4.516680
     15          1           0        3.421690   -2.145430    3.751000
     16          1           0        3.383070    4.264710   -2.487850
     17          1           0        1.949420    4.334310   -1.465630
     18          1           0        3.541870    4.068910   -0.742220
     19          1           0        4.792890    1.402730   -2.997950
     20          1           0        5.058660    1.386640   -1.257180
     21          1           0        4.248010    0.025820   -2.043800
     22          1           0       -4.682000    1.640241   -1.547740
     23          1           0       -4.787870    3.277781   -2.192070
     24          1           0       -3.698490    2.108821   -2.940390
     25          1           0       -2.254340    5.218940   -1.862660
     26          1           0       -0.847390    4.651560   -0.967380
     27          1           0       -1.214310    3.981400   -2.566250
     28         45           0        0.007180   -1.227850   -0.718730
     29          6           0       -1.543920   -2.886960   -1.222840
     30          6           0       -1.386640   -2.077550   -2.320210
     31          6           0        1.497580   -2.504100   -1.911960
     32          6           0        1.340670   -3.058500   -0.660600
     33          6           0       -0.912101   -4.251190   -1.027050
     34          1           0       -2.361980   -2.651679   -0.553800
     35          1           0       -2.104440   -1.274010   -2.453400
     36          6           0       -0.504670   -2.337530   -3.516080
     37          6           0        0.854160   -3.000510   -3.193860
     38          1           0        2.342370   -1.836720   -2.044340
     39          6           0        0.444659   -4.213730   -0.289690
     40          1           0        2.079390   -2.803760    0.091610
     41          1           0       -1.599541   -4.870090   -0.447600
     42          1           0       -0.806631   -4.746590   -1.991590
     43          1           0       -1.048430   -2.951200   -4.245100
     44          1           0       -0.328010   -1.380230   -4.010610
     45          1           0        0.747549   -4.084220   -3.154930
     46          1           0        1.535550   -2.799310   -4.022230
     47          1           0        0.265849   -4.160270    0.786250
     48          1           0        0.978219   -5.158030   -0.456870
     49          6           0       -3.377690    3.567021    0.839260
     50          1           0       -4.037970    2.820021    1.280940
     51          1           0       -2.555150    3.747301    1.533100
     52          1           0       -3.945890    4.494441    0.729340
     53          6           0        1.495470    1.557540   -3.188850
     54          1           0        1.363850    0.478520   -3.286010
     55          1           0        0.514890    2.000120   -3.006590
     56          1           0        1.867850    1.938360   -4.143340
     57          6           0        4.086280    1.733150    2.750800
     58          1           0        4.191800    2.304520    1.827050
     59          1           0        3.222020    2.121660    3.293990
     60          1           0        4.969630    1.925540    3.365070
     61         14           0        2.698060    1.981410   -1.808950
     62         14           0        3.928060   -0.110440    2.411470
     63         14           0       -2.725840    3.015061   -0.831180
     64          6           0       -5.073060   -1.306189    0.424840
     65          1           0       -5.510930   -0.413149   -0.025880
     66          1           0       -4.588150   -1.880429   -0.367220
     67          1           0       -5.894410   -1.913589    0.813740
     68          6           0       -4.731780    0.201311    3.119970
     69          1           0       -5.204280    1.082581    2.682630
     70          1           0       -5.510440   -0.375849    3.625340
     71          1           0       -4.023330    0.539101    3.878860
     72          6           0       -3.088520   -2.373939    2.579920
     73          1           0       -2.492830   -2.934939    1.857650
     74          1           0       -2.440670   -2.104169    3.416310
     75          1           0       -3.859380   -3.045749    2.966180
     76         14           0       -3.891220   -0.852609    1.815790
     77          8           0       -2.661210    0.143331    1.150070
     78          8           0       -1.675080    1.655890   -0.645990
     79          8           0        2.019960    1.469210   -0.309080
     80          8           0        2.558230   -0.377290    1.398770
     81          7           0        0.050100    2.463350    1.678760
     82          1           0        0.500030    2.750770    2.539330
     83          1           0        0.485800    2.938420    0.898260
     84          6           0       -0.141090    0.337820    2.855750
     85          1           0       -1.044720    0.691830    3.353220
     86          1           0       -0.205120   -0.745370    2.749020
     87          1           0        0.714650    0.556460    3.498030
 ---------------------------------------------------------------------

 SCF Done:  E(RB3LYP) =  -3178.03266963     A.U. after   16 cycles

      1  P    Isotropic =   164.8134   Anisotropy =   188.5788

      2  P    Isotropic =   168.7502   Anisotropy =   172.7629

      3  C    Isotropic =    67.5487   Anisotropy =    84.5105

      4  C    Isotropic =   182.1716   Anisotropy =    13.6659

      5  C    Isotropic =   182.2055   Anisotropy =    14.4478

      6  C    Isotropic =   182.5874   Anisotropy =    14.1825

      7  C    Isotropic =   181.0598   Anisotropy =    12.3290

      8  C    Isotropic =   181.4736   Anisotropy =    14.4296

      9  C    Isotropic =   181.8380   Anisotropy =    13.2596

     10  H    Isotropic =    31.7389   Anisotropy =    11.9425

     11  H    Isotropic =    31.5459   Anisotropy =     7.2679

     12  H    Isotropic =    31.6125   Anisotropy =     8.6418

     13  H    Isotropic =    31.7250   Anisotropy =    11.8395

     14  H    Isotropic =    31.5976   Anisotropy =     7.0603

     15  H    Isotropic =    31.4909   Anisotropy =     7.6041

     16  H    Isotropic =    31.6399   Anisotropy =    11.5146

     17  H    Isotropic =    31.4684   Anisotropy =     8.5091

     18  H    Isotropic =    31.4549   Anisotropy =     8.3740

     19  H    Isotropic =    31.5612   Anisotropy =    11.3259

     20  H    Isotropic =    31.4354   Anisotropy =     8.2421

     21  H    Isotropic =    31.7532   Anisotropy =     6.0258

     22  H    Isotropic =    31.6512   Anisotropy =     8.0096

     23  H    Isotropic =    31.6449   Anisotropy =    11.8425

     24  H    Isotropic =    31.4377   Anisotropy =     7.2251

     25  H    Isotropic =    31.6415   Anisotropy =    11.8708

     26  H    Isotropic =    31.5440   Anisotropy =     6.7297

     27  H    Isotropic =    31.4494   Anisotropy =     7.2090

     28  Rh   Isotropic =  -284.4656   Anisotropy =   316.2927

     29  C    Isotropic =    73.1745   Anisotropy =   128.7383

     30  C    Isotropic =    73.3067   Anisotropy =   123.1519

     31  C    Isotropic =    83.0082   Anisotropy =   114.6283

     32  C    Isotropic =    71.2883   Anisotropy =   126.5863

     33  C    Isotropic =   153.8937   Anisotropy =    24.3221

     34  H    Isotropic =    26.7403   Anisotropy =     7.3428

     35  H    Isotropic =    26.1740   Anisotropy =     4.1812

     36  C    Isotropic =   148.1110   Anisotropy =    26.9885

     37  C    Isotropic =   154.1814   Anisotropy =    23.4169

     38  H    Isotropic =    27.1861   Anisotropy =     6.4003

     39  C    Isotropic =   147.4552   Anisotropy =    29.0605

     40  H    Isotropic =    26.1854   Anisotropy =     4.3836

     41  H    Isotropic =    29.9021   Anisotropy =    10.6057

     42  H    Isotropic =    29.7119   Anisotropy =     9.3412

     43  H    Isotropic =    29.1674   Anisotropy =    12.4801

     44  H    Isotropic =    29.2802   Anisotropy =     7.0235

     45  H    Isotropic =    29.7408   Anisotropy =     9.6658

     46  H    Isotropic =    29.8906   Anisotropy =    10.8899

     47  H    Isotropic =    29.2344   Anisotropy =     6.7106

     48  H    Isotropic =    29.1410   Anisotropy =    12.4270

     49  C    Isotropic =   182.3448   Anisotropy =    11.7932

     50  H    Isotropic =    31.5455   Anisotropy =     9.0432

     51  H    Isotropic =    30.8001   Anisotropy =     6.5599

     52  H    Isotropic =    31.7447   Anisotropy =    12.0583

     53  C    Isotropic =   181.3827   Anisotropy =    10.1371

     54  H    Isotropic =    31.0839   Anisotropy =    10.1002

     55  H    Isotropic =    31.2138   Anisotropy =     8.8259

     56  H    Isotropic =    31.5801   Anisotropy =    11.2440

     57  C    Isotropic =   182.2590   Anisotropy =    10.6799

     58  H    Isotropic =    31.5709   Anisotropy =     7.5474

     59  H    Isotropic =    31.8182   Anisotropy =     6.1125

     60  H    Isotropic =    31.6235   Anisotropy =    12.1827

     61  Si   Isotropic =   312.3201   Anisotropy =    29.8251

     62  Si   Isotropic =   312.3077   Anisotropy =    31.0044

     63  Si   Isotropic =   310.7535   Anisotropy =    32.4992

     64  C    Isotropic =   181.7301   Anisotropy =    13.2644

     65  H    Isotropic =    31.4410   Anisotropy =     7.9994

     66  H    Isotropic =    31.7841   Anisotropy =     7.4687

     67  H    Isotropic =    31.6705   Anisotropy =    11.7000

     68  C    Isotropic =   182.2532   Anisotropy =    13.9573

     69  H    Isotropic =    31.4101   Anisotropy =     8.0862

     70  H    Isotropic =    31.7286   Anisotropy =    11.6930

     71  H    Isotropic =    31.4730   Anisotropy =     7.1650

     72  C    Isotropic =   182.2316   Anisotropy =    10.4648

     73  H    Isotropic =    31.5397   Anisotropy =     9.4935

     74  H    Isotropic =    31.4291   Anisotropy =     6.6557

     75  H    Isotropic =    31.6719   Anisotropy =    11.5820

     76  Si   Isotropic =   314.6755   Anisotropy =    31.4402

     77  O    Isotropic =   199.0266   Anisotropy =   108.2340

     78  O    Isotropic =   192.0374   Anisotropy =   131.4748

     79  O    Isotropic =   178.3716   Anisotropy =   121.8461

     80  O    Isotropic =   201.4934   Anisotropy =   101.6703

     81  N    Isotropic =   203.8356   Anisotropy =    43.8752

     82  H    Isotropic =    30.7991   Anisotropy =    14.2457

     83  H    Isotropic =    29.3805   Anisotropy =     8.9609

     84  C    Isotropic =   165.4133   Anisotropy =    16.1597

     85  H    Isotropic =    30.4074   Anisotropy =     8.0057

     86  H    Isotropic =    30.0609   Anisotropy =     4.1090

     87  H    Isotropic =    30.9178   Anisotropy =     9.5279

 The electronic state is 1-A.
 Alpha  occ. eigenvalues --  -77.29358 -77.29341 -66.25805 -66.25751 -66.25706
 Alpha  occ. eigenvalues --  -66.24899 -19.23913 -19.23814 -19.23651 -19.23150
 Alpha  occ. eigenvalues --  -14.41063 -10.32658 -10.29231 -10.29160 -10.29152
 Alpha  occ. eigenvalues --  -10.28774 -10.27674 -10.27652 -10.27641 -10.27561
 Alpha  occ. eigenvalues --  -10.27443 -10.24492 -10.24460 -10.24438 -10.24304
 Alpha  occ. eigenvalues --  -10.24295 -10.24162 -10.24039 -10.23997 -10.23884
 Alpha  occ. eigenvalues --  -10.23662 -10.23485 -10.23040  -6.74257  -6.74219
 Alpha  occ. eigenvalues --   -5.39288  -5.39270  -5.39208  -5.38407  -4.90735
 Alpha  occ. eigenvalues --   -4.90697  -4.90502  -4.90476  -4.90111  -4.90075
 Alpha  occ. eigenvalues --   -3.75467  -3.75438  -3.75388  -3.75040  -3.75025
 Alpha  occ. eigenvalues --   -3.75021  -3.75015  -3.74957  -3.74942  -3.74582
 Alpha  occ. eigenvalues --   -3.74158  -3.74144  -3.31559  -2.08560  -2.07725
 Alpha  occ. eigenvalues --   -2.04999  -1.13563  -1.13207  -1.09297  -1.08868
 Alpha  occ. eigenvalues --   -1.00460  -0.94575  -0.89345  -0.88157  -0.85880
 Alpha  occ. eigenvalues --   -0.81715  -0.81483  -0.81096  -0.80583  -0.80454
 Alpha  occ. eigenvalues --   -0.78013  -0.77851  -0.77798  -0.77734  -0.77703
 Alpha  occ. eigenvalues --   -0.77460  -0.77388  -0.77206  -0.76961  -0.76636
 Alpha  occ. eigenvalues --   -0.73514  -0.70737  -0.68576  -0.65976  -0.64852
 Alpha  occ. eigenvalues --   -0.64493  -0.62701  -0.62161  -0.60102  -0.59528
 Alpha  occ. eigenvalues --   -0.57530  -0.57165  -0.56361  -0.54975  -0.54062
 Alpha  occ. eigenvalues --   -0.53841  -0.53459  -0.52943  -0.52791  -0.52569
 Alpha  occ. eigenvalues --   -0.52422  -0.52209  -0.51911  -0.51572  -0.51161
 Alpha  occ. eigenvalues --   -0.50967  -0.50688  -0.50634  -0.50386  -0.50284
 Alpha  occ. eigenvalues --   -0.50147  -0.49968  -0.49645  -0.49560  -0.49352
 Alpha  occ. eigenvalues --   -0.49262  -0.48937  -0.48869  -0.48759  -0.48651
 Alpha  occ. eigenvalues --   -0.48490  -0.48282  -0.48221  -0.48116  -0.48038
 Alpha  occ. eigenvalues --   -0.47996  -0.47841  -0.47792  -0.47689  -0.47568
 Alpha  occ. eigenvalues --   -0.46944  -0.46540  -0.46210  -0.46157  -0.46054
 Alpha  occ. eigenvalues --   -0.45467  -0.44854  -0.44472  -0.44105  -0.43316
 Alpha  occ. eigenvalues --   -0.43244  -0.41881  -0.41279  -0.39958  -0.39864
 Alpha  occ. eigenvalues --   -0.39670  -0.39564  -0.39475  -0.38986  -0.38691
 Alpha  occ. eigenvalues --   -0.38511  -0.37363  -0.36215  -0.35253  -0.34822
 Alpha  occ. eigenvalues --   -0.33718  -0.32733  -0.30607
 Alpha virt. eigenvalues --   -0.16442  -0.13412  -0.09873  -0.09359  -0.07694
 Alpha virt. eigenvalues --   -0.07244  -0.07115  -0.06883  -0.06194  -0.05287
 Alpha virt. eigenvalues --   -0.05108  -0.04683  -0.04237  -0.04155  -0.03754

 Mulliken charges:
               1
     1  P    0.784374
     2  P    0.730231
     3  C   -0.317607
     4  C   -0.522532
     5  C   -0.521155
     6  C   -0.519245
     7  C   -0.568566
     8  C   -0.536018
     9  C   -0.540916
    10  H    0.146472
    11  H    0.140394
    12  H    0.136176
    13  H    0.144769
    14  H    0.134520
    15  H    0.140029
    16  H    0.146817
    17  H    0.138717
    18  H    0.144629
    19  H    0.154260
    20  H    0.139895
    21  H    0.137808
    22  H    0.127793
    23  H    0.145578
    24  H    0.138220
    25  H    0.148226
    26  H    0.125805
    27  H    0.138225
    28  Rh  -0.577179
    29  C   -0.029408
    30  C   -0.065558
    31  C   -0.055130
    32  C   -0.084282
    33  C   -0.357809
    34  H    0.144664
    35  H    0.177182
    36  C   -0.232393
    37  C   -0.358804
    38  H    0.177801
    39  C   -0.224020
    40  H    0.197449
    41  H    0.170024
    42  H    0.169777
    43  H    0.174358
    44  H    0.142480
    45  H    0.167034
    46  H    0.167306
    47  H    0.132016
    48  H    0.172346
    49  C   -0.535107
    50  H    0.120504
    51  H    0.153184
    52  H    0.143390
    53  C   -0.539729
    54  H    0.121486
    55  H    0.143227
    56  H    0.156939
    57  C   -0.547527
    58  H    0.142181
    59  H    0.122677
    60  H    0.152224
    61  Si   0.738135
    62  Si   0.714649
    63  Si   0.758189
    64  C   -0.575370
    65  H    0.144080
    66  H    0.152456
    67  H    0.150403
    68  C   -0.477723
    69  H    0.146718
    70  H    0.148069
    71  H    0.141596
    72  C   -0.580439
    73  H    0.132831
    74  H    0.143520
    75  H    0.153246
    76  Si   0.727283
    77  O   -0.477348
    78  O   -0.476220
    79  O   -0.504052
    80  O   -0.467113
    81  N   -0.334834
    82  H    0.217531
    83  H    0.230100
    84  C   -0.416685
    85  H    0.176602
    86  H    0.135678
    87  H    0.140500
 Sum of Mulliken charges =   1.00000

 Dipole moment (field-independent basis, Debye):
    X=              0.8160    Y=             -0.9421    Z=              0.2904  Tot=              1.2798
 Quadrupole moment (field-independent basis, Debye-Ang):
   XX=           -213.4008   YY=           -229.8567   ZZ=           -233.7822
   XY=              5.1535   XZ=              0.3188   YZ=              0.6238

 Summary of Natural Population Analysis:

                                       Natural Population
                Natural  -----------------------------------------------
    Atom  No    Charge         Core      Valence    Rydberg      Total
 -----------------------------------------------------------------------
      P    1    1.74791      9.99589     3.16190    0.09429    13.25209
      P    2    1.76303      9.99604     3.14646    0.09447    13.23697
      C    3   -0.42882      1.99945     4.40042    0.02895     6.42882
      C    4   -1.10844      1.99943     5.10095    0.00806     7.10844
      C    5   -1.10641      1.99944     5.09898    0.00799     7.10641
      C    6   -1.10740      1.99943     5.09971    0.00826     7.10740
      C    7   -1.11227      1.99944     5.10432    0.00851     7.11227
      C    8   -1.10959      1.99944     5.10191    0.00824     7.10959
      C    9   -1.10580      1.99944     5.09811    0.00825     7.10580
      H   10    0.24340      0.00000     0.75577    0.00082     0.75660
      H   11    0.23948      0.00000     0.75964    0.00089     0.76052
      H   12    0.23601      0.00000     0.76291    0.00107     0.76399
      H   13    0.24340      0.00000     0.75577    0.00083     0.75660
      H   14    0.23344      0.00000     0.76538    0.00118     0.76656
      H   15    0.24019      0.00000     0.75894    0.00087     0.75981
      H   16    0.24381      0.00000     0.75535    0.00084     0.75619
      H   17    0.23636      0.00000     0.76248    0.00116     0.76364
      H   18    0.23940      0.00000     0.75960    0.00099     0.76060
      H   19    0.24527      0.00000     0.75387    0.00086     0.75473
      H   20    0.23667      0.00000     0.76224    0.00109     0.76333
      H   21    0.23192      0.00000     0.76704    0.00105     0.76808
      H   22    0.23182      0.00000     0.76704    0.00114     0.76818
      H   23    0.24187      0.00000     0.75730    0.00084     0.75813
      H   24    0.23694      0.00000     0.76215    0.00091     0.76306
      H   25    0.24281      0.00000     0.75636    0.00083     0.75719
      H   26    0.23064      0.00000     0.76809    0.00127     0.76936
      H   27    0.23452      0.00000     0.76440    0.00108     0.76548
     Rh   28   -0.54352     35.98519     9.52882    0.02951    45.54352
      C   29   -0.16797      1.99906     4.14782    0.02108     6.16797
      C   30   -0.17021      1.99908     4.15018    0.02095     6.17021
      C   31   -0.19634      1.99907     4.17644    0.02084     6.19634
      C   32   -0.15029      1.99908     4.13024    0.02098     6.15029
      C   33   -0.42718      1.99936     4.41569    0.01213     6.42718
      H   34    0.22016      0.00000     0.77738    0.00245     0.77984
      H   35    0.23133      0.00000     0.76675    0.00192     0.76867
      C   36   -0.42311      1.99936     4.41132    0.01244     6.42311
      C   37   -0.42346      1.99936     4.41215    0.01196     6.42346
      H   38    0.22213      0.00000     0.77547    0.00240     0.77787
      C   39   -0.42145      1.99935     4.40951    0.01258     6.42145
      H   40    0.23361      0.00000     0.76423    0.00216     0.76639
      H   41    0.22796      0.00000     0.77054    0.00150     0.77204
      H   42    0.21570      0.00000     0.78229    0.00201     0.78430
      H   43    0.23515      0.00000     0.76297    0.00188     0.76485
      H   44    0.22026      0.00000     0.77822    0.00152     0.77974
      H   45    0.21457      0.00000     0.78340    0.00203     0.78543
      H   46    0.22809      0.00000     0.77042    0.00149     0.77191
      H   47    0.22007      0.00000     0.77842    0.00150     0.77993
      H   48    0.23392      0.00000     0.76413    0.00195     0.76608
      C   49   -1.11706      1.99943     5.10893    0.00870     7.11706
      H   50    0.23421      0.00000     0.76465    0.00114     0.76579
      H   51    0.25153      0.00000     0.74714    0.00133     0.74847
      H   52    0.24018      0.00000     0.75892    0.00090     0.75982
      C   53   -1.10776      1.99943     5.09942    0.00890     7.10776
      H   54    0.23364      0.00000     0.76499    0.00138     0.76636
      H   55    0.24191      0.00000     0.75686    0.00122     0.75809
      H   56    0.24305      0.00000     0.75605    0.00090     0.75695
      C   57   -1.11308      1.99944     5.10473    0.00891     7.11308
      H   58    0.23815      0.00000     0.76077    0.00109     0.76185
      H   59    0.22874      0.00000     0.76953    0.00174     0.77126
      H   60    0.24574      0.00000     0.75338    0.00088     0.75426
     Si   61    1.86196      9.99791     2.10644    0.03369    12.13804
     Si   62    1.85780      9.99794     2.11111    0.03316    12.14220
     Si   63    1.86409      9.99796     2.10434    0.03361    12.13591
      C   64   -1.11071      1.99943     5.10296    0.00832     7.11071
      H   65    0.23873      0.00000     0.76014    0.00113     0.76127
      H   66    0.23070      0.00000     0.76821    0.00109     0.76930
      H   67    0.24473      0.00000     0.75442    0.00084     0.75527
      C   68   -1.10680      1.99943     5.09931    0.00806     7.10680
      H   69    0.23940      0.00000     0.75951    0.00109     0.76060
      H   70    0.24284      0.00000     0.75631    0.00085     0.75716
      H   71    0.23895      0.00000     0.75996    0.00109     0.76105
      C   72   -1.11080      1.99943     5.10284    0.00853     7.11080
      H   73    0.23010      0.00000     0.76872    0.00118     0.76990
      H   74    0.23717      0.00000     0.76177    0.00106     0.76283
      H   75    0.24471      0.00000     0.75442    0.00086     0.75529
     Si   76    1.86576      9.99790     2.10313    0.03321    12.13424
      O   77   -1.14768      1.99976     7.13815    0.00977     9.14768
      O   78   -1.13332      1.99978     7.12258    0.01096     9.13332
      O   79   -1.14544      1.99978     7.13468    0.01098     9.14544
      O   80   -1.14156      1.99977     7.13170    0.01008     9.14156
      N   81   -0.81458      1.99953     5.79573    0.01932     7.81458
      H   82    0.36713      0.00000     0.62987    0.00300     0.63287
      H   83    0.37799      0.00000     0.61951    0.00250     0.62201
      C   84   -0.61754      1.99935     4.60869    0.00951     6.61754
      H   85    0.22834      0.00000     0.76944    0.00222     0.77166
      H   86    0.22697      0.00000     0.77160    0.00143     0.77303
      H   87    0.21221      0.00000     0.78538    0.00241     0.78779
 =======================================================================
   * Total *    1.00000    149.95318   203.28975    0.75707   354.00000

 Normal termination of Gaussian 16 at Mon Jan 20 10:26:09 2025.
