 Gaussian 16, Revision B.01,
 Gaussian 16:  ES64L-G16RevB.01 20-Dec-2017

 ------------------------------------------
 # nmr=giao b3lyp/genecp pop=nbo scfcyc=200
 ------------------------------------------

 ---------
 DS-40_SPE
 ---------
 Symbolic Z-matrix:
 Charge =  1 Multiplicity = 1

                         Standard orientation:
 ---------------------------------------------------------------------
 Center     Atomic      Atomic             Coordinates (Angstroms)
 Number     Number       Type             X           Y           Z
 ---------------------------------------------------------------------
      1         15           0        1.397671    0.308150   -0.119770
      2         15           0       -1.389119    0.545489   -0.093290
      3          6           0        0.113080    1.695559   -0.540930
      4          6           0        3.103871   -0.410699    2.059350
      5          6           0        3.597041   -0.133069    3.484650
      6          6           0        3.711390    1.812491   -1.017620
      7          6           0        4.866710    1.914502   -2.021160
      8          6           0       -2.936569   -0.285102    2.147760
      9          6           0       -3.388939   -0.053172    3.594560
     10          6           0       -3.426831    2.469388   -0.846870
     11          6           0       -4.600691    2.802467   -1.776410
     12          1           0        3.959291   -0.388829    1.377930
     13          1           0        2.693682   -1.423719    2.013760
     14          1           0        2.744191   -0.156849    4.171010
     15          1           0        4.001450    0.883122    3.533340
     16          1           0        4.119790    1.846112   -0.003600
     17          1           0        3.064749    2.688681   -1.116260
     18          1           0        5.506370    1.030862   -1.925790
     19          1           0        4.462720    1.890942   -3.038590
     20          1           0       -2.487749   -1.278492    2.063970
     21          1           0       -3.817099   -0.282333    1.497410
     22          1           0       -2.511229   -0.052252    4.249280
     23          1           0       -3.834340    0.943387    3.677970
     24          1           0       -2.636771    3.214038   -0.983190
     25          1           0       -3.761991    2.559667    0.190280
     26          1           0       -4.269571    2.721267   -2.816820
     27          1           0       -5.386900    2.051727   -1.645940
     28         45           0       -0.152738   -1.417441   -0.514390
     29          6           0        1.187982   -2.937700   -1.567930
     30          6           0        1.157473   -3.228250   -0.220220
     31          6           0       -1.742118   -3.061562   -0.498720
     32          6           0       -1.689308   -2.502122   -1.758260
     33          6           0        0.415693   -3.674650   -2.646230
     34          1           0        2.019002   -2.338090   -1.922020
     35          1           0        1.983702   -2.863780    0.381380
     36          6           0        0.304003   -4.267530    0.463060
     37          6           0       -1.129887   -4.389911   -0.096430
     38          1           0       -2.497328   -2.674852    0.176190
     39          6           0       -0.959898   -3.049751   -2.960290
     40          1           0       -2.431328   -1.747082   -1.995700
     41          1           0        1.011673   -3.675260   -3.560340
     42          1           0        0.302113   -4.720890   -2.363310
     43          1           0        0.803154   -5.243650    0.419530
     44          1           0        0.252153   -4.008450    1.523000
     45          1           0       -1.150066   -5.075171   -0.943600
     46          1           0       -1.760647   -4.844242    0.669410
     47          1           0       -0.826578   -2.230311   -3.669930
     48          1           0       -1.593397   -3.785791   -3.471110
     49          6           0        2.892611    0.529141   -1.208120
     50          1           0        2.538221    0.446771   -2.237400
     51          1           0        3.518911   -0.351179   -1.035590
     52          6           0        2.039900    0.598270    1.606940
     53          1           0        1.185951    0.549780    2.284350
     54          1           0        2.437860    1.614071    1.655180
     55          6           0       -1.927460    0.772448    1.680250
     56          1           0       -2.349480    1.770728    1.797580
     57          1           0       -1.034930    0.725459    2.305120
     58          6           0       -2.870690    1.061928   -1.096950
     59          1           0       -3.639719    0.308817   -0.900770
     60          1           0       -2.591230    0.940758   -2.145320
     61          6           0       -4.388819   -1.102653    4.079490
     62          1           0       -4.690819   -0.909953    5.110000
     63          1           0       -5.292659   -1.103883    3.465350
     64          1           0       -3.959688   -2.107083    4.043390
     65          6           0       -5.176441    4.196597   -1.529050
     66          1           0       -4.421782    4.971397   -1.684890
     67          1           0       -6.006582    4.403376   -2.206120
     68          1           0       -5.550941    4.296336   -0.507300
     69          6           0        5.706369    3.177852   -1.832840
     70          1           0        6.155429    3.211473   -0.837140
     71          1           0        6.516909    3.222383   -2.561870
     72          1           0        5.100669    4.078992   -1.955750
     73          6           0        4.658161   -1.129508    3.950880
     74          1           0        5.539021   -1.103008    3.304820
     75          1           0        4.987331   -0.905168    4.966560
     76          1           0        4.272482   -2.152018    3.946750
     77          6           0        0.099910    1.848069   -2.071410
     78          1           0       -0.735621    2.481559   -2.367060
     79          1           0        1.013480    2.349450   -2.389150
     80          1           0        0.022790    0.891449   -2.587940
     81          6           0       -0.003941    3.407669    1.268300
     82          1           0       -1.088541    3.497059    1.374180
     83          1           0        0.350539    2.669410    1.989760
     84          8           0        0.303939    3.001610   -0.073800
     85          6           0        0.656748    4.749520    1.505860
     86          1           0        0.313478    5.481980    0.774660
     87          1           0        0.405088    5.116050    2.502840
     88          1           0        1.742118    4.671270    1.431290
 ---------------------------------------------------------------------

 SCF Done:  E(RB3LYP) =  -1969.56402730     A.U. after   15 cycles

      1  P    Isotropic =   257.0645   Anisotropy =    66.0698

      2  P    Isotropic =   248.2021   Anisotropy =    86.2506

      3  C    Isotropic =    78.4333   Anisotropy =    62.8449

      4  C    Isotropic =   152.9474   Anisotropy =    32.6994

      5  C    Isotropic =   154.1251   Anisotropy =    28.8887

      6  C    Isotropic =   154.0989   Anisotropy =    35.3966

      7  C    Isotropic =   154.8019   Anisotropy =    28.8252

      8  C    Isotropic =   150.8590   Anisotropy =    34.2837

      9  C    Isotropic =   154.1324   Anisotropy =    28.6576

     10  C    Isotropic =   153.7563   Anisotropy =    35.6319

     11  C    Isotropic =   154.8755   Anisotropy =    28.5224

     12  H    Isotropic =    30.7115   Anisotropy =     5.0806

     13  H    Isotropic =    30.5954   Anisotropy =     6.9000

     14  H    Isotropic =    30.4762   Anisotropy =     5.6377

     15  H    Isotropic =    30.4284   Anisotropy =     6.3907

     16  H    Isotropic =    30.5297   Anisotropy =     6.0455

     17  H    Isotropic =    30.3332   Anisotropy =     6.6565

     18  H    Isotropic =    30.6043   Anisotropy =     6.5663

     19  H    Isotropic =    30.4863   Anisotropy =     6.1453

     20  H    Isotropic =    30.5314   Anisotropy =     7.7532

     21  H    Isotropic =    30.7904   Anisotropy =     5.1068

     22  H    Isotropic =    30.4719   Anisotropy =     5.6275

     23  H    Isotropic =    30.4808   Anisotropy =     6.7609

     24  H    Isotropic =    30.5655   Anisotropy =     6.3743

     25  H    Isotropic =    30.4226   Anisotropy =     5.9429

     26  H    Isotropic =    30.4450   Anisotropy =     6.1554

     27  H    Isotropic =    30.5568   Anisotropy =     6.6356

     28  Rh   Isotropic =  -273.0248   Anisotropy =   296.1403

     29  C    Isotropic =    78.5697   Anisotropy =   122.4269

     30  C    Isotropic =    79.4385   Anisotropy =   113.4136

     31  C    Isotropic =    80.7221   Anisotropy =   119.4870

     32  C    Isotropic =    76.4620   Anisotropy =   117.5269

     33  C    Isotropic =   153.8235   Anisotropy =    25.7735

     34  H    Isotropic =    27.0704   Anisotropy =     6.7265

     35  H    Isotropic =    26.4673   Anisotropy =     5.4701

     36  C    Isotropic =   147.5782   Anisotropy =    30.4671

     37  C    Isotropic =   154.3159   Anisotropy =    24.5575

     38  H    Isotropic =    27.1393   Anisotropy =     6.8627

     39  C    Isotropic =   147.2417   Anisotropy =    30.5185

     40  H    Isotropic =    26.5591   Anisotropy =     4.5805

     41  H    Isotropic =    29.9089   Anisotropy =    11.6051

     42  H    Isotropic =    29.7641   Anisotropy =     9.6120

     43  H    Isotropic =    29.0970   Anisotropy =    12.6168

     44  H    Isotropic =    29.2692   Anisotropy =     7.5891

     45  H    Isotropic =    29.7838   Anisotropy =     9.7744

     46  H    Isotropic =    29.8931   Anisotropy =    11.4158

     47  H    Isotropic =    29.3306   Anisotropy =     7.6045

     48  H    Isotropic =    29.1631   Anisotropy =    12.8090

     49  C    Isotropic =   155.4586   Anisotropy =    43.7590

     50  H    Isotropic =    30.2356   Anisotropy =     3.8543

     51  H    Isotropic =    30.2992   Anisotropy =     4.1713

     52  C    Isotropic =   153.1983   Anisotropy =    27.2361

     53  H    Isotropic =    30.2888   Anisotropy =     6.1889

     54  H    Isotropic =    29.5639   Anisotropy =     4.6635

     55  C    Isotropic =   150.2381   Anisotropy =    31.2721

     56  H    Isotropic =    29.5372   Anisotropy =     5.1094

     57  H    Isotropic =    30.1469   Anisotropy =     6.2056

     58  C    Isotropic =   156.5493   Anisotropy =    42.0745

     59  H    Isotropic =    30.2809   Anisotropy =     4.4506

     60  H    Isotropic =    30.1132   Anisotropy =     3.8388

     61  C    Isotropic =   168.9853   Anisotropy =    29.3765

     62  H    Isotropic =    30.5259   Anisotropy =    12.1053

     63  H    Isotropic =    30.9836   Anisotropy =     8.5729

     64  H    Isotropic =    31.0043   Anisotropy =     7.6771

     65  C    Isotropic =   169.1757   Anisotropy =    29.4047

     66  H    Isotropic =    30.9711   Anisotropy =     8.0492

     67  H    Isotropic =    30.5328   Anisotropy =    12.1661

     68  H    Isotropic =    30.9855   Anisotropy =     8.3890

     69  C    Isotropic =   169.2187   Anisotropy =    29.3172

     70  H    Isotropic =    30.9882   Anisotropy =     8.3253

     71  H    Isotropic =    30.5480   Anisotropy =    12.2018

     72  H    Isotropic =    30.9580   Anisotropy =     8.0405

     73  C    Isotropic =   168.9900   Anisotropy =    29.5572

     74  H    Isotropic =    30.9503   Anisotropy =     8.6033

     75  H    Isotropic =    30.5140   Anisotropy =    12.0550

     76  H    Isotropic =    30.9701   Anisotropy =     7.9959

     77  C    Isotropic =   156.5990   Anisotropy =    29.6196

     78  H    Isotropic =    30.0888   Anisotropy =     7.4687

     79  H    Isotropic =    30.0037   Anisotropy =     7.4357

     80  H    Isotropic =    29.8522   Anisotropy =     4.1780

     81  C    Isotropic =   113.1835   Anisotropy =    65.4324

     82  H    Isotropic =    28.1639   Anisotropy =     4.6772

     83  H    Isotropic =    28.2581   Anisotropy =     4.9956

     84  O    Isotropic =   182.2593   Anisotropy =   132.5547

     85  C    Isotropic =   168.0749   Anisotropy =    28.5757

     86  H    Isotropic =    30.5062   Anisotropy =     8.9666

     87  H    Isotropic =    30.8263   Anisotropy =    11.0293

     88  H    Isotropic =    30.6405   Anisotropy =     7.0658

 The electronic state is 1-A.
 Alpha  occ. eigenvalues --  -77.23262 -77.22889 -19.24969 -10.36924 -10.32537
 Alpha  occ. eigenvalues --  -10.29558 -10.29466 -10.29411 -10.29379 -10.29229
 Alpha  occ. eigenvalues --  -10.29148 -10.29130 -10.28928 -10.28006 -10.27758
 Alpha  occ. eigenvalues --  -10.27704 -10.27691 -10.27682 -10.27507 -10.27480
 Alpha  occ. eigenvalues --  -10.27443 -10.27063 -10.26131 -10.26058 -10.25834
 Alpha  occ. eigenvalues --  -10.25580 -10.25569 -10.24280 -10.24176 -10.23946
 Alpha  occ. eigenvalues --  -10.23733  -6.69291  -6.68954  -4.85565  -4.85488
 Alpha  occ. eigenvalues --   -4.85214  -4.85204  -4.85155  -4.84873  -3.31599
 Alpha  occ. eigenvalues --   -2.08482  -2.07833  -2.05062  -1.15362  -0.94659
 Alpha  occ. eigenvalues --   -0.92430  -0.91422  -0.90201  -0.89856  -0.89421
 Alpha  occ. eigenvalues --   -0.89371  -0.88207  -0.85536  -0.84766  -0.83481
 Alpha  occ. eigenvalues --   -0.82478  -0.82266  -0.80552  -0.78031  -0.77713
 Alpha  occ. eigenvalues --   -0.75959  -0.73805  -0.73655  -0.73444  -0.71497
 Alpha  occ. eigenvalues --   -0.70759  -0.68330  -0.68223  -0.67942  -0.67710
 Alpha  occ. eigenvalues --   -0.66092  -0.65993  -0.65699  -0.62674  -0.60345
 Alpha  occ. eigenvalues --   -0.59729  -0.59511  -0.58730  -0.58474  -0.57609
 Alpha  occ. eigenvalues --   -0.57407  -0.57035  -0.56451  -0.55331  -0.54249
 Alpha  occ. eigenvalues --   -0.53838  -0.53691  -0.53178  -0.53045  -0.52843
 Alpha  occ. eigenvalues --   -0.52769  -0.52530  -0.52463  -0.52227  -0.51910
 Alpha  occ. eigenvalues --   -0.51111  -0.50949  -0.50459  -0.50053  -0.49636
 Alpha  occ. eigenvalues --   -0.48987  -0.48501  -0.48382  -0.48229  -0.47964
 Alpha  occ. eigenvalues --   -0.47291  -0.47019  -0.46814  -0.46470  -0.46312
 Alpha  occ. eigenvalues --   -0.46152  -0.45977  -0.45887  -0.45542  -0.45471
 Alpha  occ. eigenvalues --   -0.44804  -0.44051  -0.43932  -0.43706  -0.43562
 Alpha  occ. eigenvalues --   -0.43389  -0.43228  -0.42935  -0.42559  -0.42487
 Alpha  occ. eigenvalues --   -0.42380  -0.42176  -0.41943  -0.41885  -0.41675
 Alpha  occ. eigenvalues --   -0.40794  -0.40631  -0.37064  -0.36619  -0.35699
 Alpha  occ. eigenvalues --   -0.35038  -0.34602  -0.33842  -0.30888
 Alpha virt. eigenvalues --   -0.16119  -0.13563  -0.09730  -0.08942  -0.08234
 Alpha virt. eigenvalues --   -0.07925  -0.07429  -0.07233  -0.06779  -0.06260
 Alpha virt. eigenvalues --   -0.05761  -0.05401  -0.05168  -0.05044  -0.04229

 Mulliken charges:
               1
     1  P    0.398504
     2  P    0.339697
     3  C   -0.070841
     4  C   -0.268984
     5  C   -0.207355
     6  C   -0.241601
     7  C   -0.195875
     8  C   -0.274806
     9  C   -0.205440
    10  C   -0.250940
    11  C   -0.202411
    12  H    0.134084
    13  H    0.105294
    14  H    0.114231
    15  H    0.117376
    16  H    0.124127
    17  H    0.144029
    18  H    0.113198
    19  H    0.113129
    20  H    0.116042
    21  H    0.128273
    22  H    0.113844
    23  H    0.119001
    24  H    0.134872
    25  H    0.126319
    26  H    0.114720
    27  H    0.115609
    28  Rh  -0.551246
    29  C   -0.017471
    30  C   -0.107806
    31  C   -0.031877
    32  C   -0.112330
    33  C   -0.352584
    34  H    0.187403
    35  H    0.186845
    36  C   -0.223547
    37  C   -0.346069
    38  H    0.177196
    39  C   -0.215424
    40  H    0.194057
    41  H    0.168200
    42  H    0.169119
    43  H    0.171447
    44  H    0.128528
    45  H    0.167574
    46  H    0.167766
    47  H    0.129348
    48  H    0.170992
    49  C   -0.380335
    50  H    0.173434
    51  H    0.180832
    52  C   -0.306956
    53  H    0.144001
    54  H    0.188778
    55  C   -0.248019
    56  H    0.162185
    57  H    0.134836
    58  C   -0.360076
    59  H    0.177383
    60  H    0.172362
    61  C   -0.348044
    62  H    0.144358
    63  H    0.117464
    64  H    0.112250
    65  C   -0.350673
    66  H    0.115864
    67  H    0.143914
    68  H    0.115935
    69  C   -0.352251
    70  H    0.115229
    71  H    0.142701
    72  H    0.116260
    73  C   -0.349088
    74  H    0.118017
    75  H    0.143654
    76  H    0.113575
    77  C   -0.468036
    78  H    0.165927
    79  H    0.170051
    80  H    0.159719
    81  C   -0.059345
    82  H    0.122957
    83  H    0.107809
    84  O   -0.194097
    85  C   -0.354780
    86  H    0.138885
    87  H    0.132012
    88  H    0.127088
 Sum of Mulliken charges =   1.00000

 Dipole moment (field-independent basis, Debye):
    X=             -0.4634    Y=             -0.5162    Z=              0.0833  Tot=              0.6986
 Quadrupole moment (field-independent basis, Debye-Ang):
   XX=           -191.3510   YY=           -198.3206   ZZ=           -206.8448
   XY=             -1.4753   XZ=              0.3540   YZ=              4.9889

 Summary of Natural Population Analysis:

                                       Natural Population
                Natural  -----------------------------------------------
    Atom  No    Charge         Core      Valence    Rydberg      Total
 -----------------------------------------------------------------------
      P    1    1.07812      9.99661     3.87543    0.04984    13.92188
      P    2    1.07026      9.99659     3.88333    0.04983    13.92974
      C    3   -0.17419      1.99926     4.14133    0.03360     6.17419
      C    4   -0.38401      1.99941     4.37331    0.01130     6.38401
      C    5   -0.37740      1.99945     4.36781    0.01014     6.37740
      C    6   -0.39386      1.99942     4.38184    0.01260     6.39386
      C    7   -0.37772      1.99945     4.36819    0.01008     6.37772
      C    8   -0.38444      1.99941     4.37371    0.01131     6.38444
      C    9   -0.37541      1.99945     4.36597    0.00999     6.37541
      C   10   -0.39241      1.99942     4.38050    0.01250     6.39241
      C   11   -0.37751      1.99945     4.36791    0.01015     6.37751
      H   12    0.19562      0.00000     0.80198    0.00240     0.80438
      H   13    0.19666      0.00000     0.80120    0.00214     0.80334
      H   14    0.19338      0.00000     0.80486    0.00176     0.80662
      H   15    0.19650      0.00000     0.80190    0.00160     0.80350
      H   16    0.19419      0.00000     0.80365    0.00216     0.80581
      H   17    0.20384      0.00000     0.79339    0.00277     0.79616
      H   18    0.19456      0.00000     0.80366    0.00178     0.80544
      H   19    0.19386      0.00000     0.80438    0.00175     0.80614
      H   20    0.20258      0.00000     0.79538    0.00204     0.79742
      H   21    0.19326      0.00000     0.80430    0.00243     0.80674
      H   22    0.19140      0.00000     0.80678    0.00182     0.80860
      H   23    0.19636      0.00000     0.80201    0.00164     0.80364
      H   24    0.19938      0.00000     0.79794    0.00268     0.80062
      H   25    0.19407      0.00000     0.80381    0.00212     0.80593
      H   26    0.19464      0.00000     0.80361    0.00175     0.80536
      H   27    0.19562      0.00000     0.80262    0.00176     0.80438
     Rh   28   -0.40868     35.98549     9.39642    0.02677    45.40868
      C   29   -0.16530      1.99906     4.14638    0.01986     6.16530
      C   30   -0.16985      1.99907     4.15048    0.02030     6.16985
      C   31   -0.18525      1.99906     4.16634    0.01985     6.18525
      C   32   -0.15354      1.99907     4.13417    0.02030     6.15354
      C   33   -0.42454      1.99936     4.41309    0.01208     6.42454
      H   34    0.22175      0.00000     0.77618    0.00207     0.77825
      H   35    0.22242      0.00000     0.77542    0.00216     0.77758
      C   36   -0.41809      1.99935     4.40598    0.01275     6.41809
      C   37   -0.42314      1.99936     4.41181    0.01197     6.42314
      H   38    0.22379      0.00000     0.77408    0.00214     0.77621
      C   39   -0.41802      1.99935     4.40587    0.01280     6.41802
      H   40    0.22094      0.00000     0.77696    0.00210     0.77906
      H   41    0.22828      0.00000     0.77030    0.00142     0.77172
      H   42    0.21512      0.00000     0.78295    0.00193     0.78488
      H   43    0.23330      0.00000     0.76484    0.00187     0.76670
      H   44    0.21521      0.00000     0.78324    0.00156     0.78479
      H   45    0.21451      0.00000     0.78353    0.00196     0.78549
      H   46    0.22802      0.00000     0.77053    0.00145     0.77198
      H   47    0.21448      0.00000     0.78391    0.00160     0.78552
      H   48    0.23340      0.00000     0.76476    0.00184     0.76660
      C   49   -0.68297      1.99937     4.66954    0.01406     6.68297
      H   50    0.23496      0.00000     0.76311    0.00193     0.76504
      H   51    0.23381      0.00000     0.76429    0.00190     0.76619
      C   52   -0.68171      1.99937     4.66765    0.01469     6.68171
      H   53    0.22414      0.00000     0.77358    0.00228     0.77586
      H   54    0.22926      0.00000     0.76773    0.00301     0.77074
      C   55   -0.67644      1.99936     4.66277    0.01430     6.67644
      H   56    0.22557      0.00000     0.77140    0.00304     0.77443
      H   57    0.22569      0.00000     0.77220    0.00211     0.77431
      C   58   -0.68645      1.99937     4.67287    0.01421     6.68645
      H   59    0.23481      0.00000     0.76324    0.00196     0.76519
      H   60    0.23435      0.00000     0.76369    0.00197     0.76565
      C   61   -0.58830      1.99947     4.58273    0.00610     6.58830
      H   62    0.21736      0.00000     0.78158    0.00106     0.78264
      H   63    0.20099      0.00000     0.79769    0.00132     0.79901
      H   64    0.19862      0.00000     0.80001    0.00138     0.80138
      C   65   -0.58835      1.99947     4.58294    0.00595     6.58835
      H   66    0.20045      0.00000     0.79820    0.00135     0.79955
      H   67    0.21720      0.00000     0.78175    0.00105     0.78280
      H   68    0.20007      0.00000     0.79858    0.00135     0.79993
      C   69   -0.58807      1.99947     4.58267    0.00593     6.58807
      H   70    0.19978      0.00000     0.79886    0.00136     0.80022
      H   71    0.21633      0.00000     0.78261    0.00106     0.78367
      H   72    0.20061      0.00000     0.79804    0.00135     0.79939
      C   73   -0.58838      1.99947     4.58295    0.00596     6.58838
      H   74    0.20116      0.00000     0.79748    0.00135     0.79884
      H   75    0.21718      0.00000     0.78177    0.00105     0.78282
      H   76    0.19921      0.00000     0.79942    0.00138     0.80079
      C   77   -0.62883      1.99933     4.61663    0.01286     6.62883
      H   78    0.22508      0.00000     0.77302    0.00191     0.77492
      H   79    0.22917      0.00000     0.76898    0.00185     0.77083
      H   80    0.22312      0.00000     0.77561    0.00127     0.77688
      C   81   -0.06153      1.99927     4.04735    0.01491     6.06153
      H   82    0.16383      0.00000     0.83337    0.00279     0.83617
      H   83    0.16169      0.00000     0.83516    0.00315     0.83831
      O   84   -0.53918      1.99975     6.51146    0.02797     8.53918
      C   85   -0.60318      1.99946     4.59585    0.00787     6.60318
      H   86    0.21861      0.00000     0.78007    0.00132     0.78139
      H   87    0.21835      0.00000     0.78060    0.00105     0.78165
      H   88    0.20985      0.00000     0.78881    0.00134     0.79015
 =======================================================================
   * Total *    1.00000    113.96024   191.41428    0.62548   306.00000

 Normal termination of Gaussian 16 at Mon Jan 20 09:49:17 2025.
