 Gaussian 16, Revision B.01,
 Gaussian 16:  ES64L-G16RevB.01 20-Dec-2017

 ------------------------------------------
 # nmr=giao b3lyp/genecp pop=nbo scfcyc=200
 ------------------------------------------

 ---------
 DS-48_SPE
 ---------
 Symbolic Z-matrix:
 Charge =  1 Multiplicity = 1

                         Standard orientation:
 ---------------------------------------------------------------------
 Center     Atomic      Atomic             Coordinates (Angstroms)
 Number     Number       Type             X           Y           Z
 ---------------------------------------------------------------------
      1         15           0        1.433960   -0.190018   -0.104941
      2          6           0        2.176460   -0.135757   -2.838261
      3          1           0        3.108360   -0.296327   -3.379051
      4          6           0        4.043710   -0.002346   -1.173501
      5          1           0        4.166790   -0.006356   -0.098731
      6          6           0        3.000931   -1.813467    1.517859
      7          1           0        4.029271   -1.735796    1.150229
      8          6           0        2.930549    0.525943    2.349179
      9          1           0        2.799970    0.002603    3.293139
     10         45           0       -1.149510   -1.018520   -0.236291
     11          6           0       -1.393208   -3.048750   -1.444631
     12          6           0       -1.093648   -3.336459   -0.141751
     13          6           0       -3.163239   -1.438711    0.526009
     14          6           0       -3.265460   -0.958981   -0.782701
     15          1           0       -0.563888   -2.994509   -2.137741
     16          6           0       -2.772348   -3.121801   -2.061601
     17          1           0       -0.055688   -3.527569    0.082949
     18          6           0       -2.065598   -3.715450    0.946899
     19          6           0       -3.364539   -2.884851    0.949649
     20          1           0       -3.329140   -0.708931    1.309419
     21          1           0       -3.529290    0.087179   -0.888451
     22          6           0       -3.524799   -1.778311   -2.021791
     23          1           0       -3.352238   -3.897681   -1.561841
     24          1           0       -2.673068   -3.440470   -3.100551
     25          1           0       -2.304217   -4.783380    0.872089
     26          1           0       -1.557778   -3.591360    1.905399
     27          1           0       -3.784969   -2.898601    1.956459
     28          1           0       -4.114558   -3.348761    0.307789
     29          1           0       -4.603679   -1.949802   -2.126921
     30          1           0       -3.234410   -1.179811   -2.887161
     31          7           0        2.580010   -0.143757   -1.404131
     32          7           0        2.351270   -0.460367    1.353259
     33          6           0        4.627519    1.319334   -1.688721
     34          1           0        5.679739    1.389045   -1.404401
     35          1           0        4.583869    1.392124   -2.776821
     36          1           0        4.109458    2.182724   -1.269121
     37          6           0        4.836430   -1.199086   -1.720121
     38          1           0        4.433261   -2.143876   -1.354881
     39          1           0        4.844710   -1.232986   -2.811181
     40          1           0        5.877020   -1.127185   -1.397221
     41          6           0        1.612309    1.205222   -3.323441
     42          1           0        0.639869    1.409132   -2.878741
     43          1           0        2.279798    2.032293   -3.087371
     44          1           0        1.480229    1.180182   -4.407601
     45          6           0        1.252610   -1.288488   -3.226891
     46          1           0        1.143290   -1.320688   -4.312701
     47          1           0        1.658151   -2.246738   -2.898641
     48          1           0        0.257730   -1.161969   -2.799811
     49          6           0        4.436559    0.794324    2.193179
     50          1           0        5.027650   -0.113566    2.076539
     51          1           0        4.647029    1.457234    1.352669
     52          1           0        4.796289    1.295124    3.094579
     53          6           0        2.229518    1.867143    2.565589
     54          1           0        2.487268    2.610453    1.814599
     55          1           0        1.150009    1.783422    2.636279
     56          1           0        2.592538    2.258363    3.518329
     57          6           0        3.071681   -2.274737    2.983579
     58          1           0        3.404612   -3.313487    3.003109
     59          1           0        3.776441   -1.709116    3.589909
     60          1           0        2.087591   -2.231047    3.455499
     61          6           0        2.333112   -2.934667    0.727259
     62          1           0        1.384502   -3.201378    1.188969
     63          1           0        2.172271   -2.698747   -0.323591
     64          1           0        2.978062   -3.813517    0.765569
     65          6           0        0.654809    1.474752    0.062639
     66          7           0        1.214698    2.608012   -0.207571
     67          7           0        1.706857    3.590442   -0.480671
     68          6           0       -2.386892    3.028880    1.827189
     69          6           0       -2.125753    3.614300    0.450649
     70          1           0       -3.460472    2.891559    1.981549
     71          1           0       -2.012213    3.693730    2.611389
     72          1           0       -2.947913    4.260339    0.153209
     73          1           0       -1.206863    4.216810    0.449959
     74         15           0       -1.152521    1.209520    0.351799
     75          7           0       -1.696391    1.734180    1.876039
     76          7           0       -2.026592    2.461730   -0.467451
     77          6           0       -1.770992    2.781440   -1.900631
     78          1           0       -0.708882    3.021861   -2.037821
     79          6           0       -1.532631    1.137350    3.222249
     80          1           0       -0.896372    1.829611    3.790629
     81          6           0       -2.120441    1.603010   -2.805701
     82          1           0       -3.196841    1.423189   -2.795231
     83          1           0       -1.823982    1.828310   -3.831101
     84          1           0       -1.616261    0.684270   -2.503541
     85          6           0       -2.573203    4.008570   -2.344191
     86          1           0       -2.254293    4.926290   -1.851581
     87          1           0       -2.429593    4.151650   -3.415751
     88          1           0       -3.641033    3.864459   -2.165111
     89          6           0       -0.847640   -0.225819    3.225939
     90          1           0       -0.673250   -0.520979    4.262159
     91          1           0       -1.471990   -0.988600    2.761669
     92          1           0        0.115240   -0.221569    2.717929
     93          6           0       -2.877171    1.046869    3.956649
     94          1           0       -2.718671    0.628719    4.951979
     95          1           0       -3.350032    2.019739    4.086539
     96          1           0       -3.573841    0.396819    3.422499
 ---------------------------------------------------------------------

 SCF Done:  E(RB3LYP) =  -2262.13528872     A.U. after   18 cycles

      1  P    Isotropic =   231.7012   Anisotropy =   110.9252

      2  C    Isotropic =   132.8901   Anisotropy =    42.4165

      3  H    Isotropic =    28.5375   Anisotropy =     5.0517

      4  C    Isotropic =   130.4930   Anisotropy =    48.2672

      5  H    Isotropic =    28.6034   Anisotropy =     8.6828

      6  C    Isotropic =   129.2405   Anisotropy =    48.5909

      7  H    Isotropic =    28.5079   Anisotropy =     4.8528

      8  C    Isotropic =   124.5953   Anisotropy =    55.0476

      9  H    Isotropic =    27.7902   Anisotropy =     3.5237

     10  Rh   Isotropic =  -435.3930   Anisotropy =   463.1996

     11  C    Isotropic =    62.2464   Anisotropy =   146.3303

     12  C    Isotropic =    67.4154   Anisotropy =   131.7138

     13  C    Isotropic =    94.6190   Anisotropy =    98.9794

     14  C    Isotropic =    90.4561   Anisotropy =    98.5849

     15  H    Isotropic =    26.7334   Anisotropy =     3.0168

     16  C    Isotropic =   155.5191   Anisotropy =    24.2971

     17  H    Isotropic =    26.3479   Anisotropy =     5.3193

     18  C    Isotropic =   150.8673   Anisotropy =    22.4817

     19  C    Isotropic =   154.0271   Anisotropy =    24.8806

     20  H    Isotropic =    28.2402   Anisotropy =     6.1451

     21  H    Isotropic =    27.7876   Anisotropy =     4.0175

     22  C    Isotropic =   147.2165   Anisotropy =    31.0555

     23  H    Isotropic =    30.0312   Anisotropy =     9.1748

     24  H    Isotropic =    29.9626   Anisotropy =    10.9673

     25  H    Isotropic =    29.4163   Anisotropy =    12.4103

     26  H    Isotropic =    29.0676   Anisotropy =     5.7775

     27  H    Isotropic =    29.7525   Anisotropy =    10.0229

     28  H    Isotropic =    29.8245   Anisotropy =     9.6667

     29  H    Isotropic =    29.2495   Anisotropy =    12.4339

     30  H    Isotropic =    28.9792   Anisotropy =     5.9023

     31  N    Isotropic =   156.4382   Anisotropy =    60.8230

     32  N    Isotropic =   163.1035   Anisotropy =    49.7790

     33  C    Isotropic =   157.1914   Anisotropy =    38.3074

     34  H    Isotropic =    30.7251   Anisotropy =    11.0503

     35  H    Isotropic =    30.4797   Anisotropy =     6.8822

     36  H    Isotropic =    31.3783   Anisotropy =     5.2072

     37  C    Isotropic =   163.6950   Anisotropy =    37.7112

     38  H    Isotropic =    31.1415   Anisotropy =     6.1627

     39  H    Isotropic =    30.5220   Anisotropy =     7.3893

     40  H    Isotropic =    30.9038   Anisotropy =    11.1582

     41  C    Isotropic =   158.9876   Anisotropy =    40.1765

     42  H    Isotropic =    30.2815   Anisotropy =     9.5876

     43  H    Isotropic =    30.4891   Anisotropy =     5.2553

     44  H    Isotropic =    30.6934   Anisotropy =    10.4469

     45  C    Isotropic =   159.7363   Anisotropy =    32.0540

     46  H    Isotropic =    30.4917   Anisotropy =     9.2670

     47  H    Isotropic =    31.0372   Anisotropy =     5.1814

     48  H    Isotropic =    29.2751   Anisotropy =    10.0351

     49  C    Isotropic =   164.5674   Anisotropy =    29.3639

     50  H    Isotropic =    30.1327   Anisotropy =     7.2032

     51  H    Isotropic =    31.1476   Anisotropy =     5.8145

     52  H    Isotropic =    30.8627   Anisotropy =    11.8337

     53  C    Isotropic =   162.1199   Anisotropy =    31.0250

     54  H    Isotropic =    30.7339   Anisotropy =     4.5306

     55  H    Isotropic =    29.9427   Anisotropy =    10.2700

     56  H    Isotropic =    30.5856   Anisotropy =    10.2868

     57  C    Isotropic =   159.9675   Anisotropy =    34.2503

     58  H    Isotropic =    30.7057   Anisotropy =    10.6300

     59  H    Isotropic =    30.0504   Anisotropy =     8.7672

     60  H    Isotropic =    30.8261   Anisotropy =     6.3621

     61  C    Isotropic =   157.5040   Anisotropy =    27.1447

     62  H    Isotropic =    30.5015   Anisotropy =     8.2030

     63  H    Isotropic =    30.4123   Anisotropy =     6.1790

     64  H    Isotropic =    30.5224   Anisotropy =     9.5069

     65  C    Isotropic =   115.6487   Anisotropy =    69.8827

     66  N    Isotropic =   -25.5454   Anisotropy =   360.1775

     67  N    Isotropic =  -144.5200   Anisotropy =   169.5807

     68  C    Isotropic =   131.4148   Anisotropy =    43.7682

     69  C    Isotropic =   132.1709   Anisotropy =    37.4791

     70  H    Isotropic =    28.6225   Anisotropy =     9.5399

     71  H    Isotropic =    29.1599   Anisotropy =     9.3133

     72  H    Isotropic =    28.5843   Anisotropy =     8.7253

     73  H    Isotropic =    28.9026   Anisotropy =     8.5697

     74  P    Isotropic =   193.8145   Anisotropy =   172.1790

     75  N    Isotropic =   174.7428   Anisotropy =    51.5341

     76  N    Isotropic =   160.8184   Anisotropy =    73.7623

     77  C    Isotropic =   131.4485   Anisotropy =    42.9237

     78  H    Isotropic =    28.4856   Anisotropy =     5.5543

     79  C    Isotropic =   127.8223   Anisotropy =    44.8438

     80  H    Isotropic =    28.2903   Anisotropy =     5.9752

     81  C    Isotropic =   155.2412   Anisotropy =    27.8538

     82  H    Isotropic =    30.4103   Anisotropy =     5.3243

     83  H    Isotropic =    30.3630   Anisotropy =     7.9046

     84  H    Isotropic =    28.2256   Anisotropy =     8.2208

     85  C    Isotropic =   160.5081   Anisotropy =    34.1597

     86  H    Isotropic =    30.4133   Anisotropy =     9.6865

     87  H    Isotropic =    30.6945   Anisotropy =    10.3791

     88  H    Isotropic =    30.8252   Anisotropy =     8.7370

     89  C    Isotropic =   159.0145   Anisotropy =    28.3621

     90  H    Isotropic =    30.3252   Anisotropy =     8.2102

     91  H    Isotropic =    29.3043   Anisotropy =     8.1858

     92  H    Isotropic =    29.1534   Anisotropy =    12.4674

     93  C    Isotropic =   160.2653   Anisotropy =    36.4573

     94  H    Isotropic =    30.7027   Anisotropy =    10.7821

     95  H    Isotropic =    30.1259   Anisotropy =     9.7571

     96  H    Isotropic =    31.1277   Anisotropy =     5.5531

 The electronic state is 1-A.
 Alpha  occ. eigenvalues --  -77.27730 -77.27101 -14.56739 -14.50238 -14.43136
 Alpha  occ. eigenvalues --  -14.42938 -14.42748 -14.41696 -10.31702 -10.31524
 Alpha  occ. eigenvalues --  -10.31243 -10.31131 -10.30949 -10.30791 -10.30693
 Alpha  occ. eigenvalues --  -10.30435 -10.30014 -10.29110 -10.29057 -10.28916
 Alpha  occ. eigenvalues --  -10.28880 -10.27646 -10.27431 -10.27387 -10.27344
 Alpha  occ. eigenvalues --  -10.26112 -10.25780 -10.25630 -10.25562 -10.25534
 Alpha  occ. eigenvalues --  -10.25530 -10.25527 -10.25416 -10.25317 -10.24927
 Alpha  occ. eigenvalues --  -10.24822 -10.24819  -6.72959  -6.72166  -4.89302
 Alpha  occ. eigenvalues --   -4.89247  -4.88877  -4.88516  -4.88497  -4.88030
 Alpha  occ. eigenvalues --   -3.31820  -2.08623  -2.08124  -2.05279  -1.23089
 Alpha  occ. eigenvalues --   -1.06044  -1.02420  -0.99887  -0.99706  -0.96465
 Alpha  occ. eigenvalues --   -0.94625  -0.89891  -0.89232  -0.89068  -0.88446
 Alpha  occ. eigenvalues --   -0.88189  -0.86205  -0.86151  -0.84387  -0.83541
 Alpha  occ. eigenvalues --   -0.80501  -0.79298  -0.78993  -0.78679  -0.78454
 Alpha  occ. eigenvalues --   -0.78189  -0.77814  -0.77566  -0.76207  -0.73943
 Alpha  occ. eigenvalues --   -0.71917  -0.70697  -0.70592  -0.69652  -0.68604
 Alpha  occ. eigenvalues --   -0.66956  -0.66743  -0.65892  -0.64122  -0.62711
 Alpha  occ. eigenvalues --   -0.61295  -0.61019  -0.60591  -0.60153  -0.59941
 Alpha  occ. eigenvalues --   -0.59180  -0.58760  -0.58472  -0.57625  -0.57006
 Alpha  occ. eigenvalues --   -0.56810  -0.56455  -0.56378  -0.55586  -0.55537
 Alpha  occ. eigenvalues --   -0.55172  -0.54657  -0.53810  -0.53590  -0.53482
 Alpha  occ. eigenvalues --   -0.53207  -0.52823  -0.52803  -0.52401  -0.52062
 Alpha  occ. eigenvalues --   -0.50971  -0.50397  -0.50053  -0.49871  -0.49616
 Alpha  occ. eigenvalues --   -0.49453  -0.49109  -0.49015  -0.48529  -0.48503
 Alpha  occ. eigenvalues --   -0.48245  -0.48086  -0.47912  -0.47784  -0.47703
 Alpha  occ. eigenvalues --   -0.47514  -0.47217  -0.46949  -0.46497  -0.46352
 Alpha  occ. eigenvalues --   -0.46201  -0.46055  -0.45895  -0.45552  -0.45509
 Alpha  occ. eigenvalues --   -0.45096  -0.44832  -0.44774  -0.44542  -0.44281
 Alpha  occ. eigenvalues --   -0.44016  -0.43669  -0.43515  -0.43234  -0.43098
 Alpha  occ. eigenvalues --   -0.42770  -0.42177  -0.42080  -0.40653  -0.38334
 Alpha  occ. eigenvalues --   -0.37868  -0.36520  -0.35492  -0.34786  -0.34296
 Alpha  occ. eigenvalues --   -0.34029  -0.33616  -0.32703  -0.31452  -0.30324
 Alpha virt. eigenvalues --   -0.17738  -0.16486  -0.14156  -0.11419  -0.09540
 Alpha virt. eigenvalues --   -0.07849  -0.07233  -0.06610  -0.06571  -0.06059
 Alpha virt. eigenvalues --   -0.05526  -0.04766  -0.04711  -0.04404  -0.04183

 Mulliken charges:
               1
     1  P    0.578719
     2  C   -0.021571
     3  H    0.161289
     4  C    0.009807
     5  H    0.102406
     6  C   -0.001938
     7  H    0.164748
     8  C   -0.008619
     9  H    0.175198
    10  Rh  -0.501858
    11  C   -0.057725
    12  C   -0.087583
    13  C   -0.055849
    14  C   -0.073710
    15  H    0.188227
    16  C   -0.327645
    17  H    0.191554
    18  C   -0.226676
    19  C   -0.354085
    20  H    0.202064
    21  H    0.227093
    22  C   -0.272166
    23  H    0.166808
    24  H    0.168693
    25  H    0.171688
    26  H    0.133506
    27  H    0.165501
    28  H    0.172176
    29  H    0.166336
    30  H    0.150060
    31  N   -0.331586
    32  N   -0.400165
    33  C   -0.390027
    34  H    0.146249
    35  H    0.141920
    36  H    0.128692
    37  C   -0.376537
    38  H    0.133767
    39  H    0.130780
    40  H    0.144258
    41  C   -0.349979
    42  H    0.076581
    43  H    0.148125
    44  H    0.143172
    45  C   -0.408423
    46  H    0.150910
    47  H    0.142926
    48  H    0.097906
    49  C   -0.375240
    50  H    0.152016
    51  H    0.139792
    52  H    0.155064
    53  C   -0.489988
    54  H    0.148298
    55  H    0.163009
    56  H    0.155020
    57  C   -0.430775
    58  H    0.148458
    59  H    0.151473
    60  H    0.146234
    61  C   -0.475819
    62  H    0.137000
    63  H    0.158602
    64  H    0.158177
    65  C   -0.596765
    66  N    0.388420
    67  N   -0.144903
    68  C   -0.143089
    69  C   -0.205977
    70  H    0.150829
    71  H    0.144427
    72  H    0.168965
    73  H    0.149071
    74  P    0.665084
    75  N   -0.306696
    76  N   -0.281567
    77  C   -0.054285
    78  H    0.146624
    79  C   -0.041109
    80  H    0.158380
    81  C   -0.417636
    82  H    0.142874
    83  H    0.152825
    84  H    0.155735
    85  C   -0.412321
    86  H    0.151152
    87  H    0.143031
    88  H    0.143265
    89  C   -0.378721
    90  H    0.150495
    91  H    0.118233
    92  H    0.148793
    93  C   -0.389184
    94  H    0.142570
    95  H    0.149873
    96  H    0.125271
 Sum of Mulliken charges =   1.00000

 Dipole moment (field-independent basis, Debye):
    X=             -0.9999    Y=             -0.8649    Z=              0.8974  Tot=              1.5979
 Quadrupole moment (field-independent basis, Debye-Ang):
   XX=           -220.3308   YY=           -234.0493   ZZ=           -232.2406
   XY=             -5.4469   XZ=              1.9283   YZ=              2.5267

 Summary of Natural Population Analysis:

                                       Natural Population
                Natural  -----------------------------------------------
    Atom  No    Charge         Core      Valence    Rydberg      Total
 -----------------------------------------------------------------------
      P    1    1.39491      9.99659     3.53904    0.06946    13.60509
      C    2   -0.03457      1.99935     4.01924    0.01599     6.03457
      H    3    0.20401      0.00000     0.79314    0.00285     0.79599
      C    4   -0.04282      1.99934     4.02651    0.01698     6.04282
      H    5    0.21457      0.00000     0.78177    0.00365     0.78543
      C    6   -0.02883      1.99934     4.01350    0.01599     6.02883
      H    7    0.18061      0.00000     0.81669    0.00271     0.81939
      C    8   -0.02522      1.99930     4.00876    0.01715     6.02522
      H    9    0.19817      0.00000     0.79900    0.00283     0.80183
     Rh   10   -0.26762     35.98438     9.25303    0.03020    45.26762
      C   11   -0.16589      1.99909     4.14671    0.02009     6.16589
      C   12   -0.18854      1.99910     4.16844    0.02100     6.18854
      C   13   -0.17609      1.99909     4.15799    0.01900     6.17609
      C   14   -0.17058      1.99911     4.15219    0.01928     6.17058
      H   15    0.22813      0.00000     0.76962    0.00225     0.77187
      C   16   -0.42843      1.99935     4.41696    0.01212     6.42843
      H   17    0.22775      0.00000     0.77004    0.00221     0.77225
      C   18   -0.41733      1.99935     4.40543    0.01255     6.41733
      C   19   -0.42368      1.99935     4.41222    0.01211     6.42368
      H   20    0.22182      0.00000     0.77551    0.00267     0.77818
      H   21    0.23035      0.00000     0.76718    0.00247     0.76965
      C   22   -0.41592      1.99934     4.40378    0.01280     6.41592
      H   23    0.21662      0.00000     0.78142    0.00196     0.78338
      H   24    0.22965      0.00000     0.76886    0.00149     0.77035
      H   25    0.23410      0.00000     0.76401    0.00189     0.76590
      H   26    0.21546      0.00000     0.78267    0.00187     0.78454
      H   27    0.22630      0.00000     0.77219    0.00151     0.77370
      H   28    0.21735      0.00000     0.78064    0.00201     0.78265
      H   29    0.23147      0.00000     0.76654    0.00198     0.76853
      H   30    0.21737      0.00000     0.78077    0.00187     0.78263
      N   31   -0.76288      1.99950     5.73698    0.02639     7.76288
      N   32   -0.76272      1.99952     5.74221    0.02099     7.76272
      C   33   -0.61195      1.99941     4.60383    0.00870     6.61195
      H   34    0.21843      0.00000     0.78038    0.00119     0.78157
      H   35    0.20556      0.00000     0.79302    0.00142     0.79444
      H   36    0.20392      0.00000     0.79414    0.00194     0.79608
      C   37   -0.60789      1.99941     4.60035    0.00814     6.60789
      H   38    0.20663      0.00000     0.79204    0.00133     0.79337
      H   39    0.20259      0.00000     0.79601    0.00140     0.79741
      H   40    0.21757      0.00000     0.78130    0.00112     0.78243
      C   41   -0.60690      1.99941     4.59861    0.00888     6.60690
      H   42    0.19526      0.00000     0.80267    0.00207     0.80474
      H   43    0.21419      0.00000     0.78424    0.00157     0.78581
      H   44    0.21518      0.00000     0.78362    0.00120     0.78482
      C   45   -0.59341      1.99941     4.58610    0.00790     6.59341
      H   46    0.21919      0.00000     0.77964    0.00117     0.78081
      H   47    0.20844      0.00000     0.78999    0.00157     0.79156
      H   48    0.20256      0.00000     0.79520    0.00224     0.79744
      C   49   -0.62173      1.99940     4.61432    0.00802     6.62173
      H   50    0.20751      0.00000     0.79121    0.00128     0.79249
      H   51    0.20483      0.00000     0.79365    0.00152     0.79517
      H   52    0.22349      0.00000     0.77530    0.00120     0.77651
      C   53   -0.59967      1.99940     4.59167    0.00860     6.59967
      H   54    0.19493      0.00000     0.80220    0.00288     0.80507
      H   55    0.20925      0.00000     0.78837    0.00238     0.79075
      H   56    0.22201      0.00000     0.77684    0.00116     0.77799
      C   57   -0.60939      1.99941     4.60155    0.00843     6.60939
      H   58    0.22150      0.00000     0.77728    0.00123     0.77850
      H   59    0.21115      0.00000     0.78763    0.00122     0.78885
      H   60    0.20799      0.00000     0.79056    0.00145     0.79201
      C   61   -0.60253      1.99940     4.59417    0.00896     6.60253
      H   62    0.19915      0.00000     0.79849    0.00236     0.80085
      H   63    0.21444      0.00000     0.78372    0.00184     0.78556
      H   64    0.22650      0.00000     0.77230    0.00119     0.77350
      C   65   -0.75187      1.99889     4.71829    0.03469     6.75187
      N   66    0.04703      1.99939     4.91955    0.03403     6.95297
      N   67    0.01818      1.99967     4.95740    0.02475     6.98182
      C   68   -0.20712      1.99933     4.19331    0.01448     6.20712
      C   69   -0.22640      1.99934     4.21015    0.01692     6.22640
      H   70    0.19118      0.00000     0.80639    0.00243     0.80882
      H   71    0.20339      0.00000     0.79455    0.00206     0.79661
      H   72    0.22245      0.00000     0.77572    0.00183     0.77755
      H   73    0.17286      0.00000     0.82396    0.00317     0.82714
      P   74    1.53716      9.99595     3.39022    0.07668    13.46284
      N   75   -0.74054      1.99951     5.71933    0.02170     7.74054
      N   76   -0.71658      1.99954     5.69569    0.02135     7.71658
      C   77   -0.03679      1.99937     4.02127    0.01616     6.03679
      H   78    0.17321      0.00000     0.82290    0.00388     0.82679
      C   79   -0.02379      1.99936     4.00755    0.01689     6.02379
      H   80    0.18203      0.00000     0.81464    0.00333     0.81797
      C   81   -0.59357      1.99942     4.58536    0.00880     6.59357
      H   82    0.20941      0.00000     0.78886    0.00173     0.79059
      H   83    0.21995      0.00000     0.77883    0.00121     0.78005
      H   84    0.21264      0.00000     0.78503    0.00233     0.78736
      C   85   -0.60096      1.99942     4.59332    0.00822     6.60096
      H   86    0.21122      0.00000     0.78767    0.00111     0.78878
      H   87    0.22356      0.00000     0.77530    0.00114     0.77644
      H   88    0.20951      0.00000     0.78894    0.00155     0.79049
      C   89   -0.60097      1.99942     4.59259    0.00896     6.60097
      H   90    0.22230      0.00000     0.77650    0.00120     0.77770
      H   91    0.21052      0.00000     0.78719    0.00229     0.78948
      H   92    0.22216      0.00000     0.77572    0.00212     0.77784
      C   93   -0.59770      1.99942     4.59053    0.00775     6.59770
      H   94    0.21936      0.00000     0.77947    0.00117     0.78064
      H   95    0.21082      0.00000     0.78795    0.00123     0.78918
      H   96    0.20105      0.00000     0.79749    0.00145     0.79895
 =======================================================================
   * Total *    1.00000    125.95436   221.21511    0.83053   348.00000

 Normal termination of Gaussian 16 at Mon Jan 20 11:31:07 2025.
