 Gaussian 16, Revision B.01,
 Gaussian 16:  ES64L-G16RevB.01 20-Dec-2017

 ------------------------------------------
 # nmr=giao b3lyp/genecp pop=nbo scfcyc=200
 ------------------------------------------

 ---------
 DS-53_SPE
 ---------
 Symbolic Z-matrix:
 Charge =  1 Multiplicity = 1

                         Standard orientation:
 ---------------------------------------------------------------------
 Center     Atomic      Atomic             Coordinates (Angstroms)
 Number     Number       Type             X           Y           Z
 ---------------------------------------------------------------------
      1         15           0       -0.186040    0.079390    0.317469
      2         45           0        2.109960   -0.717912    0.124869
      3          6           0        4.364400   -0.979513    0.257799
      4          6           0        3.765989   -2.222363    0.178099
      5          6           0        2.337219   -1.120102   -2.089361
      6          6           0        2.725800    0.181078   -1.828971
      7          1           0        4.599700   -0.607123    1.248669
      8          6           0        5.065730   -0.270193   -0.884291
      9          1           0        3.599318   -2.754673    1.109549
     10          6           0        3.629228   -3.077143   -1.057241
     11          6           0        3.271799   -2.290552   -2.336081
     12          1           0        1.323949   -1.256321   -2.442101
     13          1           0        1.992261    0.954959   -2.024591
     14          6           0        4.139001    0.683177   -1.665171
     15          1           0        5.510870   -1.005224   -1.554471
     16          1           0        5.897180    0.307626   -0.477801
     17          1           0        4.551838   -3.649383   -1.214971
     18          1           0        2.850088   -3.816722   -0.862741
     19          1           0        2.792128   -2.973132   -3.039181
     20          1           0        4.175859   -1.937123   -2.832101
     21          1           0        4.567021    0.896927   -2.652731
     22          1           0        4.095451    1.642337   -1.145991
     23          7           0       -0.589289    1.645660   -0.259681
     24          7           0       -1.473950   -0.994029   -0.022281
     25          6           0       -0.044290    0.094550    2.173129
     26          7           0       -0.790859    0.700420    3.039129
     27          7           0       -1.454429    1.259971    3.765259
     28          6           0       -2.374051   -1.531339    1.046499
     29          6           0       -3.768560   -0.876658    1.099339
     30          6           0       -2.491812   -3.064389    1.087379
     31          1           0       -1.881161   -1.269879    1.981379
     32          6           0       -4.556021   -1.346517    2.331599
     33          1           0       -4.334221   -1.115727    0.196739
     34          1           0       -3.666280    0.209982    1.129599
     35          6           0       -3.274562   -3.517098    2.329049
     36          1           0       -3.009052   -3.434348    0.199389
     37          1           0       -1.495432   -3.510439    1.092549
     38          6           0       -4.660442   -2.871687    2.393539
     39          1           0       -5.550630   -0.894517    2.321519
     40          1           0       -4.061480   -0.980708    3.239129
     41          1           0       -3.359373   -4.606388    2.325099
     42          1           0       -2.709632   -3.254698    3.231349
     43          1           0       -5.178852   -3.178557    3.304919
     44          1           0       -5.267672   -3.230527    1.554839
     45          6           0       -1.989999    2.031971   -0.592271
     46          6           0       -2.570138    3.179841    0.252009
     47          6           0       -2.224438    2.294801   -2.094171
     48          1           0       -2.576499    1.145621   -0.354921
     49          6           0       -4.060968    3.389132   -0.052401
     50          1           0       -2.039337    4.110281    0.036149
     51          1           0       -2.430118    2.972991    1.315909
     52          6           0       -3.716228    2.506642   -2.391081
     53          1           0       -1.677988    3.180471   -2.417571
     54          1           0       -1.835479    1.455741   -2.676071
     55          6           0       -4.305218    3.636953   -1.542971
     56          1           0       -4.438067    4.225533    0.540809
     57          1           0       -4.626778    2.506023    0.265459
     58          1           0       -3.849488    2.717722   -3.454871
     59          1           0       -4.269399    1.582493   -2.188641
     60          1           0       -5.375327    3.738063   -1.738511
     61          1           0       -3.845037    4.588122   -1.833691
     62          6           0        0.534312    2.624499   -0.164201
     63          6           0        0.687082    3.544119   -1.386091
     64          6           0        0.580462    3.459009    1.134339
     65          1           0        1.432831    1.994509   -0.135971
     66          6           0        1.979953    4.368919   -1.302801
     67          1           0       -0.158667    4.233660   -1.438871
     68          1           0        0.672702    2.954039   -2.305121
     69          6           0        1.881763    4.269569    1.217139
     70          1           0       -0.266747    4.144080    1.174709
     71          1           0        0.499402    2.803799    2.002689
     72          6           0        2.059763    5.175038   -0.004001
     73          1           0        2.041983    5.032768   -2.168321
     74          1           0        2.845573    3.699668   -1.366361
     75          1           0        1.885233    4.862629    2.134829
     76          1           0        2.734592    3.583728    1.288509
     77          1           0        3.012554    5.706838    0.052449
     78          1           0        1.276484    5.941139   -0.003921
     79          6           0        2.351990   -0.180572    4.027439
     80          6           0        1.749559   -1.578921    3.982599
     81          1           0        1.844921    0.567659    4.625709
     82          1           0        3.431910   -0.096592    4.055619
     83          1           0        2.432129   -2.420662    3.982639
     84          1           0        0.840889   -1.753511    4.546489
     85         15           0        1.594460   -0.628771    2.409899
     86          6           0       -1.500921   -1.488329   -1.435281
     87          6           0       -0.818662   -2.852960   -1.658131
     88          6           0       -2.896201   -1.481778   -2.080471
     89          1           0       -0.912900   -0.751840   -1.996471
     90          6           0       -0.731102   -3.189250   -3.153761
     91          1           0       -1.384832   -3.639479   -1.161351
     92          1           0        0.172688   -2.842680   -1.198721
     93          6           0       -2.812831   -1.825808   -3.574781
     94          1           0       -3.536221   -2.216108   -1.586001
     95          1           0       -3.366550   -0.507638   -1.946911
     96          6           0       -2.112392   -3.165649   -3.814601
     97          1           0       -0.264403   -4.169100   -3.282351
     98          1           0       -0.082211   -2.467500   -3.664501
     99          1           0       -3.819281   -1.840878   -3.999311
    100          1           0       -2.268890   -1.032259   -4.100281
    101          1           0       -2.022882   -3.358479   -4.886171
    102          1           0       -2.724762   -3.975478   -3.402841
 ---------------------------------------------------------------------

 SCF Done:  E(RB3LYP) =  -2382.52163411     A.U. after   17 cycles

      1  P    Isotropic =   198.1558   Anisotropy =    66.8121

      2  Rh   Isotropic =  -343.4762   Anisotropy =   429.0333

      3  C    Isotropic =    82.0343   Anisotropy =   118.9866

      4  C    Isotropic =    79.4633   Anisotropy =   114.5963

      5  C    Isotropic =    80.1285   Anisotropy =   118.6984

      6  C    Isotropic =    74.4811   Anisotropy =   118.3179

      7  H    Isotropic =    27.6306   Anisotropy =     8.1769

      8  C    Isotropic =   154.4023   Anisotropy =    24.9251

      9  H    Isotropic =    27.0392   Anisotropy =     6.3732

     10  C    Isotropic =   147.2201   Anisotropy =    27.8989

     11  C    Isotropic =   154.4285   Anisotropy =    24.0365

     12  H    Isotropic =    27.0852   Anisotropy =     7.8965

     13  H    Isotropic =    26.5661   Anisotropy =     3.7127

     14  C    Isotropic =   146.4592   Anisotropy =    29.1940

     15  H    Isotropic =    29.9097   Anisotropy =     9.6639

     16  H    Isotropic =    29.8776   Anisotropy =    11.8337

     17  H    Isotropic =    29.2170   Anisotropy =    13.0635

     18  H    Isotropic =    29.0894   Anisotropy =     6.8177

     19  H    Isotropic =    29.8802   Anisotropy =     9.6618

     20  H    Isotropic =    29.8819   Anisotropy =     9.5371

     21  H    Isotropic =    29.1679   Anisotropy =    11.6627

     22  H    Isotropic =    28.8060   Anisotropy =     7.9008

     23  N    Isotropic =   147.7565   Anisotropy =    28.2183

     24  N    Isotropic =   148.2721   Anisotropy =    34.0742

     25  C    Isotropic =   133.0632   Anisotropy =    82.7102

     26  N    Isotropic =   -17.9479   Anisotropy =   386.0935

     27  N    Isotropic =  -125.2601   Anisotropy =   131.3325

     28  C    Isotropic =   115.6248   Anisotropy =    54.0224

     29  C    Isotropic =   144.5051   Anisotropy =    21.8553

     30  C    Isotropic =   144.0251   Anisotropy =    15.6059

     31  H    Isotropic =    28.4758   Anisotropy =     8.8754

     32  C    Isotropic =   152.7964   Anisotropy =    11.1164

     33  H    Isotropic =    30.0199   Anisotropy =     4.3241

     34  H    Isotropic =    30.3178   Anisotropy =     8.6880

     35  C    Isotropic =   152.7184   Anisotropy =    10.0036

     36  H    Isotropic =    29.8832   Anisotropy =     5.8205

     37  H    Isotropic =    29.9087   Anisotropy =     5.0562

     38  C    Isotropic =   156.1132   Anisotropy =     2.5320

     39  H    Isotropic =    30.0435   Anisotropy =    10.4689

     40  H    Isotropic =    30.7202   Anisotropy =     6.6372

     41  H    Isotropic =    29.8833   Anisotropy =    10.6584

     42  H    Isotropic =    30.6399   Anisotropy =     7.2331

     43  H    Isotropic =    30.2377   Anisotropy =    11.8879

     44  H    Isotropic =    30.6762   Anisotropy =     8.9487

     45  C    Isotropic =   124.9608   Anisotropy =    45.5315

     46  C    Isotropic =   142.7716   Anisotropy =    18.2365

     47  C    Isotropic =   144.3275   Anisotropy =    24.1913

     48  H    Isotropic =    28.5292   Anisotropy =     8.7314

     49  C    Isotropic =   154.0675   Anisotropy =     9.5371

     50  H    Isotropic =    29.9980   Anisotropy =     6.0713

     51  H    Isotropic =    30.6571   Anisotropy =     4.0076

     52  C    Isotropic =   153.6640   Anisotropy =    10.7382

     53  H    Isotropic =    30.0913   Anisotropy =     6.4268

     54  H    Isotropic =    30.7286   Anisotropy =     5.0540

     55  C    Isotropic =   156.0810   Anisotropy =     3.4219

     56  H    Isotropic =    30.0371   Anisotropy =    11.0730

     57  H    Isotropic =    30.6825   Anisotropy =     6.6419

     58  H    Isotropic =    30.1554   Anisotropy =    10.3948

     59  H    Isotropic =    30.6747   Anisotropy =     6.4610

     60  H    Isotropic =    30.2684   Anisotropy =    11.7471

     61  H    Isotropic =    30.7216   Anisotropy =     9.6409

     62  C    Isotropic =   119.8606   Anisotropy =    42.9809

     63  C    Isotropic =   144.8467   Anisotropy =    12.8697

     64  C    Isotropic =   146.6914   Anisotropy =    20.1269

     65  H    Isotropic =    27.8678   Anisotropy =     8.4294

     66  C    Isotropic =   152.8211   Anisotropy =     8.9163

     67  H    Isotropic =    29.9230   Anisotropy =     6.6495

     68  H    Isotropic =    30.2264   Anisotropy =     3.4293

     69  C    Isotropic =   153.3692   Anisotropy =    10.0427

     70  H    Isotropic =    30.0290   Anisotropy =     5.9872

     71  H    Isotropic =    30.3901   Anisotropy =     6.5072

     72  C    Isotropic =   155.7486   Anisotropy =     3.1232

     73  H    Isotropic =    29.8342   Anisotropy =    10.6804

     74  H    Isotropic =    30.4414   Anisotropy =     7.1980

     75  H    Isotropic =    29.9015   Anisotropy =    10.5745

     76  H    Isotropic =    30.3370   Anisotropy =     6.1073

     77  H    Isotropic =    30.1009   Anisotropy =    11.4105

     78  H    Isotropic =    30.5322   Anisotropy =     9.6444

     79  C    Isotropic =   175.8001   Anisotropy =    29.3467

     80  C    Isotropic =   172.7407   Anisotropy =    34.1521

     81  H    Isotropic =    30.3167   Anisotropy =    11.2764

     82  H    Isotropic =    30.5510   Anisotropy =    12.3374

     83  H    Isotropic =    30.6625   Anisotropy =    12.5695

     84  H    Isotropic =    30.3848   Anisotropy =    11.5434

     85  P    Isotropic =   465.8310   Anisotropy =   530.1543

     86  C    Isotropic =   118.5607   Anisotropy =    43.8800

     87  C    Isotropic =   144.0722   Anisotropy =    22.9025

     88  C    Isotropic =   146.8970   Anisotropy =    13.3330

     89  H    Isotropic =    29.3991   Anisotropy =     5.8881

     90  C    Isotropic =   153.3878   Anisotropy =    11.7476

     91  H    Isotropic =    29.6647   Anisotropy =     5.8515

     92  H    Isotropic =    29.3157   Anisotropy =     8.9019

     93  C    Isotropic =   153.5093   Anisotropy =     9.5925

     94  H    Isotropic =    29.9443   Anisotropy =     5.4118

     95  H    Isotropic =    30.0719   Anisotropy =     7.6459

     96  C    Isotropic =   155.8292   Anisotropy =     2.8071

     97  H    Isotropic =    30.0060   Anisotropy =     9.7110

     98  H    Isotropic =    30.7467   Anisotropy =     6.2743

     99  H    Isotropic =    29.9855   Anisotropy =    10.6675

    100  H    Isotropic =    30.7402   Anisotropy =     6.2398

    101  H    Isotropic =    30.2355   Anisotropy =    11.5797

    102  H    Isotropic =    30.6348   Anisotropy =     9.3619

 The electronic state is 1-A.
 Alpha  occ. eigenvalues --  -77.27998 -77.24362 -14.57780 -14.51371 -14.43015
 Alpha  occ. eigenvalues --  -14.42771 -10.33281 -10.30974 -10.30706 -10.30522
 Alpha  occ. eigenvalues --  -10.30481 -10.30412 -10.29861 -10.29772 -10.29762
 Alpha  occ. eigenvalues --  -10.29585 -10.29355 -10.27998 -10.27947 -10.27765
 Alpha  occ. eigenvalues --  -10.27744 -10.25754 -10.25748 -10.25590 -10.25548
 Alpha  occ. eigenvalues --  -10.25434 -10.25410 -10.25352 -10.25290 -10.25185
 Alpha  occ. eigenvalues --  -10.25114 -10.25061 -10.25005 -10.24906 -10.24737
 Alpha  occ. eigenvalues --  -10.24706 -10.24570 -10.24568 -10.24564 -10.24282
 Alpha  occ. eigenvalues --  -10.24073  -6.73132  -6.70380  -4.89508  -4.89407
 Alpha  occ. eigenvalues --   -4.89046  -4.86774  -4.86371  -4.86362  -3.32566
 Alpha  occ. eigenvalues --   -2.09497  -2.08831  -2.05929  -1.24076  -1.03346
 Alpha  occ. eigenvalues --   -1.00416  -0.97973  -0.95072  -0.93762  -0.92461
 Alpha  occ. eigenvalues --   -0.92213  -0.91151  -0.90281  -0.89767  -0.88552
 Alpha  occ. eigenvalues --   -0.83804  -0.83679  -0.83508  -0.83439  -0.83101
 Alpha  occ. eigenvalues --   -0.82804  -0.82532  -0.80925  -0.80180  -0.78342
 Alpha  occ. eigenvalues --   -0.77033  -0.72718  -0.71842  -0.71598  -0.71372
 Alpha  occ. eigenvalues --   -0.71113  -0.70727  -0.70540  -0.69519  -0.69198
 Alpha  occ. eigenvalues --   -0.67267  -0.66553  -0.66129  -0.65453  -0.65038
 Alpha  occ. eigenvalues --   -0.64562  -0.64243  -0.63044  -0.62134  -0.61883
 Alpha  occ. eigenvalues --   -0.61219  -0.60617  -0.59068  -0.58790  -0.58358
 Alpha  occ. eigenvalues --   -0.57855  -0.57602  -0.57203  -0.56890  -0.56377
 Alpha  occ. eigenvalues --   -0.55676  -0.54414  -0.54066  -0.54036  -0.53874
 Alpha  occ. eigenvalues --   -0.53637  -0.53476  -0.53280  -0.53168  -0.52914
 Alpha  occ. eigenvalues --   -0.52555  -0.52463  -0.52359  -0.51937  -0.51645
 Alpha  occ. eigenvalues --   -0.49806  -0.49655  -0.49571  -0.49230  -0.49169
 Alpha  occ. eigenvalues --   -0.48913  -0.48636  -0.48418  -0.48249  -0.47324
 Alpha  occ. eigenvalues --   -0.47134  -0.47015  -0.46925  -0.46658  -0.46502
 Alpha  occ. eigenvalues --   -0.46428  -0.46206  -0.46018  -0.44898  -0.44445
 Alpha  occ. eigenvalues --   -0.44264  -0.44223  -0.44005  -0.43882  -0.43575
 Alpha  occ. eigenvalues --   -0.43442  -0.43034  -0.43000  -0.42790  -0.42551
 Alpha  occ. eigenvalues --   -0.42362  -0.41417  -0.41183  -0.40706  -0.40533
 Alpha  occ. eigenvalues --   -0.40446  -0.40174  -0.40069  -0.39838  -0.39557
 Alpha  occ. eigenvalues --   -0.39299  -0.39169  -0.38922  -0.38177  -0.38062
 Alpha  occ. eigenvalues --   -0.36360  -0.35438  -0.35030  -0.34080  -0.33355
 Alpha  occ. eigenvalues --   -0.32337  -0.31021
 Alpha virt. eigenvalues --   -0.18467  -0.17282  -0.14975  -0.12213  -0.09882
 Alpha virt. eigenvalues --   -0.09202  -0.08046  -0.07536  -0.07071  -0.06773
 Alpha virt. eigenvalues --   -0.06403  -0.05340  -0.05203  -0.04941  -0.04716

 Mulliken charges:
               1
     1  P    0.616833
     2  Rh  -0.612442
     3  C   -0.011210
     4  C   -0.078469
     5  C    0.014389
     6  C   -0.134462
     7  H    0.170699
     8  C   -0.364551
     9  H    0.175052
    10  C   -0.214756
    11  C   -0.370126
    12  H    0.169646
    13  H    0.211844
    14  C   -0.212817
    15  H    0.169036
    16  H    0.171888
    17  H    0.173105
    18  H    0.138714
    19  H    0.170962
    20  H    0.171176
    21  H    0.173068
    22  H    0.131139
    23  N   -0.218735
    24  N   -0.238511
    25  C   -0.642013
    26  N    0.411789
    27  N   -0.130613
    28  C   -0.060618
    29  C   -0.203174
    30  C   -0.282910
    31  H    0.125136
    32  C   -0.262148
    33  H    0.139788
    34  H    0.126709
    35  C   -0.253749
    36  H    0.125121
    37  H    0.152127
    38  C   -0.218671
    39  H    0.145224
    40  H    0.120646
    41  H    0.145185
    42  H    0.113668
    43  H    0.145247
    44  H    0.115894
    45  C   -0.054573
    46  C   -0.233659
    47  C   -0.247709
    48  H    0.104020
    49  C   -0.256952
    50  H    0.123470
    51  H    0.138280
    52  C   -0.236501
    53  H    0.139342
    54  H    0.137243
    55  C   -0.236492
    56  H    0.147163
    57  H    0.121571
    58  H    0.144573
    59  H    0.113184
    60  H    0.145437
    61  H    0.116418
    62  C   -0.124490
    63  C   -0.252995
    64  C   -0.220363
    65  H    0.139299
    66  C   -0.259944
    67  H    0.136002
    68  H    0.153095
    69  C   -0.253986
    70  H    0.141588
    71  H    0.129956
    72  C   -0.226266
    73  H    0.148778
    74  H    0.107570
    75  H    0.145983
    76  H    0.108653
    77  H    0.144220
    78  H    0.119811
    79  C   -0.410864
    80  C   -0.402725
    81  H    0.193218
    82  H    0.195081
    83  H    0.192728
    84  H    0.194143
    85  P    0.546810
    86  C   -0.111173
    87  C   -0.254520
    88  C   -0.256474
    89  H    0.131384
    90  C   -0.247987
    91  H    0.153519
    92  H    0.171909
    93  C   -0.251724
    94  H    0.132063
    95  H    0.150158
    96  C   -0.236069
    97  H    0.142901
    98  H    0.118919
    99  H    0.148415
   100  H    0.116574
   101  H    0.148206
   102  H    0.119669
 Sum of Mulliken charges =   1.00000

 Dipole moment (field-independent basis, Debye):
    X=              3.8463    Y=             -1.8203    Z=              0.9516  Tot=              4.3604
 Quadrupole moment (field-independent basis, Debye-Ang):
   XX=           -235.6977   YY=           -254.6940   ZZ=           -256.4503
   XY=             -2.4662   XZ=              5.2598   YZ=             -3.4258

 Summary of Natural Population Analysis:

                                       Natural Population
                Natural  -----------------------------------------------
    Atom  No    Charge         Core      Valence    Rydberg      Total
 -----------------------------------------------------------------------
      P    1    1.56270      9.99605     3.36854    0.07271    13.43730
     Rh    2   -0.40375     35.98375     9.38907    0.03093    45.40375
      C    3   -0.16489      1.99906     4.14601    0.01982     6.16489
      C    4   -0.15565      1.99906     4.13617    0.02042     6.15565
      C    5   -0.17726      1.99905     4.15812    0.02009     6.17726
      C    6   -0.14917      1.99907     4.12986    0.02024     6.14917
      H    7    0.22284      0.00000     0.77517    0.00199     0.77716
      C    8   -0.42392      1.99936     4.41268    0.01188     6.42392
      H    9    0.22417      0.00000     0.77389    0.00194     0.77583
      C   10   -0.42046      1.99936     4.40868    0.01242     6.42046
      C   11   -0.42516      1.99936     4.41328    0.01252     6.42516
      H   12    0.22693      0.00000     0.77044    0.00263     0.77307
      H   13    0.22892      0.00000     0.76864    0.00244     0.77108
      C   14   -0.42073      1.99935     4.40807    0.01331     6.42073
      H   15    0.21548      0.00000     0.78250    0.00202     0.78452
      H   16    0.22982      0.00000     0.76873    0.00145     0.77018
      H   17    0.23445      0.00000     0.76363    0.00191     0.76555
      H   18    0.22041      0.00000     0.77813    0.00146     0.77959
      H   19    0.22987      0.00000     0.76860    0.00153     0.77013
      H   20    0.21571      0.00000     0.78231    0.00198     0.78429
      H   21    0.23464      0.00000     0.76350    0.00186     0.76536
      H   22    0.21586      0.00000     0.78210    0.00203     0.78414
      N   23   -0.74934      1.99950     5.72218    0.02767     7.74934
      N   24   -0.75345      1.99950     5.73004    0.02391     7.75345
      C   25   -0.70657      1.99903     4.67961    0.02793     6.70657
      N   26    0.04462      1.99939     4.92327    0.03272     6.95538
      N   27    0.04591      1.99968     4.92943    0.02498     6.95409
      C   28   -0.02635      1.99923     4.00744    0.01968     6.02635
      C   29   -0.40249      1.99937     4.39320    0.00992     6.40249
      C   30   -0.39987      1.99937     4.39038    0.01012     6.39987
      H   31    0.19528      0.00000     0.79975    0.00497     0.80472
      C   32   -0.38473      1.99942     4.37539    0.00992     6.38473
      H   33    0.19931      0.00000     0.79848    0.00220     0.80069
      H   34    0.19787      0.00000     0.79971    0.00242     0.80213
      C   35   -0.38251      1.99942     4.37361    0.00948     6.38251
      H   36    0.19263      0.00000     0.80488    0.00249     0.80737
      H   37    0.20699      0.00000     0.79125    0.00176     0.79301
      C   38   -0.38947      1.99942     4.38039    0.00965     6.38947
      H   39    0.21472      0.00000     0.78385    0.00143     0.78528
      H   40    0.18793      0.00000     0.80991    0.00215     0.81207
      H   41    0.21394      0.00000     0.78470    0.00136     0.78606
      H   42    0.18764      0.00000     0.81062    0.00174     0.81236
      H   43    0.21400      0.00000     0.78463    0.00137     0.78600
      H   44    0.19358      0.00000     0.80467    0.00175     0.80642
      C   45   -0.04568      1.99925     4.02586    0.02058     6.04568
      C   46   -0.40146      1.99937     4.39220    0.00989     6.40146
      C   47   -0.39868      1.99936     4.38844    0.01088     6.39868
      H   48    0.21114      0.00000     0.78469    0.00418     0.78886
      C   49   -0.38397      1.99941     4.37503    0.00952     6.38397
      H   50    0.19294      0.00000     0.80481    0.00225     0.80706
      H   51    0.20357      0.00000     0.79448    0.00195     0.79643
      C   52   -0.38544      1.99941     4.37654    0.00949     6.38544
      H   53    0.20171      0.00000     0.79632    0.00198     0.79829
      H   54    0.19897      0.00000     0.79877    0.00227     0.80103
      C   55   -0.38873      1.99942     4.37975    0.00956     6.38873
      H   56    0.21441      0.00000     0.78420    0.00139     0.78559
      H   57    0.18989      0.00000     0.80832    0.00179     0.81011
      H   58    0.21372      0.00000     0.78487    0.00141     0.78628
      H   59    0.18691      0.00000     0.81117    0.00192     0.81309
      H   60    0.21330      0.00000     0.78532    0.00138     0.78670
      H   61    0.19293      0.00000     0.80518    0.00189     0.80707
      C   62   -0.03124      1.99926     4.01297    0.01901     6.03124
      C   63   -0.40184      1.99937     4.39212    0.01036     6.40184
      C   64   -0.40255      1.99937     4.39321    0.00997     6.40255
      H   65    0.20784      0.00000     0.78828    0.00388     0.79216
      C   66   -0.38114      1.99941     4.37193    0.00980     6.38114
      H   67    0.19876      0.00000     0.79875    0.00249     0.80124
      H   68    0.20566      0.00000     0.79252    0.00182     0.79434
      C   69   -0.38414      1.99942     4.37529    0.00942     6.38414
      H   70    0.20251      0.00000     0.79544    0.00205     0.79749
      H   71    0.19564      0.00000     0.80212    0.00224     0.80436
      C   72   -0.38935      1.99942     4.38030    0.00964     6.38935
      H   73    0.21521      0.00000     0.78338    0.00142     0.78479
      H   74    0.18176      0.00000     0.81589    0.00234     0.81824
      H   75    0.21385      0.00000     0.78474    0.00141     0.78615
      H   76    0.18722      0.00000     0.81106    0.00173     0.81278
      H   77    0.21246      0.00000     0.78615    0.00139     0.78754
      H   78    0.19560      0.00000     0.80265    0.00174     0.80440
      C   79   -0.63104      1.99943     4.61818    0.01343     6.63104
      C   80   -0.63144      1.99943     4.61865    0.01337     6.63144
      H   81    0.24298      0.00000     0.75545    0.00157     0.75702
      H   82    0.24406      0.00000     0.75468    0.00127     0.75594
      H   83    0.24249      0.00000     0.75624    0.00128     0.75751
      H   84    0.24318      0.00000     0.75530    0.00152     0.75682
      P   85    0.99525      9.99650     3.95503    0.05322    14.00475
      C   86   -0.02339      1.99927     4.00492    0.01919     6.02339
      C   87   -0.40833      1.99936     4.39772    0.01125     6.40833
      C   88   -0.40164      1.99936     4.39194    0.01034     6.40164
      H   89    0.19189      0.00000     0.80478    0.00333     0.80811
      C   90   -0.38634      1.99942     4.37676    0.01016     6.38634
      H   91    0.20836      0.00000     0.78969    0.00194     0.79164
      H   92    0.20974      0.00000     0.78803    0.00223     0.79026
      C   93   -0.38419      1.99941     4.37530    0.00948     6.38419
      H   94    0.19631      0.00000     0.80150    0.00219     0.80369
      H   95    0.20916      0.00000     0.78831    0.00252     0.79084
      C   96   -0.38778      1.99942     4.37867    0.00969     6.38778
      H   97    0.21275      0.00000     0.78577    0.00148     0.78725
      H   98    0.18108      0.00000     0.81646    0.00246     0.81892
      H   99    0.21605      0.00000     0.78257    0.00138     0.78395
      H  100    0.19031      0.00000     0.80790    0.00179     0.80969
      H  101    0.21371      0.00000     0.78490    0.00139     0.78629
      H  102    0.19464      0.00000     0.80354    0.00182     0.80536
 =======================================================================
   * Total *    1.00000    133.95085   237.20055    0.84859   372.00000

 Normal termination of Gaussian 16 at Mon Jan 20 17:18:05 2025.
