 Gaussian 16, Revision B.01,
 Gaussian 16:  ES64L-G16RevB.01 20-Dec-2017

 ------------------------------------------
 # nmr=giao b3lyp/genecp pop=nbo scfcyc=200
 ------------------------------------------

 ---------
 DS-55_SPE
 ---------
 Symbolic Z-matrix:
 Charge =  1 Multiplicity = 1

                         Standard orientation:
 ---------------------------------------------------------------------
 Center     Atomic      Atomic             Coordinates (Angstroms)
 Number     Number       Type             X           Y           Z
 ---------------------------------------------------------------------
      1         15           0       -1.415310    0.114767   -0.030870
      2         15           0        1.313641   -0.112269   -0.151970
      3          6           0       -0.108438   -1.168931    0.671360
      4          6           0       -5.547180    0.143840    1.195430
      5          6           0       -3.731900    0.545343    3.647600
      6          6           0       -4.346266   -2.080298   -2.156480
      7          6           0       -4.170361    1.032362   -2.392130
      8          6           0        4.078100    0.480586   -2.603670
      9          6           0        1.353480    0.460851   -4.090210
     10          1           0       -6.372099   -0.136261    1.856010
     11          1           0       -5.609071    1.222490    1.036000
     12          1           0       -5.711469   -0.353330    0.238960
     13          1           0       -4.559710    0.269962    4.306340
     14          1           0       -2.802120    0.279965    4.150710
     15          1           0       -3.758682    1.630023    3.522160
     16          1           0       -5.150426   -2.139079   -2.894360
     17          1           0       -3.778805   -3.011307   -2.210740
     18          1           0       -4.807006   -2.023969   -1.169340
     19          1           0       -5.032991    1.016021   -3.063370
     20          1           0       -4.539912    1.233622   -1.386360
     21          1           0       -3.537453    1.866743   -2.701750
     22          1           0        4.800701   -0.114773   -2.045790
     23          1           0        4.551619    0.774556   -3.544450
     24          1           0        3.887478    1.393095   -2.037570
     25          1           0        1.874379    0.808402   -4.985920
     26          1           0        0.513691   -0.155670   -4.411510
     27          1           0        0.952318    1.333721   -3.571240
     28         45           0        0.055877    1.865959   -0.323220
     29          6           0        1.625065    3.462702    0.280980
     30          6           0        1.597405    3.374172   -1.089260
     31          6           0       -1.305435    3.641767   -0.818580
     32          6           0       -1.296045    3.458717    0.547400
     33          6           0        0.968013    4.556521    1.100680
     34          1           0        2.363586    2.863403    0.800110
     35          1           0        2.340366    2.739113   -1.557680
     36          6           0        0.858474    4.279670   -2.043100
     37          6           0       -0.542557    4.719868   -1.564460
     38          1           0       -2.112895    3.171866   -1.368510
     39          6           0       -0.473926    4.231398    1.550110
     40          1           0       -2.111214    2.887236    0.977160
     41          1           0        1.574363    4.732792    1.990720
     42          1           0        0.985952    5.489371    0.537560
     43          1           0        1.469382    5.165041   -2.258690
     44          1           0        0.759864    3.751950   -2.994100
     45          1           0       -0.466669    5.610928   -0.941260
     46          1           0       -1.125728    5.015977   -2.437940
     47          1           0       -0.437575    3.648398    2.472630
     48          1           0       -0.994908    5.161617    1.809570
     49          6           0        3.015384   -2.149286   -3.766910
     50          1           0        3.650275   -2.736205   -3.101330
     51          1           0        2.152595   -2.756117   -4.039320
     52          1           0        3.585384   -1.952185   -4.679150
     53          6           0       -2.430848   -0.758145   -4.198160
     54          1           0       -1.799510    0.104236   -4.417360
     55          1           0       -1.825237   -1.661754   -4.274770
     56          1           0       -3.202428   -0.807916   -4.971180
     57          6           0       -3.737716   -2.198077    2.165480
     58          1           0       -3.732195   -2.694137    1.192640
     59          1           0       -2.827356   -2.468485    2.704130
     60          1           0       -4.580835   -2.600868    2.732800
     61         14           0       -3.243209   -0.601796   -2.514970
     62         14           0       -3.916759   -0.333127    2.000050
     63         14           0        2.527951   -0.512667   -2.993360
     64          6           0        5.536041   -0.212402    0.769190
     65          1           0        5.631422   -1.037952    0.061500
     66          1           0        5.578369    0.726478    0.215150
     67          1           0        6.407371   -0.245921    1.428920
     68          6           0        3.918554   -2.021435    2.671140
     69          1           0        3.910395   -2.840955    1.950260
     70          1           0        4.814934   -2.133953    3.287440
     71          1           0        3.052744   -2.128786    3.324280
     72          6           0        3.840629    1.078525    3.008340
     73          1           0        3.920887    2.040885    2.498060
     74          1           0        2.901069    1.055324    3.561560
     75          1           0        4.655689    1.026697    3.734970
     76         14           0        3.975741   -0.359795    1.805240
     77          8           0        2.637461   -0.252797    0.730050
     78          8           0        1.679322   -0.889228   -1.526890
     79          8           0       -1.990499   -0.633494   -1.332550
     80          8           0       -2.658910    0.265045    0.982420
     81          7           0       -0.330165   -2.534531    0.322740
     82          1           0       -1.059275   -2.916943    0.911790
     83          6           0        0.027302   -0.987621    2.193710
     84          6           0        0.259944   -2.102840    3.010260
     85          6           0       -0.043250    0.246879    2.850420
     86          1           0        0.355105   -3.084900    2.568030
     87          6           0        0.099470    0.308729    4.228810
     88          1           0       -0.200621    1.159219    2.288680
     89          6           0        0.308392   -0.869810    4.935440
     90          1           0        0.043588    1.256219    4.749890
     91          1           0        0.416472   -0.864080    6.014700
     92          7           0        0.391764   -2.056830    4.336770
     93         14           0        0.301067   -3.825260   -0.728920
     94          6           0       -0.583931   -5.351572   -0.047590
     95          1           0       -1.671301   -5.249514   -0.093840
     96          1           0       -0.319450   -6.231291   -0.639540
     97          1           0       -0.305791   -5.562351    0.987640
     98          6           0        2.163707   -4.058787   -0.526080
     99          1           0        2.395677   -4.359247    0.497950
    100          1           0        2.514898   -4.852707   -1.190370
    101          1           0        2.726046   -3.155267   -0.755320
    102          6           0       -0.199504   -3.618051   -2.537860
    103          1           0        0.296567   -4.361810   -3.166410
    104          1           0       -1.276643   -3.764073   -2.641470
    105          1           0        0.043875   -2.626871   -2.914900
 ---------------------------------------------------------------------

 SCF Done:  E(RB3LYP) =  -3794.59337181     A.U. after   17 cycles

      1  P    Isotropic =   168.5539   Anisotropy =   167.1946

      2  P    Isotropic =   176.5729   Anisotropy =   179.1161

      3  C    Isotropic =    53.3441   Anisotropy =    79.2727

      4  C    Isotropic =   180.9170   Anisotropy =    12.2617

      5  C    Isotropic =   182.5158   Anisotropy =    12.4897

      6  C    Isotropic =   181.5272   Anisotropy =    12.1819

      7  C    Isotropic =   182.2589   Anisotropy =    10.5090

      8  C    Isotropic =   180.0380   Anisotropy =    11.0317

      9  C    Isotropic =   180.6428   Anisotropy =    10.0493

     10  H    Isotropic =    31.8587   Anisotropy =    12.0445

     11  H    Isotropic =    31.6037   Anisotropy =     6.8204

     12  H    Isotropic =    31.6398   Anisotropy =     7.7897

     13  H    Isotropic =    32.1923   Anisotropy =    12.2216

     14  H    Isotropic =    32.4269   Anisotropy =    11.4798

     15  H    Isotropic =    31.8620   Anisotropy =     6.8674

     16  H    Isotropic =    31.6825   Anisotropy =    12.0726

     17  H    Isotropic =    31.2469   Anisotropy =     7.3475

     18  H    Isotropic =    31.5786   Anisotropy =     7.8821

     19  H    Isotropic =    31.6512   Anisotropy =    11.8283

     20  H    Isotropic =    31.5808   Anisotropy =     8.2833

     21  H    Isotropic =    31.6871   Anisotropy =     7.1942

     22  H    Isotropic =    31.3555   Anisotropy =     8.9970

     23  H    Isotropic =    31.6731   Anisotropy =    11.2463

     24  H    Isotropic =    31.9139   Anisotropy =     6.7103

     25  H    Isotropic =    31.5746   Anisotropy =    11.2273

     26  H    Isotropic =    31.0340   Anisotropy =     9.4340

     27  H    Isotropic =    31.0803   Anisotropy =     9.3815

     28  Rh   Isotropic =  -300.6509   Anisotropy =   325.5299

     29  C    Isotropic =    72.5059   Anisotropy =   131.9456

     30  C    Isotropic =    76.3937   Anisotropy =   117.8731

     31  C    Isotropic =    81.6967   Anisotropy =   118.0895

     32  C    Isotropic =    72.8560   Anisotropy =   124.0411

     33  C    Isotropic =   153.6072   Anisotropy =    25.5279

     34  H    Isotropic =    26.7100   Anisotropy =     6.6043

     35  H    Isotropic =    26.5071   Anisotropy =     5.1744

     36  C    Isotropic =   148.6972   Anisotropy =    27.2914

     37  C    Isotropic =   154.4536   Anisotropy =    24.2379

     38  H    Isotropic =    27.1036   Anisotropy =     7.3062

     39  C    Isotropic =   147.1239   Anisotropy =    27.7070

     40  H    Isotropic =    26.1584   Anisotropy =     3.3931

     41  H    Isotropic =    29.7770   Anisotropy =    10.6902

     42  H    Isotropic =    29.6709   Anisotropy =     9.6811

     43  H    Isotropic =    29.1518   Anisotropy =    12.6183

     44  H    Isotropic =    29.2471   Anisotropy =     7.1538

     45  H    Isotropic =    29.7854   Anisotropy =     9.8349

     46  H    Isotropic =    29.8252   Anisotropy =    11.3044

     47  H    Isotropic =    29.0636   Anisotropy =     6.9492

     48  H    Isotropic =    29.0511   Anisotropy =    12.4698

     49  C    Isotropic =   181.7606   Anisotropy =    11.6788

     50  H    Isotropic =    31.3822   Anisotropy =     7.0851

     51  H    Isotropic =    31.2395   Anisotropy =     7.8693

     52  H    Isotropic =    31.7511   Anisotropy =    11.7763

     53  C    Isotropic =   180.7579   Anisotropy =    12.5197

     54  H    Isotropic =    31.3501   Anisotropy =     7.7879

     55  H    Isotropic =    31.0901   Anisotropy =     7.8743

     56  H    Isotropic =    31.6214   Anisotropy =    11.5998

     57  C    Isotropic =   182.6464   Anisotropy =    10.3540

     58  H    Isotropic =    31.9466   Anisotropy =     6.3421

     59  H    Isotropic =    32.5048   Anisotropy =     8.7277

     60  H    Isotropic =    31.9954   Anisotropy =    12.5104

     61  Si   Isotropic =   312.5125   Anisotropy =    32.0335

     62  Si   Isotropic =   312.4192   Anisotropy =    34.3269

     63  Si   Isotropic =   311.5028   Anisotropy =    32.9670

     64  C    Isotropic =   180.0006   Anisotropy =    12.8230

     65  H    Isotropic =    31.7031   Anisotropy =     6.5347

     66  H    Isotropic =    31.8140   Anisotropy =     6.3134

     67  H    Isotropic =    31.9363   Anisotropy =    11.8710

     68  C    Isotropic =   182.3876   Anisotropy =    12.0460

     69  H    Isotropic =    31.8176   Anisotropy =     7.2052

     70  H    Isotropic =    32.2712   Anisotropy =    12.2987

     71  H    Isotropic =    32.4403   Anisotropy =    11.0453

     72  C    Isotropic =   182.7782   Anisotropy =    10.8959

     73  H    Isotropic =    32.0948   Anisotropy =     6.5455

     74  H    Isotropic =    32.2997   Anisotropy =    10.2734

     75  H    Isotropic =    32.1934   Anisotropy =    12.0190

     76  Si   Isotropic =   313.5669   Anisotropy =    34.7684

     77  O    Isotropic =   197.9427   Anisotropy =    99.7358

     78  O    Isotropic =   162.3167   Anisotropy =   108.3632

     79  O    Isotropic =   184.8139   Anisotropy =   139.7320

     80  O    Isotropic =   207.2423   Anisotropy =    91.8437

     81  N    Isotropic =   191.9592   Anisotropy =    65.8287

     82  H    Isotropic =    31.1374   Anisotropy =    11.4260

     83  C    Isotropic =    41.9142   Anisotropy =   184.1797

     84  C    Isotropic =    28.1965   Anisotropy =   180.3043

     85  C    Isotropic =    43.2070   Anisotropy =   199.2064

     86  H    Isotropic =    22.5166   Anisotropy =    10.3524

     87  C    Isotropic =    58.6951   Anisotropy =   177.3384

     88  H    Isotropic =    21.8473   Anisotropy =     7.6734

     89  C    Isotropic =    26.7416   Anisotropy =   181.2590

     90  H    Isotropic =    24.4862   Anisotropy =     6.8956

     91  H    Isotropic =    22.8069   Anisotropy =     5.7823

     92  N    Isotropic =  -107.0401   Anisotropy =   604.7628

     93  Si   Isotropic =   336.8216   Anisotropy =    25.9113

     94  C    Isotropic =   182.8922   Anisotropy =    15.7106

     95  H    Isotropic =    31.7622   Anisotropy =     7.4495

     96  H    Isotropic =    31.5990   Anisotropy =    11.5600

     97  H    Isotropic =    31.5301   Anisotropy =     9.1932

     98  C    Isotropic =   181.1182   Anisotropy =     9.6324

     99  H    Isotropic =    31.6155   Anisotropy =     8.1944

    100  H    Isotropic =    31.7037   Anisotropy =    10.4326

    101  H    Isotropic =    31.2465   Anisotropy =     7.7474

    102  C    Isotropic =   176.7731   Anisotropy =     7.5239

    103  H    Isotropic =    31.5848   Anisotropy =     9.6999

    104  H    Isotropic =    31.4659   Anisotropy =     7.1342

    105  H    Isotropic =    31.2326   Anisotropy =     6.9779

 The electronic state is 1-A.
 Alpha  occ. eigenvalues --  -77.30348 -77.29491 -66.25753 -66.25669 -66.25588
 Alpha  occ. eigenvalues --  -66.25514 -66.22582 -19.23860 -19.23782 -19.23574
 Alpha  occ. eigenvalues --  -19.23532 -14.40318 -14.39039 -10.34087 -10.29825
 Alpha  occ. eigenvalues --  -10.29757 -10.29498 -10.29387 -10.29327 -10.29182
 Alpha  occ. eigenvalues --  -10.28843 -10.28679 -10.27976 -10.27795 -10.27712
 Alpha  occ. eigenvalues --  -10.27682 -10.27506 -10.24382 -10.24333 -10.24316
 Alpha  occ. eigenvalues --  -10.24226 -10.24085 -10.24021 -10.23831 -10.23825
 Alpha  occ. eigenvalues --  -10.23808 -10.23768 -10.23663 -10.23137 -10.22547
 Alpha  occ. eigenvalues --  -10.22474 -10.22443  -6.75079  -6.74357  -5.39228
 Alpha  occ. eigenvalues --   -5.39186  -5.39085  -5.38944  -5.36193  -4.91540
 Alpha  occ. eigenvalues --   -4.91361  -4.90948  -4.90852  -4.90593  -4.90217
 Alpha  occ. eigenvalues --   -3.75410  -3.75348  -3.75253  -3.75146  -3.74976
 Alpha  occ. eigenvalues --   -3.74965  -3.74946  -3.74924  -3.74843  -3.74824
 Alpha  occ. eigenvalues --   -3.74689  -3.74669  -3.72233  -3.72038  -3.71973
 Alpha  occ. eigenvalues --   -3.31754  -2.08726  -2.07903  -2.05230  -1.13610
 Alpha  occ. eigenvalues --   -1.13337  -1.09158  -1.09083  -1.04030  -0.98707
 Alpha  occ. eigenvalues --   -0.94742  -0.90641  -0.89484  -0.88296  -0.86328
 Alpha  occ. eigenvalues --   -0.82459  -0.81561  -0.80964  -0.80871  -0.80658
 Alpha  occ. eigenvalues --   -0.80195  -0.78839  -0.78139  -0.77892  -0.77767
 Alpha  occ. eigenvalues --   -0.77607  -0.77479  -0.77377  -0.77207  -0.77149
 Alpha  occ. eigenvalues --   -0.76761  -0.76017  -0.75767  -0.73734  -0.73495
 Alpha  occ. eigenvalues --   -0.72560  -0.70888  -0.68741  -0.66191  -0.65230
 Alpha  occ. eigenvalues --   -0.64467  -0.62762  -0.62177  -0.61451  -0.60297
 Alpha  occ. eigenvalues --   -0.58893  -0.57795  -0.57484  -0.56776  -0.56443
 Alpha  occ. eigenvalues --   -0.55152  -0.54394  -0.54068  -0.53973  -0.53654
 Alpha  occ. eigenvalues --   -0.53006  -0.52958  -0.52860  -0.52626  -0.52574
 Alpha  occ. eigenvalues --   -0.52360  -0.51948  -0.51446  -0.50994  -0.50914
 Alpha  occ. eigenvalues --   -0.50744  -0.50705  -0.50545  -0.50462  -0.50149
 Alpha  occ. eigenvalues --   -0.50079  -0.49944  -0.49660  -0.49403  -0.49293
 Alpha  occ. eigenvalues --   -0.49076  -0.48982  -0.48911  -0.48719  -0.48585
 Alpha  occ. eigenvalues --   -0.48465  -0.48400  -0.48387  -0.48186  -0.48092
 Alpha  occ. eigenvalues --   -0.47988  -0.47947  -0.47840  -0.47733  -0.47557
 Alpha  occ. eigenvalues --   -0.47486  -0.47314  -0.47183  -0.47057  -0.46812
 Alpha  occ. eigenvalues --   -0.46612  -0.46328  -0.46180  -0.46025  -0.45977
 Alpha  occ. eigenvalues --   -0.45875  -0.45109  -0.44619  -0.44318  -0.43868
 Alpha  occ. eigenvalues --   -0.43308  -0.43150  -0.42282  -0.41059  -0.39869
 Alpha  occ. eigenvalues --   -0.39815  -0.39677  -0.39567  -0.39519  -0.39162
 Alpha  occ. eigenvalues --   -0.38968  -0.38817  -0.38463  -0.38197  -0.38120
 Alpha  occ. eigenvalues --   -0.37005  -0.36798  -0.35492  -0.35263  -0.34871
 Alpha  occ. eigenvalues --   -0.34592  -0.33738  -0.31614  -0.30313
 Alpha virt. eigenvalues --   -0.16379  -0.14205  -0.12682  -0.11851  -0.09917
 Alpha virt. eigenvalues --   -0.09133  -0.07660  -0.07272  -0.07075  -0.06790
 Alpha virt. eigenvalues --   -0.06067  -0.05082  -0.04897  -0.04557  -0.04254

 Mulliken charges:
               1
     1  P    0.733273
     2  P    0.701334
     3  C   -0.266445
     4  C   -0.559603
     5  C   -0.540000
     6  C   -0.555567
     7  C   -0.591118
     8  C   -0.564979
     9  C   -0.558809
    10  H    0.154910
    11  H    0.144575
    12  H    0.146718
    13  H    0.148953
    14  H    0.155329
    15  H    0.135891
    16  H    0.149507
    17  H    0.148675
    18  H    0.134242
    19  H    0.160017
    20  H    0.152332
    21  H    0.130445
    22  H    0.150576
    23  H    0.154331
    24  H    0.143114
    25  H    0.153008
    26  H    0.142611
    27  H    0.118440
    28  Rh  -0.597050
    29  C    0.017382
    30  C   -0.086550
    31  C   -0.040284
    32  C   -0.111873
    33  C   -0.368214
    34  H    0.160920
    35  H    0.153682
    36  C   -0.235738
    37  C   -0.338568
    38  H    0.183288
    39  C   -0.228068
    40  H    0.218017
    41  H    0.170011
    42  H    0.171337
    43  H    0.173040
    44  H    0.132118
    45  H    0.167608
    46  H    0.169494
    47  H    0.134648
    48  H    0.176023
    49  C   -0.511155
    50  H    0.148105
    51  H    0.151407
    52  H    0.147142
    53  C   -0.544711
    54  H    0.136735
    55  H    0.152636
    56  H    0.148173
    57  C   -0.599674
    58  H    0.147083
    59  H    0.156630
    60  H    0.158720
    61  Si   0.761872
    62  Si   0.766876
    63  Si   0.731401
    64  C   -0.542716
    65  H    0.137266
    66  H    0.140488
    67  H    0.148623
    68  C   -0.557291
    69  H    0.139097
    70  H    0.143102
    71  H    0.169374
    72  C   -0.582410
    73  H    0.134229
    74  H    0.152389
    75  H    0.155332
    76  Si   0.757030
    77  O   -0.412906
    78  O   -0.516654
    79  O   -0.442641
    80  O   -0.488410
    81  N   -0.377605
    82  H    0.233141
    83  C   -0.149901
    84  C   -0.226622
    85  C   -0.060674
    86  H    0.120988
    87  C   -0.108505
    88  H    0.199849
    89  C   -0.112736
    90  H    0.133126
    91  H    0.129883
    92  N   -0.011704
    93  Si   0.796326
    94  C   -0.585803
    95  H    0.133121
    96  H    0.149057
    97  H    0.144974
    98  C   -0.589834
    99  H    0.139196
   100  H    0.140707
   101  H    0.134814
   102  C   -0.561572
   103  H    0.143936
   104  H    0.126805
   105  H    0.130900
 Sum of Mulliken charges =   1.00000

 Dipole moment (field-independent basis, Debye):
    X=             -0.6562    Y=              4.1823    Z=             -1.5556  Tot=              4.5103
 Quadrupole moment (field-independent basis, Debye-Ang):
   XX=           -271.7710   YY=           -290.1636   ZZ=           -292.5139
   XY=              3.6316   XZ=             -2.3343   YZ=              8.6826

 Summary of Natural Population Analysis:

                                       Natural Population
                Natural  -----------------------------------------------
    Atom  No    Charge         Core      Valence    Rydberg      Total
 -----------------------------------------------------------------------
      P    1    1.75723      9.99587     3.15180    0.09510    13.24277
      P    2    1.76019      9.99608     3.14759    0.09613    13.23981
      C    3   -0.38622      1.99928     4.34876    0.03818     6.38622
      C    4   -1.11248      1.99943     5.10475    0.00830     7.11248
      C    5   -1.11003      1.99943     5.10245    0.00815     7.11003
      C    6   -1.10743      1.99943     5.09945    0.00856     7.10743
      C    7   -1.11438      1.99943     5.10623    0.00872     7.11438
      C    8   -1.11273      1.99943     5.10456    0.00875     7.11273
      C    9   -1.10925      1.99943     5.10098    0.00884     7.10925
      H   10    0.24518      0.00000     0.75397    0.00084     0.75482
      H   11    0.23872      0.00000     0.76032    0.00096     0.76128
      H   12    0.23320      0.00000     0.76571    0.00109     0.76680
      H   13    0.24340      0.00000     0.75576    0.00083     0.75660
      H   14    0.24154      0.00000     0.75735    0.00111     0.75846
      H   15    0.23584      0.00000     0.76323    0.00093     0.76416
      H   16    0.24276      0.00000     0.75638    0.00086     0.75724
      H   17    0.23957      0.00000     0.75933    0.00111     0.76043
      H   18    0.23014      0.00000     0.76864    0.00122     0.76986
      H   19    0.24626      0.00000     0.75286    0.00087     0.75374
      H   20    0.23810      0.00000     0.76084    0.00107     0.76190
      H   21    0.22984      0.00000     0.76910    0.00106     0.77016
      H   22    0.24256      0.00000     0.75632    0.00112     0.75744
      H   23    0.24485      0.00000     0.75425    0.00090     0.75515
      H   24    0.22388      0.00000     0.77499    0.00113     0.77612
      H   25    0.24211      0.00000     0.75700    0.00089     0.75789
      H   26    0.24015      0.00000     0.75870    0.00115     0.75985
      H   27    0.23183      0.00000     0.76682    0.00135     0.76817
     Rh   28   -0.53311     35.98515     9.52106    0.02689    45.53311
      C   29   -0.16111      1.99907     4.14122    0.02082     6.16111
      C   30   -0.18134      1.99908     4.16083    0.02143     6.18134
      C   31   -0.19336      1.99907     4.17354    0.02075     6.19336
      C   32   -0.15450      1.99907     4.13434    0.02108     6.15450
      C   33   -0.42631      1.99936     4.41490    0.01205     6.42631
      H   34    0.22722      0.00000     0.77053    0.00225     0.77278
      H   35    0.22273      0.00000     0.77496    0.00231     0.77727
      C   36   -0.41996      1.99935     4.40771    0.01289     6.41996
      C   37   -0.42196      1.99936     4.41080    0.01180     6.42196
      H   38    0.22742      0.00000     0.77039    0.00219     0.77258
      C   39   -0.41899      1.99935     4.40680    0.01284     6.41899
      H   40    0.23396      0.00000     0.76370    0.00234     0.76604
      H   41    0.22870      0.00000     0.76981    0.00148     0.77130
      H   42    0.21617      0.00000     0.78183    0.00200     0.78383
      H   43    0.23463      0.00000     0.76345    0.00192     0.76537
      H   44    0.21520      0.00000     0.78303    0.00176     0.78480
      H   45    0.21421      0.00000     0.78376    0.00202     0.78579
      H   46    0.22884      0.00000     0.76969    0.00148     0.77116
      H   47    0.21134      0.00000     0.78691    0.00175     0.78866
      H   48    0.23445      0.00000     0.76359    0.00196     0.76555
      C   49   -1.11142      1.99943     5.10377    0.00822     7.11142
      H   50    0.24177      0.00000     0.75715    0.00108     0.75823
      H   51    0.24295      0.00000     0.75596    0.00109     0.75705
      H   52    0.24315      0.00000     0.75600    0.00085     0.75685
      C   53   -1.11018      1.99943     5.10238    0.00837     7.11018
      H   54    0.23493      0.00000     0.76407    0.00100     0.76507
      H   55    0.24220      0.00000     0.75672    0.00108     0.75780
      H   56    0.24279      0.00000     0.75636    0.00085     0.75721
      C   57   -1.12189      1.99943     5.11367    0.00879     7.12189
      H   58    0.23529      0.00000     0.76352    0.00119     0.76471
      H   59    0.23811      0.00000     0.76082    0.00107     0.76189
      H   60    0.24862      0.00000     0.75050    0.00088     0.75138
     Si   61    1.86599      9.99787     2.10312    0.03302    12.13401
     Si   62    1.86901      9.99787     2.10041    0.03270    12.13099
     Si   63    1.86633      9.99786     2.10217    0.03364    12.13367
      C   64   -1.11100      1.99944     5.10302    0.00855     7.11100
      H   65    0.23559      0.00000     0.76337    0.00105     0.76441
      H   66    0.23577      0.00000     0.76322    0.00101     0.76423
      H   67    0.24395      0.00000     0.75518    0.00087     0.75605
      C   68   -1.11456      1.99942     5.10655    0.00859     7.11456
      H   69    0.23993      0.00000     0.75893    0.00114     0.76007
      H   70    0.24284      0.00000     0.75627    0.00089     0.75716
      H   71    0.24712      0.00000     0.75162    0.00126     0.75288
      C   72   -1.11058      1.99943     5.10242    0.00873     7.11058
      H   73    0.22815      0.00000     0.77080    0.00105     0.77185
      H   74    0.23891      0.00000     0.75991    0.00119     0.76109
      H   75    0.24443      0.00000     0.75469    0.00087     0.75557
     Si   76    1.87576      9.99778     2.09332    0.03313    12.12424
      O   77   -1.15879      1.99974     7.14829    0.01076     9.15879
      O   78   -1.12959      1.99978     7.11929    0.01052     9.12959
      O   79   -1.13001      1.99977     7.11862    0.01163     9.13001
      O   80   -1.15428      1.99976     7.14503    0.00949     9.15428
      N   81   -1.04499      1.99951     6.02291    0.02256     8.04499
      H   82    0.39135      0.00000     0.60527    0.00338     0.60865
      C   83   -0.10890      1.99895     4.08669    0.02326     6.10890
      C   84    0.02480      1.99911     3.95216    0.02393     5.97520
      C   85   -0.17124      1.99906     4.15658    0.01560     6.17124
      H   86    0.20316      0.00000     0.79426    0.00259     0.79684
      C   87   -0.24930      1.99915     4.23509    0.01506     6.24930
      H   88    0.22446      0.00000     0.77229    0.00325     0.77554
      C   89    0.03199      1.99923     3.94573    0.02305     5.96801
      H   90    0.22275      0.00000     0.77582    0.00143     0.77725
      H   91    0.20241      0.00000     0.79605    0.00155     0.79759
      N   92   -0.39205      1.99950     5.37457    0.01799     7.39205
     Si   93    1.78713      9.99795     2.18215    0.03277    12.21287
      C   94   -1.09934      1.99946     5.09148    0.00840     7.09934
      H   95    0.22857      0.00000     0.77036    0.00107     0.77143
      H   96    0.24142      0.00000     0.75772    0.00087     0.75858
      H   97    0.23301      0.00000     0.76603    0.00096     0.76699
      C   98   -1.10347      1.99944     5.09449    0.00954     7.10347
      H   99    0.23233      0.00000     0.76653    0.00114     0.76767
      H  100    0.23632      0.00000     0.76270    0.00098     0.76368
      H  101    0.23171      0.00000     0.76682    0.00147     0.76829
      C  102   -1.10172      1.99944     5.09217    0.01012     7.10172
      H  103    0.23305      0.00000     0.76592    0.00103     0.76695
      H  104    0.22773      0.00000     0.77102    0.00125     0.77227
      H  105    0.22848      0.00000     0.77014    0.00138     0.77152
 =======================================================================
   * Total *    1.00000    175.94450   249.10312    0.95238   426.00000

 Normal termination of Gaussian 16 at Mon Jan 20 18:17:48 2025.
