 Gaussian 16, Revision B.01,
 Gaussian 16:  ES64L-G16RevB.01 20-Dec-2017

 ------------------------------------------
 # nmr=giao b3lyp/genecp pop=nbo scfcyc=200
 ------------------------------------------

 ---------
 DS-57_SPE
 ---------
 Symbolic Z-matrix:
 Charge =  1 Multiplicity = 1

                         Standard orientation:
 ---------------------------------------------------------------------
 Center     Atomic      Atomic             Coordinates (Angstroms)
 Number     Number       Type             X           Y           Z
 ---------------------------------------------------------------------
      1         15           0        0.331090    0.122950   -0.175170
      2         45           0       -1.896640   -0.167039    0.711300
      3          6           0       -4.126520    0.090722    1.093960
      4          6           0       -3.744750   -1.164778    1.521990
      5          6           0       -1.637049    0.235991    2.926260
      6          6           0       -1.859159    1.435201    2.278090
      7          1           0       -4.543210    0.163342    0.096610
      8          6           0       -4.399069    1.280382    1.994410
      9          1           0       -3.926151   -1.991758    0.845320
     10          6           0       -3.444210   -1.576948    2.941170
     11          6           0       -2.656750   -0.526139    3.751490
     12          1           0       -0.604210   -0.027720    3.112380
     13          1           0       -0.984528    2.028480    2.040040
     14          6           0       -3.166838    2.183142    2.199690
     15          1           0       -4.782129    0.932293    2.953510
     16          1           0       -5.198919    1.876173    1.551470
     17          1           0       -4.377651   -1.826628    3.460940
     18          1           0       -2.868371   -2.504149    2.903560
     19          1           0       -2.135060   -1.034379    4.564000
     20          1           0       -3.339910    0.176602    4.228580
     21          1           0       -3.296518    2.795142    3.101160
     22          1           0       -3.099978    2.888092    1.369180
     23          7           0        1.081561    1.676919   -0.209360
     24          7           0        1.521190   -1.050171    0.216880
     25          6           0       -0.288610   -0.344190   -1.850610
     26          7           0        0.273420   -0.140750   -3.001150
     27          7           0        0.778860    0.102779   -3.984010
     28          6           0        2.143039   -1.942401   -0.809660
     29          6           0        3.551740   -1.519572   -1.273340
     30          6           0        2.119568   -3.441371   -0.459710
     31          1           0        1.500689   -1.849601   -1.684850
     32          6           0        4.038789   -2.385142   -2.444990
     33          1           0        4.260889   -1.597183   -0.446720
     34          1           0        3.538730   -0.473592   -1.583770
     35          6           0        2.601888   -4.291982   -1.643960
     36          1           0        2.763598   -3.645882    0.397810
     37          1           0        1.108878   -3.740211   -0.174850
     38          6           0        3.999138   -3.876802   -2.108790
     39          1           0        5.050729   -2.082163   -2.724000
     40          1           0        3.408769   -2.195222   -3.321900
     41          1           0        2.590617   -5.346882   -1.359170
     42          1           0        1.898348   -4.189021   -2.478710
     43          1           0        4.301138   -4.468963   -2.975780
     44          1           0        4.724678   -4.092873   -1.316490
     45          6           0        2.557071    1.852998   -0.104260
     46          6           0        3.205222    2.600048   -1.283100
     47          6           0        3.032132    2.446338    1.239680
     48          1           0        2.949851    0.838948   -0.130490
     49          6           0        4.736912    2.590807   -1.172170
     50          1           0        2.869072    3.639478   -1.301190
     51          1           0        2.892502    2.147878   -2.227700
     52          6           0        4.565012    2.441967    1.339320
     53          1           0        2.684212    3.472508    1.351860
     54          1           0        2.596331    1.875998    2.064000
     55          6           0        5.209872    3.175677    0.160740
     56          1           0        5.164202    3.149927   -2.008040
     57          1           0        5.105821    1.563347   -1.267620
     58          1           0        4.869022    2.896647    2.285370
     59          1           0        4.934221    1.410647    1.361340
     60          1           0        6.298792    3.121886    0.232250
     61          1           0        4.947613    4.238847    0.205210
     62          6           0        0.139272    2.805180   -0.466380
     63          6           0        0.331363    4.025630    0.450670
     64          6           0        0.060702    3.270670   -1.937210
     65          1           0       -0.849948    2.390790   -0.230420
     66          6           0       -0.783257    5.062130    0.249340
     67          1           0        1.287053    4.505279    0.228210
     68          1           0        0.371682    3.712070    1.495710
     69          6           0       -1.057797    4.303470   -2.136920
     70          1           0        1.007772    3.717439   -2.239990
     71          1           0       -0.101328    2.414580   -2.592570
     72          6           0       -0.884967    5.509000   -1.210450
     73          1           0       -0.600146    5.920470    0.900190
     74          1           0       -1.742647    4.636361    0.564280
     75          1           0       -1.075727    4.623780   -3.181540
     76          1           0       -2.029377    3.836441   -1.939140
     77          1           0       -1.716006    6.207151   -1.336040
     78          1           0        0.023844    6.054420   -1.487910
     79          6           0       -3.094440   -0.452688   -2.857320
     80          1           0       -2.626580   -0.749979   -3.800570
     81          6           0       -1.685961   -2.926799   -1.802460
     82          1           0       -0.718921   -3.086520   -1.320330
     83         15           0       -1.929030   -1.070039   -1.510450
     84          6           0       -2.707782   -3.806869   -1.073400
     85          1           0       -2.452752   -4.857799   -1.228320
     86          1           0       -2.700492   -3.624189    0.000970
     87          1           0       -3.725122   -3.665288   -1.439690
     88          6           0       -1.547371   -3.302559   -3.282100
     89          1           0       -0.793561   -2.705730   -3.798340
     90          1           0       -1.240882   -4.348089   -3.362900
     91          1           0       -2.489331   -3.200749   -3.822810
     92          6           0       -3.208949    1.073072   -2.832240
     93          1           0       -3.658309    1.425032   -1.901950
     94          1           0       -2.242559    1.561961   -2.944570
     95          1           0       -3.844869    1.403252   -3.656580
     96          6           0       -4.475290   -1.117218   -2.775810
     97          1           0       -5.114840   -0.711327   -3.562550
     98          1           0       -4.434241   -2.196048   -2.917290
     99          1           0       -4.969110   -0.918677   -1.822620
    100          6           0        1.769410   -1.200071    1.685840
    101          6           0        0.957739   -2.322531    2.362490
    102          6           0        3.253670   -1.300102    2.073960
    103          1           0        1.416690   -0.258571    2.123020
    104          6           0        1.140069   -2.303731    3.887020
    105          1           0        1.277949   -3.294011    1.986950
    106          1           0       -0.096951   -2.210550    2.095930
    107          6           0        3.427840   -1.281632    3.599450
    108          1           0        3.680949   -2.226572    1.684590
    109          1           0        3.813160   -0.479492    1.625770
    110          6           0        2.617879   -2.388252    4.279000
    111          1           0        0.579249   -3.128980    4.333090
    112          1           0        0.716520   -1.381931    4.303150
    113          1           0        4.488120   -1.380253    3.843570
    114          1           0        3.111250   -0.307562    3.990120
    115          1           0        2.725819   -2.323732    5.364250
    116          1           0        3.016889   -3.365212    3.984180
 ---------------------------------------------------------------------

 SCF Done:  E(RB3LYP) =  -2541.07430852     A.U. after   17 cycles

      1  P    Isotropic =   205.0983   Anisotropy =    74.3891

      2  Rh   Isotropic =  -345.5329   Anisotropy =   389.4676

      3  C    Isotropic =    81.5023   Anisotropy =   120.3182

      4  C    Isotropic =    81.9508   Anisotropy =   112.8051

      5  C    Isotropic =    81.3833   Anisotropy =   117.8778

      6  C    Isotropic =    78.7052   Anisotropy =   114.0292

      7  H    Isotropic =    26.8368   Anisotropy =     6.5428

      8  C    Isotropic =   153.8941   Anisotropy =    25.7501

      9  H    Isotropic =    26.5241   Anisotropy =     4.6315

     10  C    Isotropic =   147.3431   Anisotropy =    29.0009

     11  C    Isotropic =   154.6897   Anisotropy =    24.1986

     12  H    Isotropic =    27.2856   Anisotropy =     7.6668

     13  H    Isotropic =    26.9442   Anisotropy =     5.0561

     14  C    Isotropic =   147.3873   Anisotropy =    28.3381

     15  H    Isotropic =    29.8856   Anisotropy =     9.8630

     16  H    Isotropic =    29.8363   Anisotropy =    11.3837

     17  H    Isotropic =    29.2099   Anisotropy =    13.1079

     18  H    Isotropic =    29.1711   Anisotropy =     6.3818

     19  H    Isotropic =    29.9138   Anisotropy =    10.0274

     20  H    Isotropic =    29.9518   Anisotropy =     9.7950

     21  H    Isotropic =    29.2233   Anisotropy =    11.8206

     22  H    Isotropic =    28.9277   Anisotropy =     7.8664

     23  N    Isotropic =   155.4599   Anisotropy =    44.6095

     24  N    Isotropic =   148.3554   Anisotropy =    40.7713

     25  C    Isotropic =   133.6331   Anisotropy =    55.5061

     26  N    Isotropic =   -21.7121   Anisotropy =   381.3579

     27  N    Isotropic =  -132.5212   Anisotropy =   142.9922

     28  C    Isotropic =   116.5118   Anisotropy =    52.7854

     29  C    Isotropic =   144.9980   Anisotropy =    20.5546

     30  C    Isotropic =   143.9809   Anisotropy =    15.4426

     31  H    Isotropic =    28.6454   Anisotropy =     7.8603

     32  C    Isotropic =   152.9203   Anisotropy =    10.9804

     33  H    Isotropic =    30.0568   Anisotropy =     4.0691

     34  H    Isotropic =    30.3146   Anisotropy =     8.9517

     35  C    Isotropic =   152.9258   Anisotropy =    10.2416

     36  H    Isotropic =    29.8490   Anisotropy =     5.5799

     37  H    Isotropic =    30.0927   Anisotropy =     4.6375

     38  C    Isotropic =   156.2544   Anisotropy =     2.8729

     39  H    Isotropic =    30.0187   Anisotropy =    10.6174

     40  H    Isotropic =    30.6660   Anisotropy =     6.4002

     41  H    Isotropic =    29.9164   Anisotropy =    10.4754

     42  H    Isotropic =    30.7054   Anisotropy =     6.8815

     43  H    Isotropic =    30.2165   Anisotropy =    11.9773

     44  H    Isotropic =    30.6380   Anisotropy =     9.2982

     45  C    Isotropic =   125.3485   Anisotropy =    45.6697

     46  C    Isotropic =   143.5503   Anisotropy =    18.1693

     47  C    Isotropic =   144.0658   Anisotropy =    24.7478

     48  H    Isotropic =    28.5245   Anisotropy =     8.7821

     49  C    Isotropic =   154.1892   Anisotropy =     9.3775

     50  H    Isotropic =    30.0123   Anisotropy =     6.2336

     51  H    Isotropic =    30.5989   Anisotropy =     3.5143

     52  C    Isotropic =   153.5695   Anisotropy =    11.0764

     53  H    Isotropic =    30.0510   Anisotropy =     6.5437

     54  H    Isotropic =    30.8112   Anisotropy =     4.7163

     55  C    Isotropic =   156.0898   Anisotropy =     3.5921

     56  H    Isotropic =    30.0640   Anisotropy =    11.1658

     57  H    Isotropic =    30.6810   Anisotropy =     6.5022

     58  H    Isotropic =    30.1640   Anisotropy =    10.4329

     59  H    Isotropic =    30.6702   Anisotropy =     6.5073

     60  H    Isotropic =    30.2758   Anisotropy =    11.8730

     61  H    Isotropic =    30.7326   Anisotropy =     9.7189

     62  C    Isotropic =   120.9412   Anisotropy =    42.1113

     63  C    Isotropic =   144.2812   Anisotropy =    12.3734

     64  C    Isotropic =   145.5919   Anisotropy =    21.6693

     65  H    Isotropic =    28.2227   Anisotropy =     7.1920

     66  C    Isotropic =   152.7023   Anisotropy =     9.0159

     67  H    Isotropic =    29.9396   Anisotropy =     6.7028

     68  H    Isotropic =    30.2173   Anisotropy =     2.9497

     69  C    Isotropic =   153.5479   Anisotropy =    10.1269

     70  H    Isotropic =    29.9837   Anisotropy =     6.0693

     71  H    Isotropic =    30.5991   Anisotropy =     5.8716

     72  C    Isotropic =   155.9314   Anisotropy =     3.2364

     73  H    Isotropic =    29.8777   Anisotropy =    10.8015

     74  H    Isotropic =    30.4876   Anisotropy =     6.9708

     75  H    Isotropic =    30.0198   Anisotropy =    10.3139

     76  H    Isotropic =    30.5377   Anisotropy =     7.0936

     77  H    Isotropic =    30.1559   Anisotropy =    11.5165

     78  H    Isotropic =    30.5776   Anisotropy =     9.8480

     79  C    Isotropic =   150.9758   Anisotropy =    17.4086

     80  H    Isotropic =    29.3596   Anisotropy =     5.2556

     81  C    Isotropic =   137.2854   Anisotropy =    34.8231

     82  H    Isotropic =    29.6355   Anisotropy =     8.6904

     83  P    Isotropic =   273.3475   Anisotropy =    53.4234

     84  C    Isotropic =   163.0597   Anisotropy =    29.1316

     85  H    Isotropic =    30.5174   Anisotropy =    10.8335

     86  H    Isotropic =    30.2317   Anisotropy =     6.4133

     87  H    Isotropic =    30.7287   Anisotropy =     7.0336

     88  C    Isotropic =   165.7009   Anisotropy =    28.5699

     89  H    Isotropic =    30.6277   Anisotropy =     6.1263

     90  H    Isotropic =    30.4384   Anisotropy =    10.9217

     91  H    Isotropic =    30.6138   Anisotropy =     8.1315

     92  C    Isotropic =   163.1574   Anisotropy =    31.1986

     93  H    Isotropic =    30.4493   Anisotropy =     5.0895

     94  H    Isotropic =    30.5096   Anisotropy =    10.4689

     95  H    Isotropic =    30.5119   Anisotropy =    11.2036

     96  C    Isotropic =   165.1324   Anisotropy =    30.0928

     97  H    Isotropic =    30.5313   Anisotropy =    12.5156

     98  H    Isotropic =    30.6284   Anisotropy =     8.2880

     99  H    Isotropic =    31.2395   Anisotropy =     4.9330

    100  C    Isotropic =   117.6094   Anisotropy =    43.6182

    101  C    Isotropic =   143.4428   Anisotropy =    24.5090

    102  C    Isotropic =   147.3286   Anisotropy =    13.3215

    103  H    Isotropic =    29.5322   Anisotropy =     5.2892

    104  C    Isotropic =   153.5931   Anisotropy =    12.5669

    105  H    Isotropic =    29.8122   Anisotropy =     5.3683

    106  H    Isotropic =    29.1891   Anisotropy =     9.0675

    107  C    Isotropic =   153.6979   Anisotropy =     9.6166

    108  H    Isotropic =    29.9463   Anisotropy =     5.2919

    109  H    Isotropic =    29.9841   Anisotropy =     7.6597

    110  C    Isotropic =   155.9965   Anisotropy =     2.2952

    111  H    Isotropic =    30.0026   Anisotropy =     9.6012

    112  H    Isotropic =    30.7149   Anisotropy =     6.3830

    113  H    Isotropic =    29.9749   Anisotropy =    10.8860

    114  H    Isotropic =    30.7577   Anisotropy =     6.2645

    115  H    Isotropic =    30.2038   Anisotropy =    11.8324

    116  H    Isotropic =    30.6065   Anisotropy =     9.4533

 The electronic state is 1-A.
 Alpha  occ. eigenvalues --  -77.27319 -77.23519 -14.57222 -14.50658 -14.42545
 Alpha  occ. eigenvalues --  -14.42186 -10.32429 -10.30672 -10.30382 -10.30181
 Alpha  occ. eigenvalues --  -10.30157 -10.29902 -10.29448 -10.28987 -10.28912
 Alpha  occ. eigenvalues --  -10.28878 -10.28683 -10.27459 -10.27437 -10.27269
 Alpha  occ. eigenvalues --  -10.27206 -10.27079 -10.26904 -10.26752 -10.26607
 Alpha  occ. eigenvalues --  -10.25744 -10.25546 -10.25464 -10.25327 -10.25233
 Alpha  occ. eigenvalues --  -10.25219 -10.25118 -10.25064 -10.24962 -10.24940
 Alpha  occ. eigenvalues --  -10.24920 -10.24806 -10.24728 -10.24694 -10.24540
 Alpha  occ. eigenvalues --  -10.24357 -10.24336 -10.24329 -10.24320 -10.23871
 Alpha  occ. eigenvalues --   -6.72448  -6.69446  -4.88817  -4.88738  -4.88353
 Alpha  occ. eigenvalues --   -4.85799  -4.85590  -4.85346  -3.31441  -2.08294
 Alpha  occ. eigenvalues --   -2.07681  -2.04870  -1.23459  -1.02808  -0.99952
 Alpha  occ. eigenvalues --   -0.97040  -0.94471  -0.92336  -0.91906  -0.91615
 Alpha  occ. eigenvalues --   -0.90941  -0.90037  -0.89432  -0.89105  -0.88011
 Alpha  occ. eigenvalues --   -0.83705  -0.83483  -0.83243  -0.83209  -0.83061
 Alpha  occ. eigenvalues --   -0.82536  -0.82260  -0.80360  -0.79929  -0.79614
 Alpha  occ. eigenvalues --   -0.79476  -0.78318  -0.77762  -0.73778  -0.71504
 Alpha  occ. eigenvalues --   -0.71096  -0.70594  -0.70544  -0.70309  -0.69762
 Alpha  occ. eigenvalues --   -0.69520  -0.68952  -0.67782  -0.67042  -0.65996
 Alpha  occ. eigenvalues --   -0.65398  -0.65142  -0.64703  -0.64480  -0.63948
 Alpha  occ. eigenvalues --   -0.62543  -0.61403  -0.60838  -0.60713  -0.59991
 Alpha  occ. eigenvalues --   -0.58425  -0.58165  -0.57702  -0.57409  -0.57025
 Alpha  occ. eigenvalues --   -0.56654  -0.56539  -0.56191  -0.55489  -0.55418
 Alpha  occ. eigenvalues --   -0.54571  -0.53973  -0.53883  -0.53644  -0.53498
 Alpha  occ. eigenvalues --   -0.53195  -0.53129  -0.52915  -0.52786  -0.52586
 Alpha  occ. eigenvalues --   -0.52312  -0.52208  -0.52029  -0.51875  -0.51721
 Alpha  occ. eigenvalues --   -0.51366  -0.51054  -0.49665  -0.49616  -0.49392
 Alpha  occ. eigenvalues --   -0.49112  -0.48985  -0.48817  -0.48618  -0.48226
 Alpha  occ. eigenvalues --   -0.48079  -0.47777  -0.47141  -0.47089  -0.46886
 Alpha  occ. eigenvalues --   -0.46601  -0.46431  -0.46401  -0.46278  -0.46151
 Alpha  occ. eigenvalues --   -0.45996  -0.45858  -0.45592  -0.45439  -0.44813
 Alpha  occ. eigenvalues --   -0.44305  -0.43971  -0.43917  -0.43738  -0.43630
 Alpha  occ. eigenvalues --   -0.43160  -0.43142  -0.43093  -0.42884  -0.42376
 Alpha  occ. eigenvalues --   -0.42247  -0.41823  -0.41432  -0.41240  -0.40878
 Alpha  occ. eigenvalues --   -0.40560  -0.40352  -0.40240  -0.39910  -0.39863
 Alpha  occ. eigenvalues --   -0.39509  -0.39425  -0.39147  -0.38886  -0.38645
 Alpha  occ. eigenvalues --   -0.37492  -0.36943  -0.35476  -0.35187  -0.34042
 Alpha  occ. eigenvalues --   -0.33690  -0.32820  -0.31762  -0.30018
 Alpha virt. eigenvalues --   -0.17482  -0.16223  -0.13849  -0.11352  -0.09264
 Alpha virt. eigenvalues --   -0.08585  -0.07379  -0.07258  -0.06640  -0.06371
 Alpha virt. eigenvalues --   -0.05558  -0.04888  -0.04748  -0.04525  -0.04373

 Mulliken charges:
               1
     1  P    0.629795
     2  Rh  -0.514787
     3  C   -0.032048
     4  C   -0.104445
     5  C   -0.007577
     6  C   -0.102175
     7  H    0.161528
     8  C   -0.360409
     9  H    0.193381
    10  C   -0.233977
    11  C   -0.357869
    12  H    0.172616
    13  H    0.197081
    14  C   -0.222991
    15  H    0.169729
    16  H    0.169185
    17  H    0.169307
    18  H    0.135617
    19  H    0.167342
    20  H    0.171030
    21  H    0.171405
    22  H    0.124425
    23  N   -0.223471
    24  N   -0.251271
    25  C   -0.794782
    26  N    0.452230
    27  N   -0.129214
    28  C   -0.082135
    29  C   -0.206905
    30  C   -0.295933
    31  H    0.131112
    32  C   -0.266269
    33  H    0.140684
    34  H    0.130129
    35  C   -0.247078
    36  H    0.137118
    37  H    0.158141
    38  C   -0.217844
    39  H    0.144862
    40  H    0.122766
    41  H    0.145272
    42  H    0.114627
    43  H    0.146212
    44  H    0.115810
    45  C   -0.054349
    46  C   -0.239320
    47  C   -0.239384
    48  H    0.100165
    49  C   -0.255029
    50  H    0.125514
    51  H    0.141955
    52  C   -0.239884
    53  H    0.139837
    54  H    0.131912
    55  C   -0.233527
    56  H    0.145594
    57  H    0.121192
    58  H    0.143274
    59  H    0.112429
    60  H    0.144639
    61  H    0.115507
    62  C   -0.128717
    63  C   -0.254692
    64  C   -0.240028
    65  H    0.127715
    66  C   -0.257261
    67  H    0.133825
    68  H    0.154813
    69  C   -0.240820
    70  H    0.146163
    71  H    0.119540
    72  C   -0.232606
    73  H    0.147306
    74  H    0.106617
    75  H    0.146592
    76  H    0.107720
    77  H    0.144564
    78  H    0.120246
    79  C   -0.196289
    80  H    0.180973
    81  C   -0.128718
    82  H    0.117948
    83  P    0.514208
    84  C   -0.422036
    85  H    0.156489
    86  H    0.138552
    87  H    0.145311
    88  C   -0.388702
    89  H    0.141720
    90  H    0.154965
    91  H    0.147278
    92  C   -0.371763
    93  H    0.119542
    94  H    0.142087
    95  H    0.158332
    96  C   -0.408370
    97  H    0.159112
    98  H    0.142862
    99  H    0.141538
   100  C   -0.095006
   101  C   -0.243297
   102  C   -0.252750
   103  H    0.124319
   104  C   -0.254736
   105  H    0.147983
   106  H    0.164315
   107  C   -0.252397
   108  H    0.132049
   109  H    0.144487
   110  C   -0.231185
   111  H    0.141989
   112  H    0.117920
   113  H    0.147721
   114  H    0.116539
   115  H    0.147423
   116  H    0.117862
 Sum of Mulliken charges =   1.00000

 Dipole moment (field-independent basis, Debye):
    X=             -3.5240    Y=             -1.6276    Z=              0.2923  Tot=              3.8927
 Quadrupole moment (field-independent basis, Debye-Ang):
   XX=           -263.6050   YY=           -276.8780   ZZ=           -287.3899
   XY=              1.1519   XZ=              4.3728   YZ=              4.3465

 Summary of Natural Population Analysis:

                                       Natural Population
                Natural  -----------------------------------------------
    Atom  No    Charge         Core      Valence    Rydberg      Total
 -----------------------------------------------------------------------
      P    1    1.53945      9.99606     3.39200    0.07249    13.46055
     Rh    2   -0.35599     35.98563     9.33983    0.03054    45.35599
      C    3   -0.17247      1.99909     4.15339    0.01999     6.17247
      C    4   -0.17516      1.99910     4.15582    0.02024     6.17516
      C    5   -0.18108      1.99908     4.16237    0.01964     6.18108
      C    6   -0.16781      1.99909     4.14893    0.01979     6.16781
      H    7    0.21780      0.00000     0.77991    0.00230     0.78220
      C    8   -0.42338      1.99935     4.41202    0.01201     6.42338
      H    9    0.22256      0.00000     0.77531    0.00213     0.77744
      C   10   -0.41584      1.99935     4.40372    0.01277     6.41584
      C   11   -0.42358      1.99935     4.41232    0.01191     6.42358
      H   12    0.22224      0.00000     0.77508    0.00268     0.77776
      H   13    0.22652      0.00000     0.77101    0.00247     0.77348
      C   14   -0.41675      1.99934     4.40445    0.01296     6.41675
      H   15    0.21608      0.00000     0.78198    0.00194     0.78392
      H   16    0.22752      0.00000     0.77098    0.00150     0.77248
      H   17    0.23233      0.00000     0.76575    0.00192     0.76767
      H   18    0.21577      0.00000     0.78245    0.00178     0.78423
      H   19    0.22825      0.00000     0.77025    0.00150     0.77175
      H   20    0.21574      0.00000     0.78228    0.00198     0.78426
      H   21    0.23223      0.00000     0.76585    0.00192     0.76777
      H   22    0.21379      0.00000     0.78354    0.00267     0.78621
      N   23   -0.75291      1.99949     5.72520    0.02821     7.75291
      N   24   -0.75620      1.99950     5.73320    0.02350     7.75620
      C   25   -0.72106      1.99895     4.69219    0.02993     6.72106
      N   26    0.04232      1.99940     4.92442    0.03386     6.95768
      N   27    0.03514      1.99968     4.94021    0.02497     6.96486
      C   28   -0.02648      1.99924     4.00706    0.02018     6.02648
      C   29   -0.40426      1.99937     4.39478    0.01011     6.40426
      C   30   -0.40059      1.99937     4.39114    0.01008     6.40059
      H   31    0.19280      0.00000     0.80253    0.00467     0.80720
      C   32   -0.38465      1.99941     4.37542    0.00982     6.38465
      H   33    0.19904      0.00000     0.79873    0.00223     0.80096
      H   34    0.20080      0.00000     0.79696    0.00224     0.79920
      C   35   -0.38220      1.99941     4.37313    0.00965     6.38220
      H   36    0.19631      0.00000     0.80138    0.00231     0.80369
      H   37    0.20162      0.00000     0.79660    0.00178     0.79838
      C   38   -0.38909      1.99942     4.37998    0.00969     6.38909
      H   39    0.21479      0.00000     0.78378    0.00143     0.78521
      H   40    0.18852      0.00000     0.80940    0.00209     0.81148
      H   41    0.21337      0.00000     0.78520    0.00142     0.78663
      H   42    0.18435      0.00000     0.81352    0.00212     0.81565
      H   43    0.21383      0.00000     0.78479    0.00138     0.78617
      H   44    0.19391      0.00000     0.80439    0.00171     0.80609
      C   45   -0.04552      1.99924     4.02601    0.02027     6.04552
      C   46   -0.40102      1.99937     4.39177    0.00988     6.40102
      C   47   -0.40020      1.99936     4.38999    0.01085     6.40020
      H   48    0.21437      0.00000     0.78150    0.00414     0.78563
      C   49   -0.38435      1.99941     4.37541    0.00952     6.38435
      H   50    0.19248      0.00000     0.80527    0.00225     0.80752
      H   51    0.20476      0.00000     0.79345    0.00179     0.79524
      C   52   -0.38492      1.99941     4.37599    0.00951     6.38492
      H   53    0.20170      0.00000     0.79632    0.00197     0.79830
      H   54    0.19758      0.00000     0.80025    0.00217     0.80242
      C   55   -0.38852      1.99942     4.37955    0.00955     6.38852
      H   56    0.21371      0.00000     0.78489    0.00140     0.78629
      H   57    0.18973      0.00000     0.80849    0.00178     0.81027
      H   58    0.21303      0.00000     0.78555    0.00142     0.78697
      H   59    0.18617      0.00000     0.81188    0.00195     0.81383
      H   60    0.21265      0.00000     0.78597    0.00139     0.78735
      H   61    0.19260      0.00000     0.80552    0.00189     0.80740
      C   62   -0.02974      1.99927     4.01121    0.01927     6.02974
      C   63   -0.40125      1.99937     4.39150    0.01038     6.40125
      C   64   -0.40318      1.99937     4.39253    0.01128     6.40318
      H   65    0.20683      0.00000     0.78957    0.00360     0.79317
      C   66   -0.38229      1.99941     4.37343    0.00944     6.38229
      H   67    0.19860      0.00000     0.79890    0.00249     0.80140
      H   68    0.20471      0.00000     0.79345    0.00184     0.79529
      C   69   -0.38516      1.99942     4.37554    0.01020     6.38516
      H   70    0.20366      0.00000     0.79394    0.00240     0.79634
      H   71    0.19490      0.00000     0.80237    0.00273     0.80510
      C   72   -0.38831      1.99942     4.37922    0.00967     6.38831
      H   73    0.21439      0.00000     0.78421    0.00140     0.78561
      H   74    0.18510      0.00000     0.81293    0.00197     0.81490
      H   75    0.21430      0.00000     0.78427    0.00143     0.78570
      H   76    0.18505      0.00000     0.81283    0.00211     0.81495
      H   77    0.21201      0.00000     0.78659    0.00140     0.78799
      H   78    0.19527      0.00000     0.80302    0.00171     0.80473
      C   79   -0.47215      1.99940     4.45743    0.01532     6.47215
      H   80    0.22184      0.00000     0.77559    0.00257     0.77816
      C   81   -0.46242      1.99940     4.44692    0.01610     6.46242
      H   82    0.22666      0.00000     0.77114    0.00220     0.77334
      P   83    1.09388      9.99672     3.86100    0.04840    13.90612
      C   84   -0.59450      1.99940     4.58800    0.00710     6.59450
      H   85    0.22233      0.00000     0.77607    0.00159     0.77767
      H   86    0.21203      0.00000     0.78652    0.00145     0.78797
      H   87    0.20522      0.00000     0.79313    0.00165     0.79478
      C   88   -0.60283      1.99941     4.59437    0.00905     6.60283
      H   89    0.20502      0.00000     0.79324    0.00174     0.79498
      H   90    0.22537      0.00000     0.77305    0.00159     0.77463
      H   91    0.20711      0.00000     0.79130    0.00159     0.79289
      C   92   -0.59103      1.99941     4.58304    0.00857     6.59103
      H   93    0.20963      0.00000     0.78890    0.00147     0.79037
      H   94    0.21214      0.00000     0.78608    0.00178     0.78786
      H   95    0.22292      0.00000     0.77554    0.00154     0.77708
      C   96   -0.59497      1.99941     4.58823    0.00734     6.59497
      H   97    0.22630      0.00000     0.77217    0.00153     0.77370
      H   98    0.20930      0.00000     0.78895    0.00176     0.79070
      H   99    0.20411      0.00000     0.79436    0.00153     0.79589
      C  100   -0.02026      1.99927     4.00186    0.01914     6.02026
      C  101   -0.40297      1.99937     4.39326    0.01035     6.40297
      C  102   -0.40184      1.99936     4.39224    0.01024     6.40184
      H  103    0.19265      0.00000     0.80403    0.00332     0.80735
      C  104   -0.38540      1.99942     4.37589    0.01009     6.38540
      H  105    0.20318      0.00000     0.79475    0.00207     0.79682
      H  106    0.21212      0.00000     0.78561    0.00227     0.78788
      C  107   -0.38395      1.99941     4.37504    0.00950     6.38395
      H  108    0.19542      0.00000     0.80240    0.00217     0.80458
      H  109    0.20852      0.00000     0.78889    0.00259     0.79148
      C  110   -0.38742      1.99942     4.37844    0.00956     6.38742
      H  111    0.21212      0.00000     0.78640    0.00148     0.78788
      H  112    0.18177      0.00000     0.81575    0.00247     0.81823
      H  113    0.21545      0.00000     0.78316    0.00139     0.78455
      H  114    0.19057      0.00000     0.80764    0.00178     0.80943
      H  115    0.21332      0.00000     0.78529    0.00139     0.78668
      H  116    0.19403      0.00000     0.80423    0.00174     0.80597
 =======================================================================
   * Total *    1.00000    141.95056   263.14644    0.90300   406.00000

 Normal termination of Gaussian 16 at Mon Jan 20 20:01:31 2025.
