 Gaussian 16, Revision B.01,
 Gaussian 16:  ES64L-G16RevB.01 20-Dec-2017

 ------------------------------------------
 # nmr=giao b3lyp/genecp pop=nbo scfcyc=200
 ------------------------------------------

 ---------
 DS-50_SPE
 ---------
 Symbolic Z-matrix:
 Charge =  1 Multiplicity = 1

                         Standard orientation:
 ---------------------------------------------------------------------
 Center     Atomic      Atomic             Coordinates (Angstroms)
 Number     Number       Type             X           Y           Z
 ---------------------------------------------------------------------
      1         15           0        1.452691    0.209722   -0.201179
      2         15           0       -1.236728   -0.220542   -0.384569
      3          6           0       -0.008170    1.101880   -1.131049
      4          6           0        5.423049    1.531538   -0.457919
      5          6           0        3.828496    3.630215    1.183511
      6          6           0        3.215774   -2.073545   -3.603459
      7          6           0        4.410545   -2.291264   -0.739529
      8          6           0       -3.728564   -2.931206   -2.251159
      9          6           0       -1.367815   -2.427992   -4.202109
     10          1           0        6.215678    2.265799   -0.623799
     11          1           0        5.689320    0.951558    0.427831
     12          1           0        5.411360    0.860848   -1.318669
     13          1           0        4.577935    4.402437    0.992721
     14          1           0        2.865345    4.124824    1.318201
     15          1           0        4.095017    3.134006    2.119111
     16          1           0        3.728956   -2.982725   -3.926489
     17          1           0        2.302564   -1.983037   -4.195129
     18          1           0        3.861123   -1.225635   -3.841549
     19          1           0        4.892306   -3.252983   -0.934909
     20          1           0        5.128404   -1.507413   -0.983659
     21          1           0        4.207805   -2.240284    0.332191
     22          1           0       -4.346755   -2.511997   -1.454949
     23          1           0       -4.397884   -3.271207   -3.045419
     24          1           0       -3.212413   -3.807805   -1.853889
     25          1           0       -1.952095   -2.763593   -5.062779
     26          1           0       -0.634196   -1.706461   -4.567539
     27          1           0       -0.834684   -3.295372   -3.808779
     28         45           0        0.177843   -0.968670    1.311281
     29          6           0       -1.354797   -1.477992    2.982301
     30          6           0       -1.064635   -2.623152    2.282701
     31          6           0        1.746674   -1.884888    2.712651
     32          6           0        1.451242   -0.610488    3.146141
     33          6           0       -0.782467   -1.095511    4.333151
     34          1           0       -2.230547   -0.922534    2.671571
     35          1           0       -1.742834   -2.902673    1.482191
     36          6           0       -0.078073   -3.694800    2.674961
     37          6           0        1.226366   -3.174218    3.320681
     38          1           0        2.617134   -1.989596    2.074681
     39          6           0        0.496022   -0.232190    4.250911
     40          1           0        2.122251    0.184413    2.838141
     41          1           0       -1.539778   -0.533923    4.883071
     42          1           0       -0.595856   -1.995341    4.918371
     43          1           0       -0.563682   -4.408591    3.351991
     44          1           0        0.168908   -4.263520    1.776281
     45          1           0        1.092236   -3.045149    4.394391
     46          1           0        1.992657   -3.942897    3.207661
     47          1           0        0.212080    0.811500    4.100971
     48          1           0        1.021472   -0.262929    5.213861
     49          6           0       -3.353379   -0.129335   -3.579609
     50          1           0       -4.053699    0.293574   -2.859199
     51          1           0       -2.617470    0.636336   -3.830229
     52          1           0       -3.912648   -0.376856   -4.485689
     53          6           0        1.630587   -3.523728   -1.341189
     54          1           0        1.374957   -3.504238   -0.279889
     55          1           0        0.704246   -3.423309   -1.907719
     56          1           0        2.066168   -4.500157   -1.567809
     57          6           0        3.208456    3.200815   -1.847439
     58          1           0        3.127048    2.462544   -2.648589
     59          1           0        2.247806    3.705883   -1.732729
     60          1           0        3.938615    3.948846   -2.167359
     61         14           0        2.841384   -2.151856   -1.766559
     62         14           0        3.776758    2.409045   -0.239069
     63         14           0       -2.506756   -1.666394   -2.915049
     64          6           0       -5.085428   -0.434188    1.095561
     65          1           0       -5.421667   -0.939558    0.188081
     66          1           0       -4.555727   -1.163197    1.712801
     67          1           0       -5.976849   -0.124619    1.647281
     68          6           0       -4.902402    2.253522   -0.462159
     69          1           0       -5.262321    1.754022   -1.363119
     70          1           0       -5.767413    2.693311    0.041181
     71          1           0       -4.240003    3.066603   -0.763769
     72          6           0       -3.447072    1.940535    2.253521
     73          1           0       -2.873431    1.286305    2.911921
     74          1           0       -2.829543    2.807205    2.014941
     75          1           0       -4.317152    2.292213    2.814451
     76         14           0       -4.023960    1.066534    0.693171
     77          8           0       -2.657679    0.493926   -0.179889
     78          8           0       -1.471387   -1.257602   -1.593159
     79          8           0        2.079612   -0.637167   -1.437809
     80          8           0        2.620899    1.217524    0.246061
     81          7           0        0.033120    1.070310   -2.565019
     82          1           0        0.562889    1.845331   -2.948139
     83          1           0        0.434651    0.205290   -2.904169
     84          6           0       -0.342522    2.487249   -0.609759
     85          6           0       -1.002194    3.397758   -1.446599
     86          6           0       -0.052433    2.892060    0.699281
     87          6           0       -1.327606    4.674248   -1.001279
     88          1           0       -1.270323    3.102438   -2.451209
     89          6           0       -0.385665    4.166549    1.145091
     90          1           0        0.443058    2.217470    1.383831
     91          6           0       -1.018226    5.067698    0.295901
     92          1           0       -1.827087    5.361477   -1.673069
     93          1           0       -0.142895    4.457040    2.160001
     94          1           0       -1.267328    6.063158    0.641111
 ---------------------------------------------------------------------

 SCF Done:  E(RB3LYP) =  -3369.82181943     A.U. after   17 cycles

      1  P    Isotropic =   163.9843   Anisotropy =   187.2049

      2  P    Isotropic =   173.2091   Anisotropy =   185.7641

      3  C    Isotropic =    54.4150   Anisotropy =    94.3433

      4  C    Isotropic =   180.9489   Anisotropy =    13.3034

      5  C    Isotropic =   183.2561   Anisotropy =    13.2145

      6  C    Isotropic =   182.7545   Anisotropy =    14.0968

      7  C    Isotropic =   181.3146   Anisotropy =    11.8022

      8  C    Isotropic =   181.5722   Anisotropy =    14.1984

      9  C    Isotropic =   181.7252   Anisotropy =    12.7716

     10  H    Isotropic =    31.7972   Anisotropy =    12.0334

     11  H    Isotropic =    31.5785   Anisotropy =     6.6375

     12  H    Isotropic =    31.7012   Anisotropy =     7.3281

     13  H    Isotropic =    32.0449   Anisotropy =    12.2523

     14  H    Isotropic =    31.7493   Anisotropy =     9.3134

     15  H    Isotropic =    31.6035   Anisotropy =     7.4905

     16  H    Isotropic =    31.5991   Anisotropy =    11.6246

     17  H    Isotropic =    31.3985   Anisotropy =     8.2086

     18  H    Isotropic =    31.4128   Anisotropy =     8.3764

     19  H    Isotropic =    31.5925   Anisotropy =    11.4308

     20  H    Isotropic =    31.3408   Anisotropy =     9.1561

     21  H    Isotropic =    31.7445   Anisotropy =     6.7492

     22  H    Isotropic =    31.6537   Anisotropy =     8.1544

     23  H    Isotropic =    31.6641   Anisotropy =    11.9856

     24  H    Isotropic =    31.4438   Anisotropy =     7.2791

     25  H    Isotropic =    31.5978   Anisotropy =    11.9557

     26  H    Isotropic =    31.4357   Anisotropy =     6.1471

     27  H    Isotropic =    31.3446   Anisotropy =     7.4175

     28  Rh   Isotropic =  -291.8261   Anisotropy =   322.0760

     29  C    Isotropic =    72.9678   Anisotropy =   129.7456

     30  C    Isotropic =    73.7160   Anisotropy =   122.7459

     31  C    Isotropic =    82.8612   Anisotropy =   115.2380

     32  C    Isotropic =    72.3576   Anisotropy =   124.7105

     33  C    Isotropic =   154.0818   Anisotropy =    24.2634

     34  H    Isotropic =    26.8659   Anisotropy =     6.7036

     35  H    Isotropic =    26.2287   Anisotropy =     4.3255

     36  C    Isotropic =   147.8088   Anisotropy =    27.0583

     37  C    Isotropic =   154.1732   Anisotropy =    23.6519

     38  H    Isotropic =    27.0971   Anisotropy =     6.7399

     39  C    Isotropic =   147.2014   Anisotropy =    28.2541

     40  H    Isotropic =    25.9986   Anisotropy =     4.0820

     41  H    Isotropic =    29.8966   Anisotropy =    10.4288

     42  H    Isotropic =    29.7217   Anisotropy =     9.5620

     43  H    Isotropic =    29.1418   Anisotropy =    12.6115

     44  H    Isotropic =    29.2055   Anisotropy =     7.1486

     45  H    Isotropic =    29.7253   Anisotropy =     9.7917

     46  H    Isotropic =    29.8274   Anisotropy =    11.0289

     47  H    Isotropic =    29.1003   Anisotropy =     6.9405

     48  H    Isotropic =    29.0596   Anisotropy =    12.5319

     49  C    Isotropic =   182.2209   Anisotropy =    11.7393

     50  H    Isotropic =    31.5595   Anisotropy =     8.7831

     51  H    Isotropic =    30.7657   Anisotropy =     6.4808

     52  H    Isotropic =    31.7078   Anisotropy =    12.1766

     53  C    Isotropic =   180.5179   Anisotropy =     9.1653

     54  H    Isotropic =    30.7988   Anisotropy =    10.4301

     55  H    Isotropic =    31.1156   Anisotropy =     9.6328

     56  H    Isotropic =    31.5192   Anisotropy =    11.2180

     57  C    Isotropic =   183.1355   Anisotropy =     9.5435

     58  H    Isotropic =    32.1640   Anisotropy =     5.2963

     59  H    Isotropic =    32.7735   Anisotropy =    10.5388

     60  H    Isotropic =    32.0864   Anisotropy =    12.6797

     61  Si   Isotropic =   311.2028   Anisotropy =    30.8275

     62  Si   Isotropic =   311.8439   Anisotropy =    32.0494

     63  Si   Isotropic =   311.1159   Anisotropy =    32.9239

     64  C    Isotropic =   181.6171   Anisotropy =    13.7858

     65  H    Isotropic =    31.6054   Anisotropy =     8.0580

     66  H    Isotropic =    31.9721   Anisotropy =     6.7472

     67  H    Isotropic =    31.8680   Anisotropy =    11.9218

     68  C    Isotropic =   182.3227   Anisotropy =    12.8936

     69  H    Isotropic =    31.7536   Anisotropy =     7.8531

     70  H    Isotropic =    32.1769   Anisotropy =    11.9000

     71  H    Isotropic =    32.1107   Anisotropy =     8.9774

     72  C    Isotropic =   182.8510   Anisotropy =     8.7982

     73  H    Isotropic =    32.0790   Anisotropy =     8.2388

     74  H    Isotropic =    32.3894   Anisotropy =    11.7847

     75  H    Isotropic =    32.2288   Anisotropy =    11.8737

     76  Si   Isotropic =   313.7969   Anisotropy =    31.8549

     77  O    Isotropic =   195.2237   Anisotropy =   101.8846

     78  O    Isotropic =   187.6522   Anisotropy =   116.5077

     79  O    Isotropic =   179.0627   Anisotropy =   130.1493

     80  O    Isotropic =   201.5474   Anisotropy =    88.9383

     81  N    Isotropic =   202.8969   Anisotropy =    47.4609

     82  H    Isotropic =    30.4500   Anisotropy =    13.0319

     83  H    Isotropic =    28.9667   Anisotropy =     8.3397

     84  C    Isotropic =    41.4801   Anisotropy =   183.5832

     85  C    Isotropic =    52.8678   Anisotropy =   187.5450

     86  C    Isotropic =    50.7493   Anisotropy =   181.6554

     87  C    Isotropic =    47.9868   Anisotropy =   191.9829

     88  H    Isotropic =    23.9577   Anisotropy =    10.4398

     89  C    Isotropic =    50.8275   Anisotropy =   188.5883

     90  H    Isotropic =    23.6138   Anisotropy =     7.2373

     91  C    Isotropic =    48.8351   Anisotropy =   191.7867

     92  H    Isotropic =    24.0657   Anisotropy =     5.0279

     93  H    Isotropic =    24.1968   Anisotropy =     6.2067

     94  H    Isotropic =    24.1444   Anisotropy =     3.3991

 The electronic state is 1-A.
 Alpha  occ. eigenvalues --  -77.29592 -77.29272 -66.25569 -66.25497 -66.25379
 Alpha  occ. eigenvalues --  -66.24992 -19.23818 -19.23690 -19.23514 -19.23201
 Alpha  occ. eigenvalues --  -14.40951 -10.33071 -10.29197 -10.29176 -10.29128
 Alpha  occ. eigenvalues --  -10.28881 -10.28708 -10.27684 -10.27627 -10.27537
 Alpha  occ. eigenvalues --  -10.27397 -10.27090 -10.26803 -10.26739 -10.26625
 Alpha  occ. eigenvalues --  -10.26540 -10.24263 -10.24109 -10.24064 -10.24036
 Alpha  occ. eigenvalues --  -10.23999 -10.23833 -10.23812 -10.23742 -10.23587
 Alpha  occ. eigenvalues --  -10.23544 -10.23452 -10.23178  -6.74401  -6.74188
 Alpha  occ. eigenvalues --   -5.39094  -5.38965  -5.38882  -5.38498  -4.90872
 Alpha  occ. eigenvalues --   -4.90664  -4.90661  -4.90429  -4.90267  -4.90049
 Alpha  occ. eigenvalues --   -3.75260  -3.75153  -3.75062  -3.74845  -3.74838
 Alpha  occ. eigenvalues --   -3.74713  -3.74697  -3.74671  -3.74632  -3.74616
 Alpha  occ. eigenvalues --   -3.74251  -3.74235  -3.31611  -2.08612  -2.07768
 Alpha  occ. eigenvalues --   -2.05054  -1.13503  -1.13182  -1.09156  -1.08818
 Alpha  occ. eigenvalues --   -1.00767  -0.95168  -0.94556  -0.89321  -0.88126
 Alpha  occ. eigenvalues --   -0.86234  -0.84264  -0.81877  -0.81283  -0.80852
 Alpha  occ. eigenvalues --   -0.80566  -0.80444  -0.79141  -0.77983  -0.77668
 Alpha  occ. eigenvalues --   -0.77518  -0.77372  -0.77357  -0.77078  -0.77055
 Alpha  occ. eigenvalues --   -0.77021  -0.76729  -0.73344  -0.72352  -0.70715
 Alpha  occ. eigenvalues --   -0.70220  -0.67440  -0.65962  -0.65046  -0.64339
 Alpha  occ. eigenvalues --   -0.62671  -0.62424  -0.60598  -0.60011  -0.58601
 Alpha  occ. eigenvalues --   -0.57332  -0.56496  -0.56217  -0.55495  -0.54437
 Alpha  occ. eigenvalues --   -0.53867  -0.53818  -0.53477  -0.53200  -0.52838
 Alpha  occ. eigenvalues --   -0.52720  -0.52489  -0.52315  -0.52069  -0.51642
 Alpha  occ. eigenvalues --   -0.51451  -0.51204  -0.50866  -0.50532  -0.50527
 Alpha  occ. eigenvalues --   -0.50361  -0.50307  -0.50114  -0.49923  -0.49877
 Alpha  occ. eigenvalues --   -0.49351  -0.49225  -0.49025  -0.48721  -0.48543
 Alpha  occ. eigenvalues --   -0.48525  -0.48380  -0.48227  -0.48187  -0.48031
 Alpha  occ. eigenvalues --   -0.48001  -0.47897  -0.47720  -0.47646  -0.47550
 Alpha  occ. eigenvalues --   -0.47470  -0.46903  -0.46808  -0.46471  -0.46165
 Alpha  occ. eigenvalues --   -0.46119  -0.45997  -0.45425  -0.44925  -0.44753
 Alpha  occ. eigenvalues --   -0.44335  -0.44116  -0.43909  -0.43422  -0.43189
 Alpha  occ. eigenvalues --   -0.41819  -0.41277  -0.39762  -0.39683  -0.39403
 Alpha  occ. eigenvalues --   -0.39359  -0.39236  -0.38771  -0.38652  -0.38553
 Alpha  occ. eigenvalues --   -0.37352  -0.36560  -0.35293  -0.35139  -0.34946
 Alpha  occ. eigenvalues --   -0.34816  -0.33683  -0.32203  -0.30577
 Alpha virt. eigenvalues --   -0.16405  -0.13733  -0.11183  -0.10851  -0.09678
 Alpha virt. eigenvalues --   -0.09109  -0.07578  -0.07101  -0.06985  -0.06400
 Alpha virt. eigenvalues --   -0.05870  -0.04947  -0.04801  -0.04624  -0.04069

 Mulliken charges:
               1
     1  P    0.716824
     2  P    0.736159
     3  C   -0.304783
     4  C   -0.538146
     5  C   -0.541362
     6  C   -0.510830
     7  C   -0.558658
     8  C   -0.535774
     9  C   -0.548633
    10  H    0.149633
    11  H    0.143982
    12  H    0.130249
    13  H    0.144336
    14  H    0.148377
    15  H    0.138376
    16  H    0.144397
    17  H    0.138567
    18  H    0.143581
    19  H    0.150955
    20  H    0.145125
    21  H    0.130457
    22  H    0.128217
    23  H    0.146222
    24  H    0.139337
    25  H    0.150303
    26  H    0.128875
    27  H    0.141221
    28  Rh  -0.544340
    29  C   -0.036655
    30  C   -0.062883
    31  C   -0.045710
    32  C   -0.073228
    33  C   -0.362333
    34  H    0.155298
    35  H    0.178229
    36  C   -0.234842
    37  C   -0.360304
    38  H    0.172339
    39  C   -0.230672
    40  H    0.197095
    41  H    0.171231
    42  H    0.171434
    43  H    0.174305
    44  H    0.143739
    45  H    0.166182
    46  H    0.167367
    47  H    0.130915
    48  H    0.173076
    49  C   -0.535456
    50  H    0.117400
    51  H    0.155059
    52  H    0.145590
    53  C   -0.526947
    54  H    0.119920
    55  H    0.134477
    56  H    0.155327
    57  C   -0.594488
    58  H    0.132194
    59  H    0.160504
    60  H    0.153574
    61  Si   0.734422
    62  Si   0.790907
    63  Si   0.758153
    64  C   -0.581454
    65  H    0.141426
    66  H    0.146383
    67  H    0.149589
    68  C   -0.494256
    69  H    0.145383
    70  H    0.145776
    71  H    0.155166
    72  C   -0.582127
    73  H    0.130313
    74  H    0.161473
    75  H    0.152345
    76  Si   0.744608
    77  O   -0.456680
    78  O   -0.481289
    79  O   -0.499746
    80  O   -0.475145
    81  N   -0.369874
    82  H    0.221565
    83  H    0.227578
    84  C   -0.157508
    85  C   -0.087954
    86  C   -0.076765
    87  C   -0.112780
    88  H    0.145347
    89  C   -0.172956
    90  H    0.154237
    91  C   -0.063289
    92  H    0.127915
    93  H    0.121732
    94  H    0.133104
 Sum of Mulliken charges =   1.00000

 Dipole moment (field-independent basis, Debye):
    X=              0.6024    Y=             -0.6066    Z=              1.0073  Tot=              1.3212
 Quadrupole moment (field-independent basis, Debye-Ang):
   XX=           -243.8631   YY=           -252.2993   ZZ=           -254.5341
   XY=             -1.4716   XZ=             -2.9329   YZ=             -0.5208

 Summary of Natural Population Analysis:

                                       Natural Population
                Natural  -----------------------------------------------
    Atom  No    Charge         Core      Valence    Rydberg      Total
 -----------------------------------------------------------------------
      P    1    1.72891      9.99594     3.17975    0.09540    13.27109
      P    2    1.76380      9.99607     3.14468    0.09545    13.23620
      C    3   -0.41460      1.99930     4.38177    0.03353     6.41460
      C    4   -1.11029      1.99944     5.10267    0.00818     7.11029
      C    5   -1.10803      1.99943     5.10063    0.00797     7.10803
      C    6   -1.10684      1.99943     5.09930    0.00810     7.10684
      C    7   -1.10983      1.99943     5.10193    0.00847     7.10983
      C    8   -1.11022      1.99944     5.10252    0.00826     7.11022
      C    9   -1.10652      1.99944     5.09877    0.00831     7.10652
      H   10    0.24369      0.00000     0.75547    0.00085     0.75631
      H   11    0.24004      0.00000     0.75904    0.00091     0.75996
      H   12    0.23220      0.00000     0.76672    0.00108     0.76780
      H   13    0.24228      0.00000     0.75690    0.00083     0.75772
      H   14    0.24084      0.00000     0.75805    0.00111     0.75916
      H   15    0.23826      0.00000     0.76087    0.00087     0.76174
      H   16    0.24340      0.00000     0.75577    0.00084     0.75660
      H   17    0.23627      0.00000     0.76261    0.00112     0.76373
      H   18    0.23966      0.00000     0.75942    0.00092     0.76034
      H   19    0.24433      0.00000     0.75482    0.00085     0.75567
      H   20    0.24031      0.00000     0.75862    0.00107     0.75969
      H   21    0.22903      0.00000     0.76988    0.00108     0.77097
      H   22    0.23242      0.00000     0.76644    0.00114     0.76758
      H   23    0.24217      0.00000     0.75699    0.00084     0.75783
      H   24    0.23731      0.00000     0.76178    0.00091     0.76269
      H   25    0.24348      0.00000     0.75569    0.00084     0.75652
      H   26    0.23095      0.00000     0.76781    0.00124     0.76905
      H   27    0.23410      0.00000     0.76479    0.00111     0.76590
     Rh   28   -0.52800     35.98513     9.51473    0.02813    45.52800
      C   29   -0.16927      1.99907     4.14905    0.02115     6.16927
      C   30   -0.17138      1.99909     4.15132    0.02097     6.17138
      C   31   -0.19791      1.99908     4.17785    0.02098     6.19791
      C   32   -0.15156      1.99908     4.13162    0.02085     6.15156
      C   33   -0.42666      1.99936     4.41520    0.01211     6.42666
      H   34    0.22136      0.00000     0.77621    0.00243     0.77864
      H   35    0.23104      0.00000     0.76694    0.00202     0.76896
      C   36   -0.42211      1.99936     4.41042    0.01233     6.42211
      C   37   -0.42263      1.99936     4.41143    0.01183     6.42263
      H   38    0.22295      0.00000     0.77461    0.00244     0.77705
      C   39   -0.41922      1.99935     4.40700    0.01287     6.41922
      H   40    0.23348      0.00000     0.76438    0.00214     0.76652
      H   41    0.22812      0.00000     0.77037    0.00151     0.77188
      H   42    0.21610      0.00000     0.78189    0.00201     0.78390
      H   43    0.23527      0.00000     0.76286    0.00187     0.76473
      H   44    0.21962      0.00000     0.77888    0.00150     0.78038
      H   45    0.21480      0.00000     0.78320    0.00200     0.78520
      H   46    0.22839      0.00000     0.77011    0.00150     0.77161
      H   47    0.21634      0.00000     0.78199    0.00167     0.78366
      H   48    0.23409      0.00000     0.76395    0.00195     0.76591
      C   49   -1.11603      1.99943     5.10791    0.00870     7.11603
      H   50    0.23406      0.00000     0.76476    0.00118     0.76594
      H   51    0.24948      0.00000     0.74931    0.00121     0.75052
      H   52    0.24052      0.00000     0.75858    0.00089     0.75948
      C   53   -1.10440      1.99943     5.09610    0.00886     7.10440
      H   54    0.23421      0.00000     0.76435    0.00144     0.76579
      H   55    0.24022      0.00000     0.75856    0.00122     0.75978
      H   56    0.24196      0.00000     0.75714    0.00090     0.75804
      C   57   -1.12114      1.99943     5.11271    0.00899     7.12114
      H   58    0.23222      0.00000     0.76652    0.00126     0.76778
      H   59    0.24163      0.00000     0.75728    0.00109     0.75837
      H   60    0.24704      0.00000     0.75209    0.00086     0.75296
     Si   61    1.86248      9.99786     2.10602    0.03364    12.13752
     Si   62    1.86383      9.99792     2.10531    0.03293    12.13617
     Si   63    1.86537      9.99794     2.10311    0.03357    12.13463
      C   64   -1.11050      1.99943     5.10281    0.00826     7.11050
      H   65    0.23628      0.00000     0.76261    0.00111     0.76372
      H   66    0.23080      0.00000     0.76815    0.00105     0.76920
      H   67    0.24408      0.00000     0.75508    0.00084     0.75592
      C   68   -1.10747      1.99943     5.10001    0.00804     7.10747
      H   69    0.23659      0.00000     0.76231    0.00110     0.76341
      H   70    0.24132      0.00000     0.75783    0.00085     0.75868
      H   71    0.24438      0.00000     0.75449    0.00113     0.75562
      C   72   -1.11059      1.99942     5.10263    0.00853     7.11059
      H   73    0.22630      0.00000     0.77247    0.00123     0.77370
      H   74    0.24693      0.00000     0.75189    0.00117     0.75307
      H   75    0.24244      0.00000     0.75670    0.00086     0.75756
     Si   76    1.87113      9.99786     2.09895    0.03207    12.12887
      O   77   -1.14554      1.99975     7.13610    0.00969     9.14554
      O   78   -1.13643      1.99978     7.12583    0.01082     9.13643
      O   79   -1.14512      1.99978     7.13405    0.01129     9.14512
      O   80   -1.13730      1.99977     7.12773    0.00980     9.13730
      N   81   -0.81829      1.99955     5.79854    0.02020     7.81829
      H   82    0.37013      0.00000     0.62635    0.00352     0.62987
      H   83    0.38143      0.00000     0.61610    0.00247     0.61857
      C   84   -0.06901      1.99901     4.04655    0.02345     6.06901
      C   85   -0.20717      1.99910     4.19213    0.01594     6.20717
      C   86   -0.20925      1.99909     4.19466    0.01550     6.20925
      C   87   -0.19465      1.99920     4.18050    0.01495     6.19465
      H   88    0.22554      0.00000     0.77225    0.00222     0.77446
      C   89   -0.20470      1.99920     4.18994    0.01557     6.20470
      H   90    0.21799      0.00000     0.77934    0.00267     0.78201
      C   91   -0.19864      1.99919     4.18445    0.01499     6.19864
      H   92    0.21994      0.00000     0.77882    0.00124     0.78006
      H   93    0.21727      0.00000     0.78141    0.00132     0.78273
      H   94    0.22071      0.00000     0.77812    0.00117     0.77929
 =======================================================================
   * Total *    1.00000    159.94836   225.19628    0.85535   386.00000

 Normal termination of Gaussian 16 at Mon Jan 20 15:47:30 2025.
