 Gaussian 16, Revision B.01,
 Gaussian 16:  ES64L-G16RevB.01 20-Dec-2017

 ------------------------------------------
 # nmr=giao b3lyp/genecp pop=nbo scfcyc=200
 ------------------------------------------

 ---------
 DS-54_SPE
 ---------
 Symbolic Z-matrix:
 Charge =  1 Multiplicity = 1

                         Standard orientation:
 ---------------------------------------------------------------------
 Center     Atomic      Atomic             Coordinates (Angstroms)
 Number     Number       Type             X           Y           Z
 ---------------------------------------------------------------------
      1         15           0        1.434110    0.142941    0.073630
      2         15           0       -1.312300    0.021191    0.178330
      3          6           0        0.112580   -1.204739   -0.418230
      4          6           0        5.554430    0.163250   -1.039790
      5          6           0        3.803080   -0.340840   -3.542460
      6          6           0        4.285599   -1.623630    2.722020
      7          6           0        3.922720    1.469480    2.633860
      8          6           0       -3.883420    1.237991    2.554220
      9          6           0       -1.852610   -0.052449    4.480430
     10          1           0        6.439530   -0.222950   -1.551950
     11          1           0        5.522580    1.242130   -1.206680
     12          1           0        5.691750   -0.012180    0.028530
     13          1           0        4.639610   -0.773030   -4.097770
     14          1           0        2.881060   -0.777900   -3.927730
     15          1           0        3.786300    0.731170   -3.750090
     16          1           0        4.934489   -1.605850    3.601470
     17          1           0        3.766519   -2.584090    2.712130
     18          1           0        4.925819   -1.574860    1.839980
     19          1           0        4.687090    1.568550    3.408930
     20          1           0        4.417730    1.588590    1.668320
     21          1           0        3.217940    2.292930    2.766090
     22          1           0       -4.276970    1.252661    1.537290
     23          1           0       -4.738990    1.251152    3.234670
     24          1           0       -3.323280    2.157881    2.727980
     25          1           0       -2.530690    0.115101    5.321490
     26          1           0       -1.236840   -0.920209    4.718870
     27          1           0       -1.198140    0.817581    4.402770
     28         45           0        0.006640    1.951421    0.062430
     29          6           0       -1.501540    3.520571   -0.756460
     30          6           0       -1.456280    3.621991    0.611690
     31          6           0        1.455910    3.717381    0.265480
     32          6           0        1.410600    3.333201   -1.057120
     33          6           0       -0.808060    4.448191   -1.734990
     34          1           0       -2.275160    2.889731   -1.176360
     35          1           0       -2.220160    3.091361    1.167530
     36          6           0       -0.653080    4.605361    1.425840
     37          6           0        0.750340    4.920281    0.862390
     38          1           0        2.255070    3.298971    0.866600
     39          6           0        0.601640    3.978241   -2.155140
     40          1           0        2.187860    2.662771   -1.406190
     41          1           0       -1.425860    4.528161   -2.631200
     42          1           0       -0.762139    5.451861   -1.313330
     43          1           0       -1.220269    5.537031    1.544520
     44          1           0       -0.548040    4.193481    2.432240
     45          1           0        0.691071    5.717051    0.121210
     46          1           0        1.364300    5.314041    1.674170
     47          1           0        0.511550    3.255941   -2.969020
     48          1           0        1.161630    4.825321   -2.571200
     49          6           0       -3.937591   -1.820579    3.003680
     50          1           0       -4.517971   -1.963118    2.090540
     51          1           0       -3.357071   -2.726209    3.183420
     52          1           0       -4.644541   -1.710698    3.830360
     53          6           0        2.029880   -0.274819    4.358300
     54          1           0        1.307280    0.541461    4.398620
     55          1           0        1.483930   -1.216899    4.426710
     56          1           0        2.673390   -0.195610    5.238260
     57          6           0        3.970329   -2.507330   -1.306230
     58          1           0        3.999269   -2.689370   -0.231010
     59          1           0        3.074789   -2.982200   -1.708460
     60          1           0        4.838989   -2.999600   -1.751650
     61         14           0        3.063780   -0.198220    2.796070
     62         14           0        4.008180   -0.673220   -1.708310
     63         14           0       -2.846780   -0.294779    2.907730
     64          6           0       -5.505730   -0.357388   -0.869310
     65          1           0       -5.541950   -1.186028   -0.159560
     66          1           0       -5.656930    0.573202   -0.319110
     67          1           0       -6.351170   -0.474458   -1.552490
     68          6           0       -3.677991   -1.955479   -2.790470
     69          1           0       -3.741851   -2.818269   -2.125770
     70          1           0       -4.472591   -2.051678   -3.535450
     71          1           0       -2.722021   -1.993209   -3.313310
     72          6           0       -3.823230    1.143611   -2.988460
     73          1           0       -4.024750    2.074561   -2.454560
     74          1           0       -2.854360    1.225571   -3.483280
     75          1           0       -4.583750    1.046252   -3.767740
     76         14           0       -3.900240   -0.350529   -1.847500
     77          8           0       -2.636610   -0.212159   -0.695670
     78          8           0       -1.709340   -0.560299    1.634430
     79          8           0        1.981920   -0.405949    1.479100
     80          8           0        2.679080    0.113670   -0.937020
     81          6           0        0.070279   -1.372159   -1.938030
     82          6           0        0.246249   -2.638769   -2.499730
     83          6           0       -0.113280   -0.289659   -2.810520
     84          1           0        0.413179   -3.487559   -1.855730
     85          6           0       -0.133560   -0.474259   -4.187250
     86          1           0       -0.231380    0.711871   -2.413360
     87          6           0        0.030709   -1.744629   -4.731380
     88          1           0       -0.274660    0.379141   -4.839370
     89          1           0        0.013199   -1.887919   -5.804310
     90         14           0       -0.378941   -3.768409    0.940770
     91          6           0        0.687109   -5.215779    0.375950
     92          1           0        1.745199   -5.019869    0.561610
     93          1           0        0.414449   -6.114679    0.935550
     94          1           0        0.566289   -5.445359   -0.684350
     95          6           0       -2.154661   -3.990529    0.355420
     96          1           0       -2.189061   -4.162399   -0.721950
     97          1           0       -2.600311   -4.861459    0.843150
     98          1           0       -2.774721   -3.124859    0.586070
     99          6           0       -0.240331   -3.613609    2.810510
    100          1           0       -0.703071   -4.472869    3.302630
    101          1           0        0.809329   -3.586969    3.110540
    102          1           0       -0.718951   -2.707209    3.176850
    103          6           0        0.223509   -2.824559   -3.879110
    104          1           0        0.359439   -3.819479   -4.284950
    105          8           0        0.320639   -2.385299    0.242490
 ---------------------------------------------------------------------

 SCF Done:  E(RB3LYP) =  -3798.45527554     A.U. after   17 cycles

      1  P    Isotropic =   175.6768   Anisotropy =   191.0544

      2  P    Isotropic =   170.2541   Anisotropy =   181.2353

      3  C    Isotropic =    41.2348   Anisotropy =    71.0897

      4  C    Isotropic =   181.4581   Anisotropy =    13.9646

      5  C    Isotropic =   183.5399   Anisotropy =    11.5518

      6  C    Isotropic =   181.4087   Anisotropy =    11.8380

      7  C    Isotropic =   182.2827   Anisotropy =    10.5118

      8  C    Isotropic =   181.8682   Anisotropy =    10.8707

      9  C    Isotropic =   179.8808   Anisotropy =    12.2327

     10  H    Isotropic =    31.8931   Anisotropy =    12.1198

     11  H    Isotropic =    31.7122   Anisotropy =     7.0837

     12  H    Isotropic =    31.7353   Anisotropy =     7.6274

     13  H    Isotropic =    32.4066   Anisotropy =    12.2032

     14  H    Isotropic =    33.2179   Anisotropy =    13.5730

     15  H    Isotropic =    32.1652   Anisotropy =     7.0881

     16  H    Isotropic =    31.6680   Anisotropy =    11.9807

     17  H    Isotropic =    31.3112   Anisotropy =     6.9302

     18  H    Isotropic =    31.5171   Anisotropy =     7.6672

     19  H    Isotropic =    31.6178   Anisotropy =    11.8752

     20  H    Isotropic =    31.6512   Anisotropy =     7.1274

     21  H    Isotropic =    31.6102   Anisotropy =     7.4686

     22  H    Isotropic =    31.5685   Anisotropy =     8.1653

     23  H    Isotropic =    31.5986   Anisotropy =    11.5010

     24  H    Isotropic =    31.5301   Anisotropy =     7.5682

     25  H    Isotropic =    31.5870   Anisotropy =    11.3946

     26  H    Isotropic =    31.1462   Anisotropy =     7.2661

     27  H    Isotropic =    31.4253   Anisotropy =     6.9575

     28  Rh   Isotropic =  -296.2779   Anisotropy =   318.6611

     29  C    Isotropic =    72.5621   Anisotropy =   131.0373

     30  C    Isotropic =    75.6289   Anisotropy =   119.4167

     31  C    Isotropic =    82.3091   Anisotropy =   116.8747

     32  C    Isotropic =    71.0574   Anisotropy =   127.0295

     33  C    Isotropic =   153.6143   Anisotropy =    24.8510

     34  H    Isotropic =    26.5888   Anisotropy =     7.1930

     35  H    Isotropic =    26.3346   Anisotropy =     6.1582

     36  C    Isotropic =   148.9945   Anisotropy =    28.1552

     37  C    Isotropic =   154.5675   Anisotropy =    23.7359

     38  H    Isotropic =    27.1789   Anisotropy =     7.4787

     39  C    Isotropic =   147.0753   Anisotropy =    28.0063

     40  H    Isotropic =    26.1272   Anisotropy =     3.1825

     41  H    Isotropic =    29.7589   Anisotropy =    10.4663

     42  H    Isotropic =    29.6319   Anisotropy =     9.6072

     43  H    Isotropic =    29.1201   Anisotropy =    12.5387

     44  H    Isotropic =    29.2902   Anisotropy =     7.1418

     45  H    Isotropic =    29.7338   Anisotropy =     9.7976

     46  H    Isotropic =    29.8598   Anisotropy =    11.2636

     47  H    Isotropic =    29.0430   Anisotropy =     6.7436

     48  H    Isotropic =    29.0845   Anisotropy =    12.4385

     49  C    Isotropic =   180.4704   Anisotropy =    10.0544

     50  H    Isotropic =    31.5412   Anisotropy =     6.7788

     51  H    Isotropic =    31.3500   Anisotropy =     7.2953

     52  H    Isotropic =    31.7403   Anisotropy =    11.9934

     53  C    Isotropic =   180.4658   Anisotropy =    13.2780

     54  H    Isotropic =    31.4531   Anisotropy =     7.7845

     55  H    Isotropic =    31.2469   Anisotropy =     7.7034

     56  H    Isotropic =    31.6271   Anisotropy =    11.4612

     57  C    Isotropic =   182.7005   Anisotropy =     9.4931

     58  H    Isotropic =    31.7145   Anisotropy =     7.3024

     59  H    Isotropic =    31.8759   Anisotropy =     9.4976

     60  H    Isotropic =    32.0576   Anisotropy =    12.1251

     61  Si   Isotropic =   314.7410   Anisotropy =    30.9395

     62  Si   Isotropic =   310.7450   Anisotropy =    31.8411

     63  Si   Isotropic =   313.0081   Anisotropy =    34.6273

     64  C    Isotropic =   180.8316   Anisotropy =    13.9639

     65  H    Isotropic =    31.6928   Anisotropy =     7.0223

     66  H    Isotropic =    31.6544   Anisotropy =     6.8204

     67  H    Isotropic =    31.8848   Anisotropy =    11.9799

     68  C    Isotropic =   183.8331   Anisotropy =    10.5504

     69  H    Isotropic =    32.2267   Anisotropy =     6.8906

     70  H    Isotropic =    32.5155   Anisotropy =    12.3038

     71  H    Isotropic =    33.6851   Anisotropy =    14.2751

     72  C    Isotropic =   182.4476   Anisotropy =    10.5374

     73  H    Isotropic =    31.7648   Anisotropy =     6.5674

     74  H    Isotropic =    31.4819   Anisotropy =     7.1935

     75  H    Isotropic =    31.9227   Anisotropy =    11.9301

     76  Si   Isotropic =   315.0662   Anisotropy =    32.9339

     77  O    Isotropic =   201.9216   Anisotropy =    93.7027

     78  O    Isotropic =   178.9899   Anisotropy =   127.4258

     79  O    Isotropic =   183.2272   Anisotropy =   122.9269

     80  O    Isotropic =   198.6106   Anisotropy =    88.1747

     81  C    Isotropic =    38.8006   Anisotropy =   180.7393

     82  C    Isotropic =    53.7490   Anisotropy =   190.2964

     83  C    Isotropic =    51.5486   Anisotropy =   181.5219

     84  H    Isotropic =    24.1548   Anisotropy =     8.1512

     85  C    Isotropic =    51.3756   Anisotropy =   188.1935

     86  H    Isotropic =    22.3103   Anisotropy =     7.3494

     87  C    Isotropic =    49.6055   Anisotropy =   192.0101

     88  H    Isotropic =    24.2435   Anisotropy =     6.2411

     89  H    Isotropic =    24.1745   Anisotropy =     3.0967

     90  Si   Isotropic =   320.2001   Anisotropy =    38.8227

     91  C    Isotropic =   181.3553   Anisotropy =    15.2743

     92  H    Isotropic =    31.2816   Anisotropy =     6.9588

     93  H    Isotropic =    31.6178   Anisotropy =    11.4986

     94  H    Isotropic =    31.2662   Anisotropy =     8.3004

     95  C    Isotropic =   182.1987   Anisotropy =     7.5983

     96  H    Isotropic =    31.7587   Anisotropy =     6.6275

     97  H    Isotropic =    31.7676   Anisotropy =    11.0853

     98  H    Isotropic =    31.6744   Anisotropy =     8.4149

     99  C    Isotropic =   179.9328   Anisotropy =    11.3746

    100  H    Isotropic =    31.6419   Anisotropy =    10.8781

    101  H    Isotropic =    31.1816   Anisotropy =     7.0179

    102  H    Isotropic =    31.2217   Anisotropy =     9.5731

    103  C    Isotropic =    48.9233   Anisotropy =   191.2991

    104  H    Isotropic =    24.0720   Anisotropy =     5.4921

    105  O    Isotropic =   225.7495   Anisotropy =   131.5924

 The electronic state is 1-A.
 Alpha  occ. eigenvalues --  -77.29562 -77.29185 -66.25444 -66.25425 -66.25217
 Alpha  occ. eigenvalues --  -66.24934 -66.24188 -19.23405 -19.23266 -19.23160
 Alpha  occ. eigenvalues --  -19.23061 -19.21566 -10.35575 -10.28902 -10.28817
 Alpha  occ. eigenvalues --  -10.28713 -10.28490 -10.28367 -10.27460 -10.27434
 Alpha  occ. eigenvalues --  -10.27279 -10.27125 -10.26897 -10.26744 -10.26584
 Alpha  occ. eigenvalues --  -10.26524 -10.26423 -10.24337 -10.24043 -10.23925
 Alpha  occ. eigenvalues --  -10.23770 -10.23740 -10.23683 -10.23631 -10.23495
 Alpha  occ. eigenvalues --  -10.23495 -10.23282 -10.23150 -10.23076 -10.23040
 Alpha  occ. eigenvalues --  -10.22858 -10.22692  -6.74341  -6.74037  -5.38946
 Alpha  occ. eigenvalues --   -5.38858  -5.38711  -5.38424  -5.37651  -4.90816
 Alpha  occ. eigenvalues --   -4.90604  -4.90519  -4.90283  -4.90198  -4.89904
 Alpha  occ. eigenvalues --   -3.75106  -3.75051  -3.74880  -3.74714  -3.74683
 Alpha  occ. eigenvalues --   -3.74610  -3.74608  -3.74587  -3.74470  -3.74450
 Alpha  occ. eigenvalues --   -3.74170  -3.74157  -3.73802  -3.73423  -3.73407
 Alpha  occ. eigenvalues --   -3.31290  -2.08266  -2.07441  -2.04761  -1.13470
 Alpha  occ. eigenvalues --   -1.12948  -1.11195  -1.08720  -1.08644  -0.95455
 Alpha  occ. eigenvalues --   -0.94293  -0.89019  -0.87890  -0.86819  -0.84163
 Alpha  occ. eigenvalues --   -0.81928  -0.81207  -0.80734  -0.80436  -0.80303
 Alpha  occ. eigenvalues --   -0.80198  -0.78778  -0.77763  -0.77580  -0.77370
 Alpha  occ. eigenvalues --   -0.77279  -0.77197  -0.76947  -0.76832  -0.76818
 Alpha  occ. eigenvalues --   -0.76562  -0.76476  -0.76113  -0.73408  -0.72397
 Alpha  occ. eigenvalues --   -0.70458  -0.70128  -0.68173  -0.65701  -0.64884
 Alpha  occ. eigenvalues --   -0.64396  -0.63355  -0.62349  -0.61156  -0.59821
 Alpha  occ. eigenvalues --   -0.57190  -0.56976  -0.56230  -0.56053  -0.55113
 Alpha  occ. eigenvalues --   -0.54186  -0.53725  -0.53529  -0.53241  -0.53148
 Alpha  occ. eigenvalues --   -0.52672  -0.52572  -0.52216  -0.52103  -0.51934
 Alpha  occ. eigenvalues --   -0.51906  -0.51644  -0.51531  -0.51290  -0.51009
 Alpha  occ. eigenvalues --   -0.50546  -0.50391  -0.50132  -0.49991  -0.49814
 Alpha  occ. eigenvalues --   -0.49780  -0.49565  -0.49372  -0.49206  -0.48989
 Alpha  occ. eigenvalues --   -0.48632  -0.48574  -0.48505  -0.48310  -0.48187
 Alpha  occ. eigenvalues --   -0.48116  -0.48041  -0.47975  -0.47960  -0.47924
 Alpha  occ. eigenvalues --   -0.47846  -0.47565  -0.47473  -0.47395  -0.47370
 Alpha  occ. eigenvalues --   -0.47237  -0.47132  -0.46973  -0.46734  -0.46562
 Alpha  occ. eigenvalues --   -0.46304  -0.45936  -0.45832  -0.45644  -0.45556
 Alpha  occ. eigenvalues --   -0.45154  -0.44918  -0.44451  -0.43993  -0.43908
 Alpha  occ. eigenvalues --   -0.43403  -0.43321  -0.42811  -0.42190  -0.40532
 Alpha  occ. eigenvalues --   -0.40050  -0.39561  -0.39239  -0.39189  -0.39152
 Alpha  occ. eigenvalues --   -0.38835  -0.38609  -0.38585  -0.38100  -0.37574
 Alpha  occ. eigenvalues --   -0.37387  -0.35886  -0.35052  -0.34969  -0.34557
 Alpha  occ. eigenvalues --   -0.34290  -0.33409  -0.32455  -0.30177
 Alpha virt. eigenvalues --   -0.16056  -0.13569  -0.10974  -0.10609  -0.09483
 Alpha virt. eigenvalues --   -0.08611  -0.07329  -0.06976  -0.06711  -0.06651
 Alpha virt. eigenvalues --   -0.05967  -0.04688  -0.04265  -0.04193  -0.04029

 Mulliken charges:
               1
     1  P    0.758085
     2  P    0.674638
     3  C   -0.167370
     4  C   -0.549022
     5  C   -0.533868
     6  C   -0.559908
     7  C   -0.602277
     8  C   -0.588844
     9  C   -0.550120
    10  H    0.150507
    11  H    0.140923
    12  H    0.137517
    13  H    0.144021
    14  H    0.153459
    15  H    0.132374
    16  H    0.151126
    17  H    0.146450
    18  H    0.139943
    19  H    0.158411
    20  H    0.149993
    21  H    0.131987
    22  H    0.136543
    23  H    0.164098
    24  H    0.144080
    25  H    0.147119
    26  H    0.154073
    27  H    0.126542
    28  Rh  -0.626367
    29  C   -0.001777
    30  C   -0.083181
    31  C   -0.055917
    32  C   -0.088276
    33  C   -0.372643
    34  H    0.158105
    35  H    0.174096
    36  C   -0.218753
    37  C   -0.345845
    38  H    0.188338
    39  C   -0.228534
    40  H    0.212742
    41  H    0.168848
    42  H    0.168529
    43  H    0.173540
    44  H    0.126474
    45  H    0.165760
    46  H    0.168393
    47  H    0.137281
    48  H    0.172644
    49  C   -0.562409
    50  H    0.137412
    51  H    0.154784
    52  H    0.150666
    53  C   -0.517409
    54  H    0.126495
    55  H    0.139818
    56  H    0.144620
    57  C   -0.568557
    58  H    0.145782
    59  H    0.155423
    60  H    0.145888
    61  Si   0.763942
    62  Si   0.753396
    63  Si   0.781717
    64  C   -0.532265
    65  H    0.138501
    66  H    0.141708
    67  H    0.151346
    68  C   -0.555668
    69  H    0.138713
    70  H    0.143203
    71  H    0.148962
    72  C   -0.595436
    73  H    0.139035
    74  H    0.141932
    75  H    0.157141
    76  Si   0.778428
    77  O   -0.433735
    78  O   -0.489329
    79  O   -0.436425
    80  O   -0.477563
    81  C   -0.198520
    82  C   -0.026006
    83  C   -0.081989
    84  H    0.082978
    85  C   -0.160362
    86  H    0.245477
    87  C   -0.074205
    88  H    0.118241
    89  H    0.128737
    90  Si   0.783471
    91  C   -0.549716
    92  H    0.143678
    93  H    0.144819
    94  H    0.142009
    95  C   -0.588721
    96  H    0.143240
    97  H    0.146867
    98  H    0.135695
    99  C   -0.540014
   100  H    0.143155
   101  H    0.136735
   102  H    0.117148
   103  C   -0.138747
   104  H    0.127501
   105  O   -0.375522
 Sum of Mulliken charges =   1.00000

 Dipole moment (field-independent basis, Debye):
    X=             -0.4519    Y=              2.2111    Z=              0.0623  Tot=              2.2577
 Quadrupole moment (field-independent basis, Debye-Ang):
   XX=           -274.8578   YY=           -281.0315   ZZ=           -283.5946
   XY=             -0.9797   XZ=              0.6198   YZ=              0.6635

 Summary of Natural Population Analysis:

                                       Natural Population
                Natural  -----------------------------------------------
    Atom  No    Charge         Core      Valence    Rydberg      Total
 -----------------------------------------------------------------------
      P    1    1.77731      9.99583     3.13010    0.09676    13.22269
      P    2    1.72976      9.99605     3.18019    0.09400    13.27024
      C    3   -0.22698      1.99922     4.18743    0.04033     6.22698
      C    4   -1.10942      1.99944     5.10174    0.00824     7.10942
      C    5   -1.10882      1.99943     5.10133    0.00806     7.10882
      C    6   -1.10791      1.99943     5.10007    0.00841     7.10791
      C    7   -1.11424      1.99944     5.10618    0.00863     7.11424
      C    8   -1.11486      1.99943     5.10664    0.00879     7.11486
      C    9   -1.10769      1.99943     5.09990    0.00835     7.10769
      H   10    0.24306      0.00000     0.75611    0.00083     0.75694
      H   11    0.23759      0.00000     0.76149    0.00093     0.76241
      H   12    0.23053      0.00000     0.76832    0.00115     0.76947
      H   13    0.24031      0.00000     0.75887    0.00083     0.75969
      H   14    0.24499      0.00000     0.75387    0.00114     0.75501
      H   15    0.23569      0.00000     0.76339    0.00092     0.76431
      H   16    0.24218      0.00000     0.75696    0.00086     0.75782
      H   17    0.23970      0.00000     0.75930    0.00100     0.76030
      H   18    0.23231      0.00000     0.76651    0.00118     0.76769
      H   19    0.24572      0.00000     0.75340    0.00088     0.75428
      H   20    0.23682      0.00000     0.76210    0.00108     0.76318
      H   21    0.23049      0.00000     0.76843    0.00108     0.76951
      H   22    0.23509      0.00000     0.76371    0.00119     0.76491
      H   23    0.24767      0.00000     0.75143    0.00090     0.75233
      H   24    0.22833      0.00000     0.77063    0.00104     0.77167
      H   25    0.24198      0.00000     0.75715    0.00086     0.75802
      H   26    0.24012      0.00000     0.75874    0.00113     0.75988
      H   27    0.23378      0.00000     0.76518    0.00105     0.76622
     Rh   28   -0.54814     35.98492     9.53589    0.02733    45.54814
      C   29   -0.16084      1.99907     4.14143    0.02034     6.16084
      C   30   -0.18020      1.99909     4.15947    0.02164     6.18020
      C   31   -0.19416      1.99906     4.17459    0.02051     6.19416
      C   32   -0.14958      1.99907     4.12965    0.02086     6.14958
      C   33   -0.42507      1.99936     4.41357    0.01214     6.42507
      H   34    0.22668      0.00000     0.77112    0.00220     0.77332
      H   35    0.22753      0.00000     0.77032    0.00215     0.77247
      C   36   -0.42116      1.99936     4.40900    0.01281     6.42116
      C   37   -0.42196      1.99936     4.41085    0.01175     6.42196
      H   38    0.22780      0.00000     0.77009    0.00211     0.77220
      C   39   -0.41971      1.99935     4.40755    0.01281     6.41971
      H   40    0.23627      0.00000     0.76143    0.00230     0.76373
      H   41    0.22790      0.00000     0.77058    0.00152     0.77210
      H   42    0.21222      0.00000     0.78551    0.00227     0.78778
      H   43    0.23393      0.00000     0.76420    0.00187     0.76607
      H   44    0.21776      0.00000     0.78081    0.00143     0.78224
      H   45    0.21362      0.00000     0.78446    0.00192     0.78638
      H   46    0.22780      0.00000     0.77069    0.00151     0.77220
      H   47    0.21359      0.00000     0.78469    0.00172     0.78641
      H   48    0.23343      0.00000     0.76461    0.00196     0.76657
      C   49   -1.11162      1.99943     5.10374    0.00844     7.11162
      H   50    0.23520      0.00000     0.76355    0.00125     0.76480
      H   51    0.24075      0.00000     0.75829    0.00095     0.75925
      H   52    0.24271      0.00000     0.75642    0.00088     0.75729
      C   53   -1.10514      1.99943     5.09750    0.00821     7.10514
      H   54    0.23431      0.00000     0.76466    0.00103     0.76569
      H   55    0.23985      0.00000     0.75903    0.00113     0.76015
      H   56    0.24059      0.00000     0.75856    0.00085     0.75941
      C   57   -1.11589      1.99943     5.10772    0.00874     7.11589
      H   58    0.23779      0.00000     0.76113    0.00108     0.76221
      H   59    0.24211      0.00000     0.75675    0.00114     0.75789
      H   60    0.24217      0.00000     0.75695    0.00088     0.75783
     Si   61    1.86504      9.99788     2.10417    0.03291    12.13496
     Si   62    1.86606      9.99791     2.10366    0.03237    12.13394
     Si   63    1.86589      9.99790     2.10301    0.03320    12.13411
      C   64   -1.10957      1.99944     5.10198    0.00816     7.10957
      H   65    0.23510      0.00000     0.76375    0.00114     0.76490
      H   66    0.23275      0.00000     0.76618    0.00107     0.76725
      H   67    0.24367      0.00000     0.75549    0.00083     0.75633
      C   68   -1.11377      1.99942     5.10598    0.00837     7.11377
      H   69    0.23855      0.00000     0.76037    0.00108     0.76145
      H   70    0.24075      0.00000     0.75841    0.00085     0.75925
      H   71    0.24618      0.00000     0.75261    0.00121     0.75382
      C   72   -1.11253      1.99943     5.10462    0.00847     7.11253
      H   73    0.22969      0.00000     0.76928    0.00103     0.77031
      H   74    0.23543      0.00000     0.76344    0.00113     0.76457
      H   75    0.24487      0.00000     0.75428    0.00085     0.75513
     Si   76    1.88076      9.99781     2.08966    0.03178    12.11924
      O   77   -1.16128      1.99974     7.15130    0.01023     9.16128
      O   78   -1.13097      1.99978     7.12014    0.01104     9.13097
      O   79   -1.13091      1.99976     7.11950    0.01165     9.13091
      O   80   -1.14506      1.99976     7.13574    0.00956     9.14506
      C   81   -0.08522      1.99898     4.06316    0.02309     6.08522
      C   82   -0.20492      1.99909     4.18990    0.01593     6.20492
      C   83   -0.21228      1.99908     4.19730    0.01590     6.21228
      H   84    0.22082      0.00000     0.77687    0.00231     0.77918
      C   85   -0.20486      1.99920     4.18968    0.01598     6.20486
      H   86    0.21922      0.00000     0.77762    0.00315     0.78078
      C   87   -0.20368      1.99919     4.18897    0.01551     6.20368
      H   88    0.21540      0.00000     0.78318    0.00142     0.78460
      H   89    0.22141      0.00000     0.77742    0.00117     0.77859
     Si   90    1.87514      9.99772     2.09135    0.03579    12.12486
      C   91   -1.11128      1.99944     5.10283    0.00901     7.11128
      H   92    0.23778      0.00000     0.76119    0.00103     0.76222
      H   93    0.23949      0.00000     0.75961    0.00091     0.76051
      H   94    0.22945      0.00000     0.76958    0.00097     0.77055
      C   95   -1.12270      1.99943     5.11369    0.00958     7.12270
      H   96    0.23602      0.00000     0.76285    0.00113     0.76398
      H   97    0.24118      0.00000     0.75787    0.00096     0.75882
      H   98    0.23332      0.00000     0.76524    0.00144     0.76668
      C   99   -1.10995      1.99943     5.10089    0.00963     7.10995
      H  100    0.23583      0.00000     0.76322    0.00095     0.76417
      H  101    0.23360      0.00000     0.76523    0.00117     0.76640
      H  102    0.22983      0.00000     0.76876    0.00141     0.77017
      C  103   -0.19539      1.99919     4.18121    0.01498     6.19539
      H  104    0.21953      0.00000     0.77922    0.00125     0.78047
      O  105   -0.86245      1.99971     6.84520    0.01754     8.86245
 =======================================================================
   * Total *    1.00000    175.94393   249.12958    0.92649   426.00000

 Normal termination of Gaussian 16 at Mon Jan 20 17:11:57 2025.
