 Gaussian 16, Revision B.01,
 Gaussian 16:  ES64L-G16RevB.01 20-Dec-2017

 ------------------------------------------
 # nmr=giao b3lyp/genecp pop=nbo scfcyc=200
 ------------------------------------------

 ---------
 DS-52_SPE
 ---------
 Symbolic Z-matrix:
 Charge =  1 Multiplicity = 1

                         Standard orientation:
 ---------------------------------------------------------------------
 Center     Atomic      Atomic             Coordinates (Angstroms)
 Number     Number       Type             X           Y           Z
 ---------------------------------------------------------------------
      1         15           0       -0.920003   -1.413108    0.051480
      2         15           0       -0.919948    1.413182   -0.051330
      3         45           0        0.956710    0.000009    0.000010
      4          6           0        2.643917   -1.364053    0.755110
      5          6           0        2.513097   -1.559223   -0.601030
      6          6           0        2.644092    1.364027   -0.755130
      7          6           0        2.513192    1.559237    0.600990
      8          1           0        2.112126   -2.053343    1.401700
      9          6           0        3.729799   -0.546925    1.429840
     10          1           0        1.927046   -2.414322   -0.919870
     11          6           0        3.345168   -0.925965   -1.687560
     12          6           0        3.729990    0.546825   -1.429710
     13          1           0        2.112263    2.053207   -1.401800
     14          1           0        1.927033    2.414288    0.919770
     15          6           0        3.345291    0.926005    1.687500
     16          1           0        4.643999   -0.601747    0.839440
     17          1           0        3.964838   -1.013236    2.387940
     18          1           0        4.252987   -1.519986   -1.850410
     19          1           0        2.781668   -0.989244   -2.621150
     20          1           0        3.965321    1.013184   -2.387720
     21          1           0        4.644071    0.601383   -0.839100
     22          1           0        4.253262    1.519854    1.850090
     23          1           0        2.781951    0.989556    2.621170
     24          7           0       -1.165286    2.510003    1.221480
     25          7           0       -1.419207    2.370313   -1.392060
     26          7           0       -1.165264   -2.509837   -1.221410
     27          7           0       -1.419324   -2.370307    1.392110
     28          6           0       -1.755523   -1.700626    2.649710
     29          1           0       -0.865713   -1.408918    3.222640
     30          1           0       -2.357512   -0.813436    2.469310
     31          1           0       -2.342864   -2.387576    3.261550
     32          6           0       -0.691256   -3.625678    1.618990
     33          1           0        0.229234   -3.472140    2.196580
     34          1           0       -1.331627   -4.307007    2.182570
     35          1           0       -0.438567   -4.099079    0.673360
     36          6           0       -0.551284   -2.235028   -2.519920
     37          1           0       -1.258553   -1.756397   -3.207220
     38          1           0        0.306357   -1.575400   -2.400010
     39          1           0       -0.217245   -3.170879   -2.974700
     40          6           0       -2.398146   -3.297785   -1.327040
     41          1           0       -3.142535   -2.793964   -1.954800
     42          1           0       -2.170277   -4.264036   -1.782890
     43          1           0       -2.823616   -3.472725   -0.342300
     44          6           0       -1.754628    1.700324   -2.649730
     45          1           0       -2.356719    0.813154   -2.469460
     46          1           0       -2.341647    2.387124   -3.262030
     47          1           0       -0.864478    1.408522   -3.222080
     48          6           0       -0.691645    3.625982   -1.618750
     49          1           0        0.229365    3.472850   -2.195640
     50          1           0       -1.331974    4.306813   -2.182980
     51          1           0       -0.439844    4.099771   -0.673070
     52          6           0       -2.398565    3.297355    1.327120
     53          1           0       -3.142826    2.793026    1.954640
     54          1           0       -2.171204    4.263594    1.783270
     55          1           0       -2.823985    3.472385    0.342370
     56          6           0       -0.551357    2.235232    2.520000
     57          1           0       -1.258428    1.756053    3.207120
     58          1           0        0.306682    1.576120    2.400080
     59          1           0       -0.217895    3.171171    2.975020
     60          6           0       -2.085880    0.000104    0.000060
     61          7           0       -3.388110    0.000016   -0.000360
     62          7           0       -4.515800   -0.000042   -0.000730
 ---------------------------------------------------------------------

 SCF Done:  E(RB3LYP) =  -1791.47234661     A.U. after   17 cycles

      1  P    Isotropic =   196.4809   Anisotropy =    75.6476

      2  P    Isotropic =   196.4877   Anisotropy =    75.6836

      3  Rh   Isotropic =  -302.4331   Anisotropy =   371.0884

      4  C    Isotropic =    75.8892   Anisotropy =   127.0848

      5  C    Isotropic =    76.8777   Anisotropy =   119.3657

      6  C    Isotropic =    75.8775   Anisotropy =   127.1024

      7  C    Isotropic =    76.8753   Anisotropy =   119.3705

      8  H    Isotropic =    26.6818   Anisotropy =     6.9887

      9  C    Isotropic =   153.8765   Anisotropy =    25.7850

     10  H    Isotropic =    26.6909   Anisotropy =     3.8508

     11  C    Isotropic =   148.5056   Anisotropy =    27.7096

     12  C    Isotropic =   153.8790   Anisotropy =    25.7785

     13  H    Isotropic =    26.6814   Anisotropy =     6.9893

     14  H    Isotropic =    26.6896   Anisotropy =     3.8524

     15  C    Isotropic =   148.5112   Anisotropy =    27.7052

     16  H    Isotropic =    29.8018   Anisotropy =     9.2008

     17  H    Isotropic =    29.8596   Anisotropy =    11.4536

     18  H    Isotropic =    29.1660   Anisotropy =    12.3407

     19  H    Isotropic =    29.2564   Anisotropy =     7.2573

     20  H    Isotropic =    29.8597   Anisotropy =    11.4547

     21  H    Isotropic =    29.8021   Anisotropy =     9.1994

     22  H    Isotropic =    29.1663   Anisotropy =    12.3408

     23  H    Isotropic =    29.2566   Anisotropy =     7.2592

     24  N    Isotropic =   195.5863   Anisotropy =    58.7125

     25  N    Isotropic =   201.0687   Anisotropy =    44.9429

     26  N    Isotropic =   195.5860   Anisotropy =    58.7065

     27  N    Isotropic =   201.0611   Anisotropy =    44.9406

     28  C    Isotropic =   145.3129   Anisotropy =    56.7160

     29  H    Isotropic =    29.3646   Anisotropy =     7.1605

     30  H    Isotropic =    28.9956   Anisotropy =     6.6214

     31  H    Isotropic =    29.1309   Anisotropy =    11.1438

     32  C    Isotropic =   146.7868   Anisotropy =    59.9823

     33  H    Isotropic =    29.8795   Anisotropy =     7.8069

     34  H    Isotropic =    29.3171   Anisotropy =    11.7924

     35  H    Isotropic =    29.2305   Anisotropy =     6.6766

     36  C    Isotropic =   143.7735   Anisotropy =    56.2730

     37  H    Isotropic =    29.2766   Anisotropy =     7.9930

     38  H    Isotropic =    28.1265   Anisotropy =     6.4408

     39  H    Isotropic =    28.9956   Anisotropy =    10.1553

     40  C    Isotropic =   147.3051   Anisotropy =    61.6119

     41  H    Isotropic =    29.5731   Anisotropy =    10.3225

     42  H    Isotropic =    29.3841   Anisotropy =    11.6732

     43  H    Isotropic =    28.5047   Anisotropy =     7.3759

     44  C    Isotropic =   145.3121   Anisotropy =    56.7112

     45  H    Isotropic =    28.9959   Anisotropy =     6.6220

     46  H    Isotropic =    29.1314   Anisotropy =    11.1422

     47  H    Isotropic =    29.3643   Anisotropy =     7.1578

     48  C    Isotropic =   146.7882   Anisotropy =    59.9797

     49  H    Isotropic =    29.8796   Anisotropy =     7.8077

     50  H    Isotropic =    29.3174   Anisotropy =    11.7928

     51  H    Isotropic =    29.2295   Anisotropy =     6.6794

     52  C    Isotropic =   147.2996   Anisotropy =    61.6179

     53  H    Isotropic =    29.5732   Anisotropy =    10.3196

     54  H    Isotropic =    29.3835   Anisotropy =    11.6730

     55  H    Isotropic =    28.5051   Anisotropy =     7.3768

     56  C    Isotropic =   143.7758   Anisotropy =    56.2746

     57  H    Isotropic =    29.2770   Anisotropy =     7.9923

     58  H    Isotropic =    28.1277   Anisotropy =     6.4424

     59  H    Isotropic =    28.9957   Anisotropy =    10.1567

     60  C    Isotropic =   131.4761   Anisotropy =    83.6442

     61  N    Isotropic =    -6.1069   Anisotropy =   422.7219

     62  N    Isotropic =  -110.7832   Anisotropy =    79.8855

 The electronic state is 1-A.
 Alpha  occ. eigenvalues --  -77.28445 -77.28444 -14.58714 -14.52259 -14.44334
 Alpha  occ. eigenvalues --  -14.44334 -14.44171 -14.44170 -10.33224 -10.30637
 Alpha  occ. eigenvalues --  -10.30637 -10.30571 -10.30571 -10.30391 -10.30390
 Alpha  occ. eigenvalues --  -10.30203 -10.30202 -10.30132 -10.30131 -10.30021
 Alpha  occ. eigenvalues --  -10.30021 -10.28571 -10.28570 -10.28307 -10.28306
 Alpha  occ. eigenvalues --   -6.73738  -6.73737  -4.90094  -4.90093  -4.90002
 Alpha  occ. eigenvalues --   -4.90001  -4.89652  -4.89652  -3.32566  -2.09476
 Alpha  occ. eigenvalues --   -2.08805  -2.05981  -1.25045  -1.05421  -1.05018
 Alpha  occ. eigenvalues --   -1.01793  -1.01754  -0.97712  -0.95525  -0.90307
 Alpha  occ. eigenvalues --   -0.89043  -0.83193  -0.82855  -0.82748  -0.82253
 Alpha  occ. eigenvalues --   -0.82146  -0.81350  -0.81256  -0.78896  -0.74326
 Alpha  occ. eigenvalues --   -0.74202  -0.73015  -0.71620  -0.67648  -0.66945
 Alpha  occ. eigenvalues --   -0.63778  -0.63301  -0.62766  -0.62587  -0.61072
 Alpha  occ. eigenvalues --   -0.60342  -0.60280  -0.58723  -0.58523  -0.58222
 Alpha  occ. eigenvalues --   -0.57652  -0.57440  -0.57159  -0.56922  -0.56595
 Alpha  occ. eigenvalues --   -0.56472  -0.55231  -0.55149  -0.54734  -0.53949
 Alpha  occ. eigenvalues --   -0.53699  -0.53586  -0.51793  -0.50819  -0.50629
 Alpha  occ. eigenvalues --   -0.50609  -0.50482  -0.49418  -0.49134  -0.48808
 Alpha  occ. eigenvalues --   -0.48758  -0.48657  -0.48634  -0.48551  -0.48330
 Alpha  occ. eigenvalues --   -0.47674  -0.47200  -0.46979  -0.46399  -0.44895
 Alpha  occ. eigenvalues --   -0.44157  -0.43742  -0.39860  -0.39185  -0.38329
 Alpha  occ. eigenvalues --   -0.37094  -0.35971  -0.35664  -0.35443  -0.34085
 Alpha  occ. eigenvalues --   -0.34005  -0.33813  -0.31499
 Alpha virt. eigenvalues --   -0.18613  -0.18196  -0.14048  -0.12772  -0.10574
 Alpha virt. eigenvalues --   -0.09375  -0.07880  -0.07605  -0.07543  -0.07255
 Alpha virt. eigenvalues --   -0.05693  -0.05298  -0.04829  -0.03971  -0.03902

 Mulliken charges:
               1
     1  P    0.701471
     2  P    0.701478
     3  Rh  -0.619360
     4  C    0.006064
     5  C   -0.146179
     6  C    0.006046
     7  C   -0.146153
     8  H    0.173051
     9  C   -0.348768
    10  H    0.210288
    11  C   -0.222490
    12  C   -0.348744
    13  H    0.173010
    14  H    0.210303
    15  C   -0.222497
    16  H    0.170912
    17  H    0.172092
    18  H    0.175166
    19  H    0.134333
    20  H    0.172099
    21  H    0.170912
    22  H    0.175166
    23  H    0.134330
    24  N   -0.334796
    25  N   -0.332113
    26  N   -0.334833
    27  N   -0.332111
    28  C   -0.270649
    29  H    0.127333
    30  H    0.149180
    31  H    0.158800
    32  C   -0.290655
    33  H    0.127870
    34  H    0.162314
    35  H    0.156682
    36  C   -0.287157
    37  H    0.136416
    38  H    0.145507
    39  H    0.160052
    40  C   -0.270145
    41  H    0.135532
    42  H    0.152364
    43  H    0.168615
    44  C   -0.270672
    45  H    0.149169
    46  H    0.158801
    47  H    0.127330
    48  C   -0.290617
    49  H    0.127836
    50  H    0.162291
    51  H    0.156713
    52  C   -0.270219
    53  H    0.135522
    54  H    0.152380
    55  H    0.168637
    56  C   -0.287143
    57  H    0.136399
    58  H    0.145483
    59  H    0.160049
    60  C   -0.758199
    61  N    0.447651
    62  N   -0.112151
 Sum of Mulliken charges =   1.00000

 Dipole moment (field-independent basis, Debye):
    X=              0.7487    Y=             -0.0007    Z=              0.0005  Tot=              0.7487
 Quadrupole moment (field-independent basis, Debye-Ang):
   XX=           -161.1339   YY=           -153.3619   ZZ=           -162.7738
   XY=             -0.0003   XZ=             -0.0033   YZ=             -0.0167

 Summary of Natural Population Analysis:

                                       Natural Population
                Natural  -----------------------------------------------
    Atom  No    Charge         Core      Valence    Rydberg      Total
 -----------------------------------------------------------------------
      P    1    1.54154      9.99594     3.38832    0.07420    13.45846
      P    2    1.54151      9.99594     3.38835    0.07420    13.45849
     Rh    3   -0.48678     35.98502     9.46704    0.03471    45.48678
      C    4   -0.16324      1.99907     4.14407    0.02011     6.16324
      C    5   -0.17080      1.99908     4.15047    0.02125     6.17080
      C    6   -0.16322      1.99907     4.14404    0.02011     6.16322
      C    7   -0.17081      1.99908     4.15048    0.02125     6.17081
      H    8    0.22397      0.00000     0.77349    0.00254     0.77603
      C    9   -0.42515      1.99936     4.41378    0.01201     6.42515
      H   10    0.22758      0.00000     0.77039    0.00203     0.77242
      C   11   -0.42140      1.99935     4.40943    0.01262     6.42140
      C   12   -0.42516      1.99936     4.41379    0.01201     6.42516
      H   13    0.22397      0.00000     0.77349    0.00254     0.77603
      H   14    0.22758      0.00000     0.77038    0.00203     0.77242
      C   15   -0.42142      1.99935     4.40944    0.01262     6.42142
      H   16    0.21668      0.00000     0.78133    0.00200     0.78332
      H   17    0.23056      0.00000     0.76796    0.00147     0.76944
      H   18    0.23630      0.00000     0.76177    0.00193     0.76370
      H   19    0.21737      0.00000     0.78107    0.00156     0.78263
      H   20    0.23057      0.00000     0.76796    0.00147     0.76943
      H   21    0.21668      0.00000     0.78133    0.00200     0.78332
      H   22    0.23630      0.00000     0.76177    0.00193     0.76370
      H   23    0.21737      0.00000     0.78107    0.00156     0.78263
      N   24   -0.72450      1.99958     5.70308    0.02184     7.72450
      N   25   -0.72508      1.99959     5.70014    0.02535     7.72508
      N   26   -0.72453      1.99958     5.70311    0.02184     7.72453
      N   27   -0.72508      1.99959     5.70015    0.02534     7.72508
      C   28   -0.39963      1.99936     4.38736    0.01291     6.39963
      H   29    0.18145      0.00000     0.81583    0.00272     0.81855
      H   30    0.20190      0.00000     0.79530    0.00280     0.79810
      H   31    0.21213      0.00000     0.78599    0.00189     0.78787
      C   32   -0.40940      1.99936     4.39745    0.01259     6.40940
      H   33    0.17987      0.00000     0.81757    0.00256     0.82013
      H   34    0.21139      0.00000     0.78675    0.00185     0.78861
      H   35    0.21737      0.00000     0.78115    0.00148     0.78263
      C   36   -0.39510      1.99936     4.38324    0.01250     6.39510
      H   37    0.18451      0.00000     0.81273    0.00276     0.81549
      H   38    0.21410      0.00000     0.78375    0.00216     0.78590
      H   39    0.20441      0.00000     0.79358    0.00201     0.79559
      C   40   -0.41461      1.99936     4.40124    0.01401     6.41461
      H   41    0.18648      0.00000     0.81090    0.00261     0.81352
      H   42    0.20851      0.00000     0.78964    0.00185     0.79149
      H   43    0.22180      0.00000     0.77642    0.00178     0.77820
      C   44   -0.39964      1.99936     4.38737    0.01291     6.39964
      H   45    0.20189      0.00000     0.79531    0.00280     0.79811
      H   46    0.21213      0.00000     0.78598    0.00189     0.78787
      H   47    0.18146      0.00000     0.81582    0.00272     0.81854
      C   48   -0.40940      1.99936     4.39744    0.01259     6.40940
      H   49    0.17986      0.00000     0.81759    0.00256     0.82014
      H   50    0.21139      0.00000     0.78675    0.00185     0.78861
      H   51    0.21738      0.00000     0.78114    0.00148     0.78262
      C   52   -0.41463      1.99936     4.40126    0.01401     6.41463
      H   53    0.18647      0.00000     0.81091    0.00261     0.81353
      H   54    0.20852      0.00000     0.78962    0.00185     0.79148
      H   55    0.22180      0.00000     0.77642    0.00178     0.77820
      C   56   -0.39510      1.99936     4.38325    0.01250     6.39510
      H   57    0.18449      0.00000     0.81275    0.00276     0.81551
      H   58    0.21409      0.00000     0.78375    0.00216     0.78591
      H   59    0.20442      0.00000     0.79357    0.00201     0.79558
      C   60   -0.78324      1.99900     4.75156    0.03267     6.78324
      N   61    0.06135      1.99942     4.90600    0.03323     6.93865
      N   62    0.07075      1.99969     4.90553    0.02403     6.92925
 =======================================================================
   * Total *    1.00000    101.96195   151.35863    0.67941   254.00000

 Normal termination of Gaussian 16 at Mon Jan 20 16:06:54 2025.
