 Gaussian 16, Revision B.01,
 Gaussian 16:  ES64L-G16RevB.01 20-Dec-2017

 ------------------------------------------
 # nmr=giao b3lyp/genecp pop=nbo scfcyc=200
 ------------------------------------------

 ---------
 DS-61_SPE
 ---------
 Symbolic Z-matrix:
 Charge =  1 Multiplicity = 1

                         Standard orientation:
 ---------------------------------------------------------------------
 Center     Atomic      Atomic             Coordinates (Angstroms)
 Number     Number       Type             X           Y           Z
 ---------------------------------------------------------------------
      1         15           0        1.236020    1.216201   -0.434170
      2         15           0       -0.059100   -1.157239    0.437440
      3          8           0       -1.517820    1.058781   -0.548110
      4          8           0       -3.539600    0.100221    0.493990
      5          8           0       -3.693140    1.247951   -1.496640
      6          6           0        2.035460    2.644751    0.419050
      7          6           0       -0.746440    1.499551    1.705650
      8          6           0       -0.079180    1.156471    2.885260
      9          1           0        0.593200    0.312981    2.910590
     10          6           0       -0.482120   -1.869039    2.083730
     11          6           0        0.817600    1.786051   -2.136570
     12          6           0       -1.223780   -1.569419   -2.099830
     13          1           0       -0.701100   -0.673659   -2.404470
     14          6           0       -0.518670    0.774111    0.395150
     15          6           0       -1.966211   -2.268729   -3.043220
     16          1           0       -2.017681   -1.900549   -4.060150
     17          6           0        2.707650    2.389931    1.621200
     18          1           0        2.720720    1.388291    2.030390
     19          6           0       -0.275290    1.880381    4.055130
     20          1           0        0.244980    1.584281    4.957440
     21          6           0       -2.635761   -3.435389   -2.686390
     22          1           0       -3.210161   -3.980739   -3.424530
     23          6           0        2.066410    3.939351   -0.108740
     24          1           0        1.589050    4.161891   -1.051330
     25          6           0       -1.161501   -2.016909   -0.773070
     26          6           0       -1.591810    2.616401    1.730990
     27          1           0       -2.099510    2.938191    0.832480
     28          6           0       -0.354650    3.257321   -3.659730
     29          1           0       -1.043840    4.076521   -3.821330
     30          5           0       -2.852940    0.793851   -0.492870
     31          6           0       -0.069220    2.846921   -2.364450
     32          1           0       -0.552080    3.345561   -1.536170
     33          6           0        0.530299   -2.420599    2.873660
     34          1           0        1.551799   -2.417139    2.519720
     35          6           0        1.100380    1.549931   -4.531410
     36          1           0        1.554160    1.039341   -5.371600
     37          6           0       -1.828641   -3.196579   -0.425140
     38          1           0       -1.783861   -3.575159    0.585770
     39          6           0        0.232890    2.613991   -4.745690
     40          1           0        0.008200    2.937791   -5.754190
     41          6           0        3.381010    4.697430    1.767620
     42          1           0        3.901251    5.492030    2.287460
     43          6           0        3.367140    3.409940    2.294370
     44          1           0        3.877250    3.197420    3.225570
     45          6           0        2.735060    4.956441    0.564270
     46          1           0        2.753751    5.952721    0.140590
     47          6           0       -1.135470    2.971191    4.071770
     48          1           0       -1.292320    3.531271    4.984830
     49          6           0        1.387430    1.135221   -3.234460
     50          1           0        2.048800    0.295271   -3.075080
     51          6           0       -2.558891   -3.899039   -1.378710
     52          1           0       -3.070011   -4.809799   -1.092790
     53          6           0       -1.788220    3.338911    2.901030
     54          1           0       -2.453770    4.192951    2.893620
     55          6           0       -1.069091   -2.931869    4.600480
     56          1           0       -1.298831   -3.345799    5.574300
     57          6           0       -1.792530   -1.836239    2.574790
     58          1           0       -2.582400   -1.386779    1.989110
     59          6           0        0.237039   -2.953829    4.124490
     60          1           0        1.028809   -3.382769    4.725870
     61          6           0       -2.079381   -2.368879    3.825720
     62          1           0       -3.095191   -2.337939    4.199440
     63         45           0        2.164580   -0.925349   -0.267210
     64          6           0        3.008209   -3.047849    0.155890
     65          6           0        2.511719   -2.993679   -1.126480
     66          6           0        4.141010   -0.568840   -1.417380
     67          6           0        4.371820   -0.457010   -0.065160
     68          6           0        4.469179   -2.952820    0.552110
     69          1           0        2.346389   -3.460659    0.907030
     70          1           0        1.504869   -3.367669   -1.282030
     71          6           0        3.296789   -2.781270   -2.396270
     72          6           0        4.460620   -1.773460   -2.282070
     73          1           0        3.975520    0.359050   -1.952310
     74          6           0        4.936650   -1.512860    0.851650
     75          1           0        4.378820    0.546540    0.347150
     76          1           0        4.625749   -3.557820    1.446870
     77          1           0        5.091679   -3.401670   -0.221470
     78          1           0        3.677529   -3.747750   -2.750330
     79          1           0        2.598809   -2.440929   -3.164310
     80          1           0        5.356579   -2.267850   -1.907700
     81          1           0        4.711920   -1.423180   -3.284710
     82          1           0        4.655230   -1.250840    1.874380
     83          1           0        6.032770   -1.465580    0.825720
     84          6           0       -7.286200    0.446502   -1.163580
     85          6           0       -6.154440    0.995122   -1.775700
     86          6           0       -4.954310    0.812822   -1.124530
     87          6           0       -4.866890    0.119732    0.076970
     88          6           0       -5.971760   -0.423668    0.693340
     89          6           0       -7.197550   -0.246608    0.042620
     90          1           0       -8.251400    0.565512   -1.638180
     91          1           0       -6.213850    1.536562   -2.709990
     92          1           0       -5.895900   -0.956658    1.631350
     93          1           0       -8.094780   -0.655188    0.488710
 ---------------------------------------------------------------------

 SCF Done:  E(RB3LYP) =  -2783.97240553     A.U. after   16 cycles

      1  P    Isotropic =   247.8124   Anisotropy =   100.3565

      2  P    Isotropic =   247.2446   Anisotropy =    87.0603

      3  O    Isotropic =   191.5221   Anisotropy =    93.0010

      4  O    Isotropic =   143.0725   Anisotropy =   175.5452

      5  O    Isotropic =   146.3190   Anisotropy =   164.7133

      6  C    Isotropic =    48.9238   Anisotropy =   168.2396

      7  C    Isotropic =    43.0239   Anisotropy =   169.0435

      8  C    Isotropic =    49.7593   Anisotropy =   190.0902

      9  H    Isotropic =    24.8681   Anisotropy =     7.6086

     10  C    Isotropic =    50.0005   Anisotropy =   165.0527

     11  C    Isotropic =    51.7899   Anisotropy =   159.5262

     12  C    Isotropic =    44.0532   Anisotropy =   194.1572

     13  H    Isotropic =    24.3981   Anisotropy =     6.4006

     14  C    Isotropic =    55.0450   Anisotropy =    44.4200

     15  C    Isotropic =    50.0982   Anisotropy =   189.1563

     16  H    Isotropic =    24.5694   Anisotropy =     7.6054

     17  C    Isotropic =    41.5902   Anisotropy =   187.8636

     18  H    Isotropic =    24.1755   Anisotropy =     9.3369

     19  C    Isotropic =    52.3555   Anisotropy =   187.5154

     20  H    Isotropic =    25.0192   Anisotropy =     7.4798

     21  C    Isotropic =    47.1267   Anisotropy =   196.3879

     22  H    Isotropic =    24.5489   Anisotropy =     3.5046

     23  C    Isotropic =    46.2568   Anisotropy =   192.9282

     24  H    Isotropic =    24.3940   Anisotropy =    12.9770

     25  C    Isotropic =    47.0378   Anisotropy =   167.6633

     26  C    Isotropic =    56.2441   Anisotropy =   184.9502

     27  H    Isotropic =    24.7158   Anisotropy =    10.0864

     28  C    Isotropic =    49.4535   Anisotropy =   187.5759

     29  H    Isotropic =    23.6538   Anisotropy =     6.2042

     30  B    Isotropic =    82.0183   Anisotropy =    12.2898

     31  C    Isotropic =    39.2045   Anisotropy =   191.7349

     32  H    Isotropic =    23.5977   Anisotropy =    11.0321

     33  C    Isotropic =    41.2613   Anisotropy =   181.1183

     34  H    Isotropic =    23.1964   Anisotropy =    10.6336

     35  C    Isotropic =    49.2658   Anisotropy =   186.7769

     36  H    Isotropic =    23.7900   Anisotropy =     7.2924

     37  C    Isotropic =    46.7254   Anisotropy =   191.0698

     38  H    Isotropic =    24.9245   Anisotropy =    12.3803

     39  C    Isotropic =    44.6666   Anisotropy =   198.5395

     40  H    Isotropic =    23.6686   Anisotropy =     3.5538

     41  C    Isotropic =    46.1984   Anisotropy =   196.4213

     42  H    Isotropic =    24.4608   Anisotropy =     3.8610

     43  C    Isotropic =    50.7544   Anisotropy =   186.5307

     44  H    Isotropic =    24.5252   Anisotropy =     7.6361

     45  C    Isotropic =    50.1646   Anisotropy =   187.6947

     46  H    Isotropic =    24.5899   Anisotropy =     6.5489

     47  C    Isotropic =    49.3552   Anisotropy =   192.4514

     48  H    Isotropic =    24.7684   Anisotropy =     3.4035

     49  C    Isotropic =    40.9543   Anisotropy =   179.8874

     50  H    Isotropic =    23.0854   Anisotropy =    10.2422

     51  C    Isotropic =    49.2963   Anisotropy =   189.7663

     52  H    Isotropic =    24.6460   Anisotropy =     5.9697

     53  C    Isotropic =    49.1203   Anisotropy =   191.1402

     54  H    Isotropic =    24.7018   Anisotropy =     6.0211

     55  C    Isotropic =    44.7391   Anisotropy =   198.9950

     56  H    Isotropic =    23.8876   Anisotropy =     3.2883

     57  C    Isotropic =    40.4693   Anisotropy =   201.0141

     58  H    Isotropic =    23.3672   Anisotropy =     9.6831

     59  C    Isotropic =    49.3027   Anisotropy =   187.0944

     60  H    Isotropic =    23.8340   Anisotropy =     6.9201

     61  C    Isotropic =    48.8271   Anisotropy =   190.0027

     62  H    Isotropic =    24.1798   Anisotropy =     6.9605

     63  Rh   Isotropic =  -299.4829   Anisotropy =   346.8493

     64  C    Isotropic =    79.5770   Anisotropy =   119.8615

     65  C    Isotropic =    68.5088   Anisotropy =   129.8052

     66  C    Isotropic =    78.4833   Anisotropy =   123.7066

     67  C    Isotropic =    70.0832   Anisotropy =   127.5648

     68  C    Isotropic =   154.3249   Anisotropy =    24.1726

     69  H    Isotropic =    26.5573   Anisotropy =     6.6814

     70  H    Isotropic =    26.6820   Anisotropy =     2.5984

     71  C    Isotropic =   147.5163   Anisotropy =    27.6874

     72  C    Isotropic =   154.1187   Anisotropy =    24.4186

     73  H    Isotropic =    26.9213   Anisotropy =     5.9367

     74  C    Isotropic =   147.7111   Anisotropy =    27.7841

     75  H    Isotropic =    26.3419   Anisotropy =     3.2440

     76  H    Isotropic =    29.6052   Anisotropy =    11.7541

     77  H    Isotropic =    29.5891   Anisotropy =     9.9577

     78  H    Isotropic =    29.2166   Anisotropy =    12.7033

     79  H    Isotropic =    29.1370   Anisotropy =     7.0379

     80  H    Isotropic =    29.6320   Anisotropy =    10.2338

     81  H    Isotropic =    29.7085   Anisotropy =    11.5749

     82  H    Isotropic =    28.7720   Anisotropy =     7.6013

     83  H    Isotropic =    29.0338   Anisotropy =    13.0081

     84  C    Isotropic =    54.6048   Anisotropy =   180.9184

     85  C    Isotropic =    67.1633   Anisotropy =   154.8864

     86  C    Isotropic =    29.5366   Anisotropy =   113.8776

     87  C    Isotropic =    29.9193   Anisotropy =   107.9981

     88  C    Isotropic =    68.9272   Anisotropy =   152.0394

     89  C    Isotropic =    55.7339   Anisotropy =   179.1822

     90  H    Isotropic =    24.7273   Anisotropy =     4.2589

     91  H    Isotropic =    24.7607   Anisotropy =     7.4497

     92  H    Isotropic =    25.0907   Anisotropy =     8.7228

     93  H    Isotropic =    24.8295   Anisotropy =     5.1985

 The electronic state is 1-A.
 Alpha  occ. eigenvalues --  -77.23628 -77.23401 -19.25562 -19.25552 -19.24953
 Alpha  occ. eigenvalues --  -10.37704 -10.31577 -10.31422 -10.29290 -10.29275
 Alpha  occ. eigenvalues --  -10.29232 -10.29107 -10.29025 -10.28915 -10.28656
 Alpha  occ. eigenvalues --  -10.28627 -10.28490 -10.28104 -10.27917 -10.27819
 Alpha  occ. eigenvalues --  -10.27735 -10.27558 -10.27534 -10.27531 -10.27487
 Alpha  occ. eigenvalues --  -10.27481 -10.27452 -10.27426 -10.27333 -10.27246
 Alpha  occ. eigenvalues --  -10.27245 -10.27225 -10.27164 -10.27125 -10.27029
 Alpha  occ. eigenvalues --  -10.26978 -10.26938 -10.26915 -10.26882 -10.26830
 Alpha  occ. eigenvalues --  -10.26786 -10.26778 -10.26769 -10.26311 -10.26244
 Alpha  occ. eigenvalues --  -10.26125 -10.26058 -10.25825 -10.25292 -10.25227
 Alpha  occ. eigenvalues --   -6.91884  -6.69526  -6.69307  -4.85810  -4.85740
 Alpha  occ. eigenvalues --   -4.85582  -4.85517  -4.85439  -4.85231  -3.31328
 Alpha  occ. eigenvalues --   -2.08214  -2.07551  -2.04801  -1.19812  -1.15757
 Alpha  occ. eigenvalues --   -1.12119  -0.96406  -0.96199  -0.95639  -0.95566
 Alpha  occ. eigenvalues --   -0.95305  -0.94313  -0.93835  -0.89057  -0.88529
 Alpha  occ. eigenvalues --   -0.87956  -0.86849  -0.85920  -0.84984  -0.84909
 Alpha  occ. eigenvalues --   -0.84743  -0.84688  -0.84367  -0.84310  -0.83949
 Alpha  occ. eigenvalues --   -0.83637  -0.82028  -0.80453  -0.80143  -0.77772
 Alpha  occ. eigenvalues --   -0.75305  -0.74223  -0.71057  -0.71046  -0.70699
 Alpha  occ. eigenvalues --   -0.70592  -0.70478  -0.70410  -0.70219  -0.69958
 Alpha  occ. eigenvalues --   -0.69813  -0.69655  -0.69378  -0.67714  -0.66631
 Alpha  occ. eigenvalues --   -0.65677  -0.64944  -0.62903  -0.62645  -0.61741
 Alpha  occ. eigenvalues --   -0.61641  -0.61479  -0.60564  -0.60119  -0.59799
 Alpha  occ. eigenvalues --   -0.59646  -0.57996  -0.57055  -0.56924  -0.56285
 Alpha  occ. eigenvalues --   -0.56020  -0.55837  -0.55655  -0.55604  -0.55342
 Alpha  occ. eigenvalues --   -0.54938  -0.54822  -0.54622  -0.54330  -0.53733
 Alpha  occ. eigenvalues --   -0.53651  -0.53238  -0.53037  -0.52761  -0.52757
 Alpha  occ. eigenvalues --   -0.52546  -0.52491  -0.52339  -0.52201  -0.51879
 Alpha  occ. eigenvalues --   -0.51834  -0.51463  -0.50840  -0.50607  -0.49154
 Alpha  occ. eigenvalues --   -0.48760  -0.48341  -0.47712  -0.47644  -0.47472
 Alpha  occ. eigenvalues --   -0.47008  -0.46771  -0.46599  -0.46401  -0.46177
 Alpha  occ. eigenvalues --   -0.46015  -0.45838  -0.45675  -0.45448  -0.45132
 Alpha  occ. eigenvalues --   -0.44877  -0.44675  -0.44564  -0.44385  -0.44149
 Alpha  occ. eigenvalues --   -0.43944  -0.43344  -0.43161  -0.43106  -0.42943
 Alpha  occ. eigenvalues --   -0.42868  -0.42714  -0.41375  -0.41103  -0.40643
 Alpha  occ. eigenvalues --   -0.37646  -0.37250  -0.36406  -0.35887  -0.35846
 Alpha  occ. eigenvalues --   -0.35614  -0.35496  -0.35389  -0.35217  -0.35004
 Alpha  occ. eigenvalues --   -0.34728  -0.34250  -0.33880  -0.33424  -0.33228
 Alpha  occ. eigenvalues --   -0.33070  -0.31370  -0.30601
 Alpha virt. eigenvalues --   -0.16616  -0.14217  -0.14194  -0.13688  -0.12201
 Alpha virt. eigenvalues --   -0.11745  -0.11617  -0.11113  -0.10883  -0.10230
 Alpha virt. eigenvalues --   -0.10120  -0.09378  -0.09266  -0.08998  -0.07647

 Mulliken charges:
               1
     1  P    0.267336
     2  P    0.313187
     3  O   -0.262170
     4  O   -0.179559
     5  O   -0.174350
     6  C   -0.144759
     7  C   -0.045420
     8  C   -0.113929
     9  H    0.159172
    10  C   -0.409920
    11  C   -0.229677
    12  C   -0.019320
    13  H    0.205762
    14  C   -0.247447
    15  C   -0.114213
    16  H    0.127505
    17  C   -0.049767
    18  H    0.178915
    19  C   -0.122989
    20  H    0.117728
    21  C   -0.082905
    22  H    0.134268
    23  C   -0.019964
    24  H    0.176123
    25  C   -0.281332
    26  C   -0.086690
    27  H    0.137868
    28  C   -0.083623
    29  H    0.131816
    30  B    0.361859
    31  C   -0.076760
    32  H    0.168584
    33  C    0.024265
    34  H    0.156823
    35  C   -0.135377
    36  H    0.127276
    37  C   -0.036482
    38  H    0.167505
    39  C   -0.086986
    40  H    0.135989
    41  C   -0.083006
    42  H    0.134631
    43  C   -0.104789
    44  H    0.125776
    45  C   -0.114444
    46  H    0.130131
    47  C   -0.085330
    48  H    0.128028
    49  C   -0.038684
    50  H    0.162798
    51  C   -0.115582
    52  H    0.130385
    53  C   -0.103659
    54  H    0.125875
    55  C   -0.057529
    56  H    0.136299
    57  C    0.072309
    58  H    0.219377
    59  C   -0.154748
    60  H    0.127462
    61  C   -0.144443
    62  H    0.128636
    63  Rh  -0.545484
    64  C   -0.053357
    65  C   -0.093369
    66  C   -0.080430
    67  C   -0.077358
    68  C   -0.351038
    69  H    0.190199
    70  H    0.205886
    71  C   -0.217582
    72  C   -0.362676
    73  H    0.202822
    74  C   -0.223575
    75  H    0.219305
    76  H    0.166478
    77  H    0.167451
    78  H    0.174333
    79  H    0.135654
    80  H    0.169750
    81  H    0.167551
    82  H    0.125444
    83  H    0.173720
    84  C   -0.107611
    85  C   -0.133781
    86  C    0.062445
    87  C    0.123037
    88  C   -0.162189
    89  C   -0.108750
    90  H    0.130728
    91  H    0.137999
    92  H    0.126704
    93  H    0.129859
 Sum of Mulliken charges =   1.00000

 Dipole moment (field-independent basis, Debye):
    X=              2.6607    Y=             -1.1786    Z=              0.4431  Tot=              2.9436
 Quadrupole moment (field-independent basis, Debye-Ang):
   XX=           -257.8457   YY=           -277.0120   ZZ=           -269.0546
   XY=             -0.1877   XZ=              2.7257   YZ=             -3.5985

 Summary of Natural Population Analysis:

                                       Natural Population
                Natural  -----------------------------------------------
    Atom  No    Charge         Core      Valence    Rydberg      Total
 -----------------------------------------------------------------------
      P    1    1.08971      9.99634     3.86165    0.05230    13.91029
      P    2    1.07636      9.99636     3.87529    0.05200    13.92364
      O    3   -0.71072      1.99962     6.69443    0.01668     8.71072
      O    4   -0.64398      1.99969     6.63433    0.00997     8.64398
      O    5   -0.61164      1.99970     6.60255    0.00939     8.61164
      C    6   -0.34934      1.99896     4.32539    0.02500     6.34934
      C    7   -0.11715      1.99897     4.09496    0.02322     6.11715
      C    8   -0.19109      1.99909     4.17643    0.01557     6.19109
      H    9    0.21354      0.00000     0.78379    0.00267     0.78646
      C   10   -0.35081      1.99898     4.32700    0.02483     6.35081
      C   11   -0.34547      1.99896     4.32192    0.02460     6.34547
      C   12   -0.19645      1.99909     4.18101    0.01634     6.19645
      H   13    0.22690      0.00000     0.77049    0.00261     0.77310
      C   14   -0.11601      1.99917     4.07963    0.03722     6.11601
      C   15   -0.19380      1.99919     4.17974    0.01487     6.19380
      H   16    0.22124      0.00000     0.77748    0.00129     0.77876
      C   17   -0.18339      1.99910     4.16771    0.01657     6.18339
      H   18    0.21642      0.00000     0.78129    0.00229     0.78358
      C   19   -0.19218      1.99920     4.17770    0.01528     6.19218
      H   20    0.21628      0.00000     0.78234    0.00138     0.78372
      C   21   -0.17881      1.99920     4.16497    0.01464     6.17881
      H   22    0.22165      0.00000     0.77718    0.00118     0.77835
      C   23   -0.18437      1.99910     4.16952    0.01574     6.18437
      H   24    0.22291      0.00000     0.77509    0.00200     0.77709
      C   25   -0.34663      1.99896     4.32358    0.02408     6.34663
      C   26   -0.19357      1.99908     4.17978    0.01471     6.19357
      H   27    0.21174      0.00000     0.78624    0.00202     0.78826
      C   28   -0.19482      1.99918     4.18122    0.01441     6.19482
      H   29    0.22288      0.00000     0.77587    0.00125     0.77712
      B   30    1.23101      1.99911     1.73032    0.03956     3.76899
      C   31   -0.17720      1.99909     4.16194    0.01617     6.17720
      H   32    0.21908      0.00000     0.77856    0.00237     0.78092
      C   33   -0.19214      1.99909     4.17726    0.01579     6.19214
      H   34    0.21710      0.00000     0.78081    0.00209     0.78290
      C   35   -0.20271      1.99919     4.18903    0.01450     6.20271
      H   36    0.21979      0.00000     0.77895    0.00126     0.78021
      C   37   -0.19314      1.99909     4.17876    0.01528     6.19314
      H   38    0.22497      0.00000     0.77324    0.00179     0.77503
      C   39   -0.17200      1.99920     4.15840    0.01439     6.17200
      H   40    0.22194      0.00000     0.77688    0.00118     0.77806
      C   41   -0.17321      1.99920     4.15947    0.01454     6.17321
      H   42    0.22157      0.00000     0.77728    0.00114     0.77843
      C   43   -0.19799      1.99918     4.18372    0.01509     6.19799
      H   44    0.21930      0.00000     0.77940    0.00130     0.78070
      C   45   -0.19244      1.99920     4.17860    0.01464     6.19244
      H   46    0.22159      0.00000     0.77718    0.00122     0.77841
      C   47   -0.18679      1.99920     4.17291    0.01468     6.18679
      H   48    0.21964      0.00000     0.77923    0.00113     0.78036
      C   49   -0.18528      1.99910     4.17070    0.01548     6.18528
      H   50    0.21916      0.00000     0.77852    0.00232     0.78084
      C   51   -0.19258      1.99919     4.17875    0.01463     6.19258
      H   52    0.22173      0.00000     0.77703    0.00124     0.77827
      C   53   -0.18760      1.99920     4.17368    0.01472     6.18760
      H   54    0.21938      0.00000     0.77940    0.00122     0.78062
      C   55   -0.17261      1.99920     4.15887    0.01454     6.17261
      H   56    0.22228      0.00000     0.77658    0.00114     0.77772
      C   57   -0.18988      1.99908     4.17330    0.01750     6.18988
      H   58    0.24220      0.00000     0.75536    0.00244     0.75780
      C   59   -0.20117      1.99919     4.18714    0.01484     6.20117
      H   60    0.22061      0.00000     0.77816    0.00123     0.77939
      C   61   -0.19175      1.99919     4.17775    0.01482     6.19175
      H   62    0.22144      0.00000     0.77729    0.00128     0.77856
     Rh   63   -0.39706     35.98616     9.38486    0.02604    45.39706
      C   64   -0.19593      1.99908     4.17736    0.01949     6.19593
      C   65   -0.14779      1.99910     4.12905    0.01964     6.14779
      C   66   -0.18547      1.99907     4.16693    0.01947     6.18547
      C   67   -0.15773      1.99909     4.13885    0.01979     6.15773
      C   68   -0.42333      1.99935     4.41213    0.01185     6.42333
      H   69    0.22380      0.00000     0.77411    0.00209     0.77620
      H   70    0.23357      0.00000     0.76445    0.00198     0.76643
      C   71   -0.41894      1.99935     4.40705    0.01254     6.41894
      C   72   -0.42513      1.99935     4.41385    0.01193     6.42513
      H   73    0.22667      0.00000     0.77134    0.00199     0.77333
      C   74   -0.41750      1.99935     4.40557    0.01258     6.41750
      H   75    0.23321      0.00000     0.76464    0.00215     0.76679
      H   76    0.22690      0.00000     0.77159    0.00152     0.77310
      H   77    0.21585      0.00000     0.78219    0.00196     0.78415
      H   78    0.23575      0.00000     0.76239    0.00187     0.76425
      H   79    0.21706      0.00000     0.78133    0.00160     0.78294
      H   80    0.21651      0.00000     0.78155    0.00194     0.78349
      H   81    0.22754      0.00000     0.77098    0.00148     0.77246
      H   82    0.21479      0.00000     0.78359    0.00162     0.78521
      H   83    0.23529      0.00000     0.76284    0.00188     0.76471
      C   84   -0.19939      1.99924     4.18545    0.01469     6.19939
      C   85   -0.23088      1.99907     4.21696    0.01485     6.23088
      C   86    0.21113      1.99861     3.76851    0.02176     5.78887
      C   87    0.20876      1.99861     3.77036    0.02227     5.79124
      C   88   -0.23518      1.99907     4.22142    0.01468     6.23518
      C   89   -0.20181      1.99924     4.18776    0.01481     6.20181
      H   90    0.22049      0.00000     0.77839    0.00113     0.77951
      H   91    0.23027      0.00000     0.76834    0.00139     0.76973
      H   92    0.22499      0.00000     0.77346    0.00155     0.77501
      H   93    0.21989      0.00000     0.77896    0.00115     0.78011
 =======================================================================
   * Total *    1.00000    153.93737   259.01930    1.04333   414.00000

 Normal termination of Gaussian 16 at Tue Jan 21 00:35:39 2025.
