 Gaussian 16, Revision B.01,
 Gaussian 16:  ES64L-G16RevB.01 20-Dec-2017

 ------------------------------------------
 # nmr=giao b3lyp/genecp pop=nbo scfcyc=200
 ------------------------------------------

 ---------
 DS-60_SPE
 ---------
 Symbolic Z-matrix:
 Charge =  1 Multiplicity = 1

                         Standard orientation:
 ---------------------------------------------------------------------
 Center     Atomic      Atomic             Coordinates (Angstroms)
 Number     Number       Type             X           Y           Z
 ---------------------------------------------------------------------
      1         15           0        1.162440    1.265670   -0.402909
      2         15           0        0.052440   -1.218110    0.395821
      3          8           0       -1.576250    0.910160   -0.555799
      4          8           0       -3.525290   -0.234009    0.396431
      5          8           0       -3.777020    1.227581   -1.359869
      6          6           0        1.771990    2.798440    0.427851
      7          6           0       -0.834850    1.343450    1.708021
      8          6           0       -0.202420    0.975410    2.898431
      9          1           0        0.478350    0.139210    2.924421
     10          6           0       -0.416230   -2.041960    1.978871
     11          6           0        0.772580    1.746980   -2.140399
     12          6           0       -0.964870   -1.622070   -2.214759
     13          1           0       -0.587100   -0.636810   -2.445329
     14          6           0       -0.566790    0.665880    0.375931
     15          6           0       -1.547471   -2.372770   -3.228759
     16          1           0       -1.618220   -1.955830   -4.225639
     17          6           0        2.383860    2.665940    1.680811
     18          1           0        2.458190    1.692260    2.146191
     19          6           0       -0.441880    1.667170    4.080621
     20          1           0        0.050470    1.349520    4.991351
     21          6           0       -2.032341   -3.651150   -2.969039
     22          1           0       -2.479551   -4.236099   -3.762959
     23          6           0        1.719510    4.063470   -0.165859
     24          1           0        1.284170    4.194040   -1.145449
     25          6           0       -0.875950   -2.135780   -0.914849
     26          6           0       -1.686480    2.455810    1.734861
     27          1           0       -2.164850    2.795380    0.826651
     28          6           0       -0.478500    3.037040   -3.762009
     29          1           0       -1.255100    3.758900   -3.981099
     30          5           0       -2.923110    0.624721   -0.481579
     31          6           0       -0.224840    2.683690   -2.443089
     32          1           0       -0.817730    3.126590   -1.656469
     33          6           0        0.583549   -2.532870    2.822961
     34          1           0        1.623399   -2.411820    2.553661
     35          6           0       -5.165250   -0.475419   -2.334199
     36          1           0       -5.040970    0.026831   -3.293949
     37          1           0       -6.134300   -0.975899   -2.334459
     38          1           0       -4.384130   -1.230959   -2.245219
     39          6           0       -5.639710   -1.427609    0.378881
     40          1           0       -5.209840   -2.164119   -0.296989
     41          1           0       -6.710930   -1.357059    0.181141
     42          1           0       -5.515040   -1.786739    1.401461
     43          6           0        1.235080    1.521010   -4.508539
     44          1           0        1.802990    1.063240   -5.308869
     45          6           0       -4.978640   -0.065779    0.228161
     46          6           0       -1.358511   -3.425060   -0.663339
     47          1           0       -1.290991   -3.852660    0.326731
     48          6           0        0.253220    2.461380   -4.796929
     49          1           0        0.053280    2.741260   -5.823709
     50          6           0        2.833180    5.031540    1.743451
     51          1           0        3.243381    5.895600    2.250861
     52          6           0        2.901250    3.775100    2.336991
     53          1           0        3.364810    3.656500    3.308361
     54          6           0        2.247030    5.170440    0.490771
     55          1           0        2.202261    6.142600    0.016001
     56          6           0       -1.308160    2.752600    4.097921
     57          1           0       -1.497280    3.288390    5.019461
     58          6           0       -6.167580    1.613061   -1.388299
     59          1           0       -6.042360    2.445681   -0.698999
     60          1           0       -7.153670    1.172651   -1.228179
     61          1           0       -6.137330    2.007651   -2.404399
     62          6           0        1.489850    1.162560   -3.188569
     63          1           0        2.241160    0.416440   -2.972079
     64          6           0       -1.932061   -4.174950   -1.685609
     65          1           0       -2.299271   -5.171370   -1.473269
     66          6           0       -1.923860    3.147550    2.915571
     67          1           0       -2.590300    4.001121    2.908161
     68          6           0       -1.082131   -3.283980    4.391891
     69          1           0       -1.342321   -3.767890    5.324991
     70          6           0       -1.756580   -2.160810    2.363081
     71          1           0       -2.538770   -1.757099    1.734801
     72          6           0       -5.442930    0.874951    1.338901
     73          1           0       -5.165850    0.451141    2.304501
     74          1           0       -6.525740    1.003051    1.320031
     75          1           0       -4.978110    1.857581    1.257521
     76          6           0       -5.076120    0.566421   -1.218959
     77          6           0        0.251929   -3.155050    4.021981
     78          1           0        1.035139   -3.535510    4.665741
     79          6           0       -2.081611   -2.781830    3.563331
     80          1           0       -3.120811   -2.869549    3.855101
     81         45           0        2.291640   -0.769940   -0.158729
     82          6           0        3.319859   -2.798200    0.316601
     83          6           0        2.905209   -2.783720   -0.995609
     84          6           0        4.287470   -0.202950   -1.173209
     85          6           0        4.415280   -0.079590    0.192351
     86          6           0        4.733829   -2.556530    0.808841
     87          1           0        2.656919   -3.284280    1.021011
     88          1           0        1.954739   -3.258090   -1.218259
     89          6           0        3.747119   -2.482400   -2.209969
     90          6           0        4.788960   -1.359630   -2.016919
     91          1           0        4.063520    0.707910   -1.716079
     92          6           0        5.027210   -1.078530    1.142191
     93          1           0        4.291480    0.915870    0.605601
     94          1           0        4.893449   -3.150320    1.710581
     95          1           0        5.449369   -2.930930    0.077181
     96          1           0        4.249529   -3.401520   -2.537479
     97          1           0        3.070460   -2.210920   -3.023119
     98          1           0        5.705000   -1.761070   -1.584329
     99          1           0        5.068150   -0.976290   -2.999919
    100          1           0        4.652550   -0.857130    2.144361
    101          1           0        6.111650   -0.916571    1.189281
 ---------------------------------------------------------------------

 SCF Done:  E(RB3LYP) =  -2788.81981822     A.U. after   16 cycles

      1  P    Isotropic =   249.3816   Anisotropy =   104.3531

      2  P    Isotropic =   249.6604   Anisotropy =    82.6825

      3  O    Isotropic =   190.0631   Anisotropy =    92.6079

      4  O    Isotropic =   159.4865   Anisotropy =    51.9093

      5  O    Isotropic =   163.2867   Anisotropy =    77.4264

      6  C    Isotropic =    48.4133   Anisotropy =   169.6687

      7  C    Isotropic =    41.4328   Anisotropy =   170.4588

      8  C    Isotropic =    50.1607   Anisotropy =   188.2822

      9  H    Isotropic =    24.6754   Anisotropy =     8.0417

     10  C    Isotropic =    48.6157   Anisotropy =   165.8911

     11  C    Isotropic =    51.6827   Anisotropy =   160.4619

     12  C    Isotropic =    43.7697   Anisotropy =   196.7513

     13  H    Isotropic =    24.6525   Anisotropy =     5.6926

     14  C    Isotropic =    54.9818   Anisotropy =    45.5596

     15  C    Isotropic =    50.2227   Anisotropy =   188.6680

     16  H    Isotropic =    24.5337   Anisotropy =     7.5938

     17  C    Isotropic =    42.5763   Anisotropy =   188.7735

     18  H    Isotropic =    24.5010   Anisotropy =     9.0820

     19  C    Isotropic =    52.4861   Anisotropy =   186.6943

     20  H    Isotropic =    24.9664   Anisotropy =     7.4113

     21  C    Isotropic =    47.8928   Anisotropy =   194.6530

     22  H    Isotropic =    24.3174   Anisotropy =     3.6449

     23  C    Isotropic =    46.1733   Anisotropy =   193.0031

     24  H    Isotropic =    24.5208   Anisotropy =    13.3050

     25  C    Isotropic =    44.5954   Anisotropy =   170.0565

     26  C    Isotropic =    55.1393   Anisotropy =   187.8990

     27  H    Isotropic =    24.6272   Anisotropy =     9.2237

     28  C    Isotropic =    49.6289   Anisotropy =   187.5627

     29  H    Isotropic =    23.7610   Anisotropy =     6.1229

     30  B    Isotropic =    83.1853   Anisotropy =     6.4189

     31  C    Isotropic =    38.3506   Anisotropy =   194.3960

     32  H    Isotropic =    23.5691   Anisotropy =    10.3482

     33  C    Isotropic =    41.4032   Anisotropy =   181.3896

     34  H    Isotropic =    23.2794   Anisotropy =    10.4628

     35  C    Isotropic =   158.1481   Anisotropy =    31.1432

     36  H    Isotropic =    31.1772   Anisotropy =     6.3772

     37  H    Isotropic =    31.3432   Anisotropy =     9.4593

     38  H    Isotropic =    31.9092   Anisotropy =     9.9091

     39  C    Isotropic =   160.4792   Anisotropy =    33.1398

     40  H    Isotropic =    31.2703   Anisotropy =     4.3373

     41  H    Isotropic =    31.2366   Anisotropy =    11.1076

     42  H    Isotropic =    31.0393   Anisotropy =     7.3926

     43  C    Isotropic =    49.6445   Anisotropy =   186.4563

     44  H    Isotropic =    23.8783   Anisotropy =     7.0377

     45  C    Isotropic =    91.1784   Anisotropy =    72.1407

     46  C    Isotropic =    46.5927   Anisotropy =   190.8969

     47  H    Isotropic =    24.9912   Anisotropy =    12.4702

     48  C    Isotropic =    44.9663   Anisotropy =   197.8309

     49  H    Isotropic =    23.7520   Anisotropy =     3.4805

     50  C    Isotropic =    46.6750   Anisotropy =   195.5914

     51  H    Isotropic =    24.5186   Anisotropy =     3.7569

     52  C    Isotropic =    50.8155   Anisotropy =   187.0481

     53  H    Isotropic =    24.6815   Anisotropy =     7.6792

     54  C    Isotropic =    50.4293   Anisotropy =   186.9979

     55  H    Isotropic =    24.6238   Anisotropy =     6.6512

     56  C    Isotropic =    49.7021   Anisotropy =   191.8354

     57  H    Isotropic =    24.7548   Anisotropy =     3.1623

     58  C    Isotropic =   160.1227   Anisotropy =    36.4823

     59  H    Isotropic =    30.6170   Anisotropy =     7.0507

     60  H    Isotropic =    31.1294   Anisotropy =    10.9670

     61  H    Isotropic =    30.6338   Anisotropy =     8.9431

     62  C    Isotropic =    40.8571   Anisotropy =   180.9013

     63  H    Isotropic =    23.1631   Anisotropy =    10.0165

     64  C    Isotropic =    49.4683   Anisotropy =   188.6105

     65  H    Isotropic =    24.4464   Anisotropy =     6.0279

     66  C    Isotropic =    49.1237   Anisotropy =   191.4151

     67  H    Isotropic =    24.6640   Anisotropy =     5.7467

     68  C    Isotropic =    45.1448   Anisotropy =   198.3532

     69  H    Isotropic =    23.9591   Anisotropy =     3.3402

     70  C    Isotropic =    40.4098   Anisotropy =   202.4810

     71  H    Isotropic =    23.3811   Anisotropy =     7.7188

     72  C    Isotropic =   157.6471   Anisotropy =    31.4496

     73  H    Isotropic =    31.4110   Anisotropy =     5.3249

     74  H    Isotropic =    31.0981   Anisotropy =    10.7809

     75  H    Isotropic =    30.8697   Anisotropy =     4.9825

     76  C    Isotropic =    94.5350   Anisotropy =    63.7768

     77  C    Isotropic =    49.7680   Anisotropy =   186.2708

     78  H    Isotropic =    23.9111   Anisotropy =     6.7261

     79  C    Isotropic =    49.1196   Anisotropy =   189.3125

     80  H    Isotropic =    24.3352   Anisotropy =     7.4056

     81  Rh   Isotropic =  -301.1165   Anisotropy =   345.3597

     82  C    Isotropic =    80.1459   Anisotropy =   119.1059

     83  C    Isotropic =    69.0131   Anisotropy =   129.0944

     84  C    Isotropic =    79.7042   Anisotropy =   121.8530

     85  C    Isotropic =    71.1070   Anisotropy =   126.1774

     86  C    Isotropic =   154.3696   Anisotropy =    24.1468

     87  H    Isotropic =    26.5631   Anisotropy =     6.6313

     88  H    Isotropic =    26.7015   Anisotropy =     2.5967

     89  C    Isotropic =   147.5115   Anisotropy =    28.0461

     90  C    Isotropic =   154.1349   Anisotropy =    24.4821

     91  H    Isotropic =    27.0763   Anisotropy =     5.8163

     92  C    Isotropic =   147.6691   Anisotropy =    28.1688

     93  H    Isotropic =    26.4754   Anisotropy =     3.3237

     94  H    Isotropic =    29.6098   Anisotropy =    11.7689

     95  H    Isotropic =    29.5922   Anisotropy =    10.0949

     96  H    Isotropic =    29.2376   Anisotropy =    12.7683

     97  H    Isotropic =    29.2103   Anisotropy =     6.8341

     98  H    Isotropic =    29.6376   Anisotropy =    10.4165

     99  H    Isotropic =    29.7438   Anisotropy =    11.5677

    100  H    Isotropic =    28.8272   Anisotropy =     7.5193

    101  H    Isotropic =    29.0625   Anisotropy =    13.1191

 The electronic state is 1-A.
 Alpha  occ. eigenvalues --  -77.23145 -77.22939 -19.24132 -19.21848 -19.21176
 Alpha  occ. eigenvalues --  -10.37135 -10.32445 -10.32109 -10.28963 -10.28881
 Alpha  occ. eigenvalues --  -10.28868 -10.28742 -10.28705 -10.28567 -10.28338
 Alpha  occ. eigenvalues --  -10.28277 -10.28143 -10.27734 -10.27590 -10.27427
 Alpha  occ. eigenvalues --  -10.27347 -10.27267 -10.27163 -10.27162 -10.27153
 Alpha  occ. eigenvalues --  -10.27133 -10.27093 -10.27051 -10.26999 -10.26975
 Alpha  occ. eigenvalues --  -10.26949 -10.26926 -10.26831 -10.26819 -10.26753
 Alpha  occ. eigenvalues --  -10.26707 -10.26675 -10.26654 -10.26649 -10.26581
 Alpha  occ. eigenvalues --  -10.26497 -10.26457 -10.26452 -10.26113 -10.26081
 Alpha  occ. eigenvalues --  -10.25943 -10.24409 -10.24147 -10.23907 -10.23841
 Alpha  occ. eigenvalues --   -6.89267  -6.69045  -6.68850  -4.85323  -4.85264
 Alpha  occ. eigenvalues --   -4.85118  -4.85063  -4.84960  -4.84776  -3.30945
 Alpha  occ. eigenvalues --   -2.07825  -2.07162  -2.04427  -1.16071  -1.13519
 Alpha  occ. eigenvalues --   -1.08191  -0.96055  -0.95859  -0.95349  -0.95251
 Alpha  occ. eigenvalues --   -0.94997  -0.93992  -0.89278  -0.88720  -0.87968
 Alpha  occ. eigenvalues --   -0.87646  -0.86499  -0.85553  -0.84616  -0.84574
 Alpha  occ. eigenvalues --   -0.84423  -0.84348  -0.84083  -0.83964  -0.83701
 Alpha  occ. eigenvalues --   -0.83650  -0.80198  -0.79834  -0.78843  -0.77454
 Alpha  occ. eigenvalues --   -0.76070  -0.74914  -0.73689  -0.70802  -0.70690
 Alpha  occ. eigenvalues --   -0.70438  -0.70256  -0.70145  -0.70053  -0.69862
 Alpha  occ. eigenvalues --   -0.69431  -0.69347  -0.68715  -0.66836  -0.66327
 Alpha  occ. eigenvalues --   -0.65362  -0.64455  -0.63602  -0.62403  -0.61842
 Alpha  occ. eigenvalues --   -0.61302  -0.61140  -0.60722  -0.59848  -0.59471
 Alpha  occ. eigenvalues --   -0.57722  -0.56726  -0.56601  -0.55900  -0.55827
 Alpha  occ. eigenvalues --   -0.55508  -0.55411  -0.55234  -0.55082  -0.55030
 Alpha  occ. eigenvalues --   -0.54659  -0.54534  -0.54456  -0.54003  -0.53721
 Alpha  occ. eigenvalues --   -0.53340  -0.53327  -0.52744  -0.52577  -0.52374
 Alpha  occ. eigenvalues --   -0.52185  -0.52056  -0.51904  -0.51732  -0.51553
 Alpha  occ. eigenvalues --   -0.51467  -0.51142  -0.50506  -0.50316  -0.48782
 Alpha  occ. eigenvalues --   -0.48443  -0.48313  -0.48183  -0.48033  -0.47461
 Alpha  occ. eigenvalues --   -0.47306  -0.47277  -0.46959  -0.46729  -0.46433
 Alpha  occ. eigenvalues --   -0.46255  -0.45913  -0.45714  -0.45528  -0.45416
 Alpha  occ. eigenvalues --   -0.45180  -0.45164  -0.44677  -0.44657  -0.44488
 Alpha  occ. eigenvalues --   -0.44332  -0.44101  -0.43864  -0.43738  -0.43431
 Alpha  occ. eigenvalues --   -0.43093  -0.42849  -0.42725  -0.42522  -0.42180
 Alpha  occ. eigenvalues --   -0.42004  -0.40725  -0.40278  -0.39718  -0.39239
 Alpha  occ. eigenvalues --   -0.37370  -0.36976  -0.36372  -0.36065  -0.35509
 Alpha  occ. eigenvalues --   -0.35465  -0.35209  -0.35133  -0.35025  -0.34889
 Alpha  occ. eigenvalues --   -0.34565  -0.34327  -0.33986  -0.33541  -0.33063
 Alpha  occ. eigenvalues --   -0.32683  -0.30221
 Alpha virt. eigenvalues --   -0.16229  -0.13889  -0.13769  -0.13244  -0.11844
 Alpha virt. eigenvalues --   -0.11420  -0.11229  -0.10877  -0.10511  -0.09902
 Alpha virt. eigenvalues --   -0.09830  -0.09225  -0.08910  -0.07306  -0.06424

 Mulliken charges:
               1
     1  P    0.253927
     2  P    0.305074
     3  O   -0.263179
     4  O   -0.261701
     5  O   -0.231747
     6  C   -0.139923
     7  C   -0.073182
     8  C   -0.113884
     9  H    0.149881
    10  C   -0.432332
    11  C   -0.261097
    12  C   -0.019969
    13  H    0.203191
    14  C   -0.225824
    15  C   -0.144867
    16  H    0.124289
    17  C   -0.040713
    18  H    0.171341
    19  C   -0.120065
    20  H    0.117942
    21  C   -0.068080
    22  H    0.133514
    23  C   -0.018362
    24  H    0.177267
    25  C   -0.249148
    26  C   -0.095385
    27  H    0.141212
    28  C   -0.094909
    29  H    0.130241
    30  B    0.413461
    31  C   -0.046324
    32  H    0.166550
    33  C    0.031274
    34  H    0.155699
    35  C   -0.396932
    36  H    0.146355
    37  H    0.144901
    38  H    0.154131
    39  C   -0.364012
    40  H    0.146619
    41  H    0.145617
    42  H    0.137721
    43  C   -0.139906
    44  H    0.126314
    45  C    0.040170
    46  C   -0.032244
    47  H    0.165865
    48  C   -0.084854
    49  H    0.134284
    50  C   -0.084726
    51  H    0.133252
    52  C   -0.102978
    53  H    0.125850
    54  C   -0.116132
    55  H    0.129036
    56  C   -0.086338
    57  H    0.126960
    58  C   -0.333016
    59  H    0.136706
    60  H    0.135803
    61  H    0.143019
    62  C   -0.023382
    63  H    0.155788
    64  C   -0.131635
    65  H    0.127881
    66  C   -0.102927
    67  H    0.123123
    68  C   -0.053455
    69  H    0.134427
    70  C    0.061868
    71  H    0.258290
    72  C   -0.359483
    73  H    0.142752
    74  H    0.147868
    75  H    0.129147
    76  C    0.047350
    77  C   -0.155702
    78  H    0.125847
    79  C   -0.156949
    80  H    0.126546
    81  Rh  -0.529820
    82  C   -0.054392
    83  C   -0.093438
    84  C   -0.082647
    85  C   -0.071394
    86  C   -0.350502
    87  H    0.187893
    88  H    0.202993
    89  C   -0.214850
    90  C   -0.364021
    91  H    0.202975
    92  C   -0.224859
    93  H    0.216084
    94  H    0.165344
    95  H    0.166671
    96  H    0.172773
    97  H    0.135127
    98  H    0.169387
    99  H    0.166517
   100  H    0.124919
   101  H    0.172247
 Sum of Mulliken charges =   1.00000

 Dipole moment (field-independent basis, Debye):
    X=              0.9887    Y=             -1.0566    Z=              0.3910  Tot=              1.4989
 Quadrupole moment (field-independent basis, Debye-Ang):
   XX=           -256.7913   YY=           -283.5340   ZZ=           -277.8305
   XY=             -1.2923   XZ=              2.5057   YZ=             -0.8118

 Summary of Natural Population Analysis:

                                       Natural Population
                Natural  -----------------------------------------------
    Atom  No    Charge         Core      Valence    Rydberg      Total
 -----------------------------------------------------------------------
      P    1    1.08867      9.99634     3.86322    0.05177    13.91133
      P    2    1.06914      9.99638     3.88253    0.05196    13.93086
      O    3   -0.72180      1.99965     6.70507    0.01708     8.72180
      O    4   -0.72661      1.99969     6.71643    0.01050     8.72661
      O    5   -0.69279      1.99971     6.68285    0.01024     8.69279
      C    6   -0.34808      1.99896     4.32413    0.02499     6.34808
      C    7   -0.10994      1.99898     4.08755    0.02342     6.10994
      C    8   -0.19519      1.99909     4.18048    0.01562     6.19519
      H    9    0.21519      0.00000     0.78214    0.00267     0.78481
      C   10   -0.34762      1.99898     4.32383    0.02481     6.34762
      C   11   -0.34836      1.99896     4.32465    0.02476     6.34836
      C   12   -0.19379      1.99909     4.17756    0.01714     6.19379
      H   13    0.22861      0.00000     0.76880    0.00259     0.77139
      C   14   -0.11155      1.99916     4.07425    0.03814     6.11155
      C   15   -0.19864      1.99920     4.18399    0.01546     6.19864
      H   16    0.22044      0.00000     0.77814    0.00142     0.77956
      C   17   -0.18410      1.99910     4.16837    0.01663     6.18410
      H   18    0.21761      0.00000     0.78015    0.00224     0.78239
      C   19   -0.19287      1.99920     4.17838    0.01530     6.19287
      H   20    0.21595      0.00000     0.78268    0.00137     0.78405
      C   21   -0.18615      1.99919     4.17208    0.01488     6.18615
      H   22    0.22053      0.00000     0.77829    0.00117     0.77947
      C   23   -0.18587      1.99910     4.17105    0.01572     6.18587
      H   24    0.22327      0.00000     0.77474    0.00199     0.77673
      C   25   -0.33605      1.99896     4.31261    0.02448     6.33605
      C   26   -0.19777      1.99907     4.18226    0.01644     6.19777
      H   27    0.21538      0.00000     0.78237    0.00225     0.78462
      C   28   -0.19674      1.99918     4.18311    0.01445     6.19674
      H   29    0.22259      0.00000     0.77615    0.00126     0.77741
      B   30    1.25482      1.99899     1.70396    0.04224     3.74518
      C   31   -0.17503      1.99909     4.15970    0.01624     6.17503
      H   32    0.22285      0.00000     0.77487    0.00228     0.77715
      C   33   -0.19427      1.99909     4.17940    0.01578     6.19427
      H   34    0.21633      0.00000     0.78162    0.00206     0.78367
      C   35   -0.62133      1.99937     4.61294    0.00903     6.62133
      H   36    0.22165      0.00000     0.77684    0.00151     0.77835
      H   37    0.21432      0.00000     0.78446    0.00123     0.78568
      H   38    0.21171      0.00000     0.78633    0.00197     0.78829
      C   39   -0.61650      1.99935     4.60869    0.00846     6.61650
      H   40    0.21966      0.00000     0.77905    0.00130     0.78034
      H   41    0.21752      0.00000     0.78136    0.00112     0.78248
      H   42    0.21471      0.00000     0.78380    0.00149     0.78529
      C   43   -0.20460      1.99919     4.19087    0.01455     6.20460
      H   44    0.21928      0.00000     0.77945    0.00127     0.78072
      C   45    0.25247      1.99924     3.72935    0.01894     5.74753
      C   46   -0.19543      1.99909     4.18118    0.01517     6.19543
      H   47    0.22478      0.00000     0.77347    0.00175     0.77522
      C   48   -0.17397      1.99920     4.16032    0.01445     6.17397
      H   49    0.22104      0.00000     0.77777    0.00118     0.77896
      C   50   -0.17499      1.99920     4.16122    0.01457     6.17499
      H   51    0.22083      0.00000     0.77802    0.00115     0.77917
      C   52   -0.19774      1.99919     4.18345    0.01511     6.19774
      H   53    0.21898      0.00000     0.77972    0.00129     0.78102
      C   54   -0.19367      1.99920     4.17980    0.01468     6.19367
      H   55    0.22083      0.00000     0.77794    0.00123     0.77917
      C   56   -0.18911      1.99919     4.17496    0.01496     6.18911
      H   57    0.21888      0.00000     0.78002    0.00111     0.78112
      C   58   -0.61266      1.99936     4.60483    0.00847     6.61266
      H   59    0.21688      0.00000     0.78182    0.00130     0.78312
      H   60    0.21342      0.00000     0.78545    0.00113     0.78658
      H   61    0.22170      0.00000     0.77687    0.00143     0.77830
      C   62   -0.18405      1.99910     4.16945    0.01550     6.18405
      H   63    0.21922      0.00000     0.77846    0.00232     0.78078
      C   64   -0.19673      1.99919     4.18271    0.01483     6.19673
      H   65    0.22076      0.00000     0.77802    0.00122     0.77924
      C   66   -0.18959      1.99920     4.17525    0.01514     6.18959
      H   67    0.21752      0.00000     0.78112    0.00136     0.78248
      C   68   -0.17428      1.99920     4.16049    0.01459     6.17428
      H   69    0.22132      0.00000     0.77753    0.00115     0.77868
      C   70   -0.19161      1.99908     4.17496    0.01757     6.19161
      H   71    0.24859      0.00000     0.74870    0.00270     0.75141
      C   72   -0.62003      1.99936     4.61205    0.00863     6.62003
      H   73    0.21987      0.00000     0.77857    0.00156     0.78013
      H   74    0.21722      0.00000     0.78159    0.00118     0.78278
      H   75    0.21121      0.00000     0.78752    0.00127     0.78879
      C   76    0.24265      1.99923     3.73892    0.01920     5.75735
      C   77   -0.20208      1.99919     4.18800    0.01489     6.20208
      H   78    0.21995      0.00000     0.77882    0.00123     0.78005
      C   79   -0.19321      1.99919     4.17917    0.01486     6.19321
      H   80    0.21931      0.00000     0.77935    0.00133     0.78069
     Rh   81   -0.38968     35.98612     9.37769    0.02586    45.38968
      C   82   -0.19707      1.99908     4.17850    0.01950     6.19707
      C   83   -0.14831      1.99909     4.12959    0.01963     6.14831
      C   84   -0.18689      1.99907     4.16839    0.01943     6.18689
      C   85   -0.15813      1.99909     4.13935    0.01969     6.15813
      C   86   -0.42307      1.99935     4.41189    0.01183     6.42307
      H   87    0.22307      0.00000     0.77482    0.00211     0.77693
      H   88    0.23304      0.00000     0.76493    0.00203     0.76696
      C   89   -0.41878      1.99935     4.40693    0.01251     6.41878
      C   90   -0.42486      1.99935     4.41358    0.01192     6.42486
      H   91    0.22638      0.00000     0.77163    0.00199     0.77362
      C   92   -0.41698      1.99935     4.40509    0.01254     6.41698
      H   93    0.23285      0.00000     0.76498    0.00217     0.76715
      H   94    0.22632      0.00000     0.77217    0.00151     0.77368
      H   95    0.21531      0.00000     0.78273    0.00196     0.78469
      H   96    0.23482      0.00000     0.76331    0.00187     0.76518
      H   97    0.21687      0.00000     0.78152    0.00161     0.78313
      H   98    0.21607      0.00000     0.78199    0.00194     0.78393
      H   99    0.22697      0.00000     0.77154    0.00149     0.77303
      H  100    0.21485      0.00000     0.78356    0.00159     0.78515
      H  101    0.23436      0.00000     0.76377    0.00188     0.76564
 =======================================================================
   * Total *    1.00000    153.93931   267.02596    1.03472   422.00000

 Normal termination of Gaussian 16 at Tue Jan 21 00:24:22 2025.
