 Gaussian 16, Revision B.01,
 Gaussian 16:  ES64L-G16RevB.01 20-Dec-2017

 ------------------------------------------
 # nmr=giao b3lyp/genecp pop=nbo scfcyc=200
 ------------------------------------------

 --------
 DS-6_SPE
 --------
 Symbolic Z-matrix:
 Charge =  1 Multiplicity = 1

                         Standard orientation:
 ---------------------------------------------------------------------
 Center     Atomic      Atomic             Coordinates (Angstroms)
 Number     Number       Type             X           Y           Z
 ---------------------------------------------------------------------
      1         15           0        1.399880    0.104329   -0.614770
      2         15           0       -1.403110    0.097350   -0.632410
      3          6           0        0.009870    0.223790   -1.958170
      4          6           0        0.049130    1.453230   -2.862540
      5          6           0        0.025799   -1.035550   -2.835750
      6          6           0        2.670559   -1.034221   -1.312730
      7          6           0        3.479320   -0.650921   -2.390740
      8          6           0        4.380079   -1.550662   -2.946530
      9          6           0        4.482849   -2.843292   -2.438450
     10          6           0        3.676989   -3.235312   -1.376320
     11          6           0        2.772599   -2.336401   -0.818190
     12          6           0        2.255661    1.727839   -0.383800
     13          6           0        1.505961    2.888499   -0.154120
     14          6           0        2.136381    4.093949    0.126930
     15          6           0        3.524271    4.158229    0.207390
     16          6           0        4.276001    3.006208    0.012600
     17          6           0        3.649461    1.798028   -0.279290
     18          6           0       -2.720691   -1.075789   -1.196230
     19          6           0       -2.437941   -2.447399   -1.135740
     20          6           0       -3.389732   -3.386179   -1.511220
     21          6           0       -4.649821   -2.972008   -1.932870
     22          6           0       -4.950581   -1.616038   -1.969970
     23          6           0       -3.995490   -0.671939   -1.603800
     24          6           0       -2.199199    1.759281   -0.514770
     25          6           0       -2.797449    2.387451   -1.616190
     26          6           0       -3.387949    3.637771   -1.480770
     27          6           0       -3.389238    4.282501   -0.246850
     28          6           0       -2.791349    3.674051    0.850190
     29          6           0       -2.198499    2.422191    0.716340
     30          1           0       -0.747630    1.399580   -3.607500
     31          1           0       -0.045159    2.396290   -2.332100
     32          1           0        0.995790    1.471580   -3.408390
     33          1           0       -0.887481   -1.079030   -3.431330
     34          1           0        0.874399   -1.000450   -3.519350
     35          1           0        0.099479   -1.962500   -2.269830
     36          1           0        3.415490    0.351079   -2.795560
     37          1           0        5.002079   -1.242582   -3.777590
     38          1           0        5.187568   -3.541402   -2.872270
     39          1           0        3.749808   -4.240672   -0.980860
     40          1           0        2.136049   -2.651631   -0.001990
     41          1           0        0.425301    2.860900   -0.178470
     42          1           0        1.540332    4.983339    0.289090
     43          1           0        4.014182    5.097828    0.429120
     44          1           0        5.355751    3.041548    0.086020
     45          1           0        4.256360    0.915158   -0.421060
     46          1           0       -1.471381   -2.785400   -0.783650
     47          1           0       -3.151242   -4.441389   -1.464220
     48          1           0       -5.395272   -3.703068   -2.219100
     49          1           0       -5.934001   -1.285548   -2.279950
     50          1           0       -4.262790    0.374082   -1.623370
     51          1           0       -2.806169    1.908131   -2.585530
     52          1           0       -3.847119    4.109161   -2.340660
     53          1           0       -3.852428    5.255731   -0.144100
     54          1           0       -2.784988    4.171481    1.811970
     55          1           0       -1.721369    1.959201    1.569320
     56         45           0       -0.001630   -0.515520    1.157290
     57          6           0        1.505489   -1.435861    2.640050
     58          6           0        1.385650   -0.086491    2.888560
     59          6           0       -1.505710   -0.579809    2.906420
     60          6           0       -1.386281   -1.839360    2.363590
     61          6           0        0.843879   -2.546960    3.433430
     62          1           0        2.338819   -1.739011    2.017430
     63          1           0        2.135930    0.565509    2.452880
     64          6           0        0.535930    0.568860    3.948410
     65          6           0       -0.840290   -0.092090    4.179540
     66          1           0       -2.341930    0.015681    2.558240
     67          6           0       -0.531801   -2.971520    2.876840
     68          1           0       -2.143891   -2.137869    1.646790
     69          1           0        1.501768   -3.417701    3.425500
     70          1           0        0.756249   -2.251020    4.478550
     71          1           0        1.094020    0.600499    4.892750
     72          1           0        0.390350    1.611580    3.657580
     73          1           0       -0.751851   -0.916690    4.886380
     74          1           0       -1.496850    0.638111    4.655810
     75          1           0       -0.382952   -3.674760    2.054060
     76          1           0       -1.086542   -3.527000    3.643610
 ---------------------------------------------------------------------

 SCF Done:  E(RB3LYP) =  -2150.25055381     A.U. after   16 cycles

      1  P    Isotropic =   273.1902   Anisotropy =    83.5319

      2  P    Isotropic =   278.1917   Anisotropy =    78.9543

      3  C    Isotropic =   100.3225   Anisotropy =    70.5090

      4  C    Isotropic =   156.2443   Anisotropy =    21.9919

      5  C    Isotropic =   155.9061   Anisotropy =    11.1910

      6  C    Isotropic =    50.1763   Anisotropy =   170.5181

      7  C    Isotropic =    44.0040   Anisotropy =   188.4454

      8  C    Isotropic =    49.0780   Anisotropy =   188.8547

      9  C    Isotropic =    44.4810   Anisotropy =   198.8375

     10  C    Isotropic =    48.7130   Anisotropy =   188.2796

     11  C    Isotropic =    41.2475   Anisotropy =   180.3566

     12  C    Isotropic =    46.4554   Anisotropy =   166.5816

     13  C    Isotropic =    45.3638   Anisotropy =   188.5604

     14  C    Isotropic =    50.0089   Anisotropy =   187.4378

     15  C    Isotropic =    47.0677   Anisotropy =   194.6991

     16  C    Isotropic =    49.0194   Anisotropy =   188.6877

     17  C    Isotropic =    46.7408   Anisotropy =   187.9240

     18  C    Isotropic =    49.0503   Anisotropy =   164.7928

     19  C    Isotropic =    42.6204   Anisotropy =   182.8856

     20  C    Isotropic =    49.8452   Anisotropy =   186.1467

     21  C    Isotropic =    45.9031   Anisotropy =   196.3830

     22  C    Isotropic =    49.0935   Anisotropy =   188.1304

     23  C    Isotropic =    46.1020   Anisotropy =   191.1831

     24  C    Isotropic =    50.3772   Anisotropy =   166.4288

     25  C    Isotropic =    41.6819   Anisotropy =   187.3863

     26  C    Isotropic =    49.4861   Anisotropy =   187.9451

     27  C    Isotropic =    44.3909   Anisotropy =   199.5459

     28  C    Isotropic =    48.3635   Anisotropy =   189.0151

     29  C    Isotropic =    40.1243   Anisotropy =   180.3300

     30  H    Isotropic =    30.6282   Anisotropy =    10.0942

     31  H    Isotropic =    30.0699   Anisotropy =     4.0567

     32  H    Isotropic =    30.9480   Anisotropy =     9.5257

     33  H    Isotropic =    31.2915   Anisotropy =     7.3595

     34  H    Isotropic =    31.2786   Anisotropy =     7.9489

     35  H    Isotropic =    30.4615   Anisotropy =     3.7213

     36  H    Isotropic =    24.3276   Anisotropy =    12.0414

     37  H    Isotropic =    24.0958   Anisotropy =     6.1575

     38  H    Isotropic =    23.8759   Anisotropy =     3.8815

     39  H    Isotropic =    23.9129   Anisotropy =     7.1295

     40  H    Isotropic =    23.4498   Anisotropy =    10.4056

     41  H    Isotropic =    24.6218   Anisotropy =     7.3327

     42  H    Isotropic =    24.4383   Anisotropy =     8.4369

     43  H    Isotropic =    24.2245   Anisotropy =     4.2182

     44  H    Isotropic =    24.3382   Anisotropy =     6.2441

     45  H    Isotropic =    24.6924   Anisotropy =    12.5935

     46  H    Isotropic =    23.8045   Anisotropy =    10.1207

     47  H    Isotropic =    24.0768   Anisotropy =     7.5401

     48  H    Isotropic =    24.1116   Anisotropy =     4.1764

     49  H    Isotropic =    24.2612   Anisotropy =     6.5979

     50  H    Isotropic =    24.2725   Anisotropy =    13.2805

     51  H    Isotropic =    23.9885   Anisotropy =    11.0376

     52  H    Isotropic =    23.8501   Anisotropy =     5.8660

     53  H    Isotropic =    23.7400   Anisotropy =     3.7772

     54  H    Isotropic =    23.7925   Anisotropy =     7.2533

     55  H    Isotropic =    23.0497   Anisotropy =    10.3538

     56  Rh   Isotropic =  -299.4211   Anisotropy =   348.1329

     57  C    Isotropic =    79.8226   Anisotropy =   119.8616

     58  C    Isotropic =    70.9665   Anisotropy =   126.1923

     59  C    Isotropic =    78.0092   Anisotropy =   123.1866

     60  C    Isotropic =    70.9212   Anisotropy =   125.4766

     61  C    Isotropic =   154.1402   Anisotropy =    24.3609

     62  H    Isotropic =    26.7650   Anisotropy =     6.4810

     63  H    Isotropic =    26.8968   Anisotropy =     2.8458

     64  C    Isotropic =   147.7978   Anisotropy =    27.9988

     65  C    Isotropic =   154.0951   Anisotropy =    24.5732

     66  H    Isotropic =    26.9921   Anisotropy =     6.0369

     67  C    Isotropic =   148.0900   Anisotropy =    27.6425

     68  H    Isotropic =    26.5564   Anisotropy =     3.4001

     69  H    Isotropic =    29.6691   Anisotropy =    11.6287

     70  H    Isotropic =    29.6559   Anisotropy =     9.7577

     71  H    Isotropic =    29.2714   Anisotropy =    12.5869

     72  H    Isotropic =    29.2882   Anisotropy =     7.2408

     73  H    Isotropic =    29.7076   Anisotropy =     9.9610

     74  H    Isotropic =    29.7932   Anisotropy =    11.5486

     75  H    Isotropic =    28.8650   Anisotropy =     7.6271

     76  H    Isotropic =    29.0820   Anisotropy =    12.7555

 The electronic state is 1-A.
 Alpha  occ. eigenvalues --  -77.23619 -77.23550 -10.32156 -10.29978 -10.29697
 Alpha  occ. eigenvalues --  -10.29654 -10.29624 -10.29073 -10.28997 -10.28803
 Alpha  occ. eigenvalues --  -10.28761 -10.28680 -10.28648 -10.28498 -10.28483
 Alpha  occ. eigenvalues --  -10.28267 -10.28085 -10.28051 -10.28047 -10.27991
 Alpha  occ. eigenvalues --  -10.27950 -10.27940 -10.27823 -10.27751 -10.27727
 Alpha  occ. eigenvalues --  -10.27585 -10.27544 -10.27520 -10.27444 -10.27379
 Alpha  occ. eigenvalues --  -10.27347 -10.27343 -10.27322 -10.27298 -10.27243
 Alpha  occ. eigenvalues --  -10.27117 -10.27100  -6.69534  -6.69490  -4.85790
 Alpha  occ. eigenvalues --   -4.85772  -4.85750  -4.85724  -4.85454  -4.85406
 Alpha  occ. eigenvalues --   -3.31397  -2.08284  -2.07619  -2.04874  -0.97084
 Alpha  occ. eigenvalues --   -0.96814  -0.96185  -0.96028  -0.94416  -0.91923
 Alpha  occ. eigenvalues --   -0.89152  -0.88041  -0.87344  -0.86602  -0.85754
 Alpha  occ. eigenvalues --   -0.85508  -0.85368  -0.85149  -0.84953  -0.84790
 Alpha  occ. eigenvalues --   -0.80362  -0.79743  -0.77855  -0.77646  -0.75643
 Alpha  occ. eigenvalues --   -0.71719  -0.71494  -0.71029  -0.70925  -0.70589
 Alpha  occ. eigenvalues --   -0.70368  -0.70224  -0.70040  -0.67199  -0.65802
 Alpha  occ. eigenvalues --   -0.64938  -0.62635  -0.62447  -0.62090  -0.60811
 Alpha  occ. eigenvalues --   -0.60236  -0.59902  -0.57296  -0.57172  -0.56795
 Alpha  occ. eigenvalues --   -0.56421  -0.56248  -0.56124  -0.55890  -0.55586
 Alpha  occ. eigenvalues --   -0.55488  -0.55298  -0.54499  -0.54193  -0.53748
 Alpha  occ. eigenvalues --   -0.53371  -0.53104  -0.52948  -0.52659  -0.52576
 Alpha  occ. eigenvalues --   -0.52354  -0.52187  -0.51530  -0.50900  -0.49737
 Alpha  occ. eigenvalues --   -0.49522  -0.48683  -0.48172  -0.48044  -0.47724
 Alpha  occ. eigenvalues --   -0.47430  -0.47268  -0.47067  -0.46315  -0.46129
 Alpha  occ. eigenvalues --   -0.46079  -0.45952  -0.45435  -0.45255  -0.44846
 Alpha  occ. eigenvalues --   -0.44690  -0.43497  -0.43390  -0.43158  -0.43023
 Alpha  occ. eigenvalues --   -0.42219  -0.41514  -0.41181  -0.37796  -0.37506
 Alpha  occ. eigenvalues --   -0.36752  -0.36426  -0.36294  -0.36170  -0.35830
 Alpha  occ. eigenvalues --   -0.35746  -0.35624  -0.35226  -0.34709  -0.34031
 Alpha  occ. eigenvalues --   -0.33454  -0.30672
 Alpha virt. eigenvalues --   -0.16480  -0.14614  -0.14384  -0.13390  -0.12699
 Alpha virt. eigenvalues --   -0.12103  -0.11789  -0.11331  -0.11053  -0.10747
 Alpha virt. eigenvalues --   -0.09365  -0.07927  -0.06746  -0.06318  -0.06044

 Mulliken charges:
               1
     1  P    0.358129
     2  P    0.283371
     3  C   -0.297748
     4  C   -0.312090
     5  C   -0.396087
     6  C   -0.218504
     7  C   -0.124938
     8  C   -0.077617
     9  C   -0.090485
    10  C   -0.116423
    11  C   -0.055325
    12  C   -0.214076
    13  C   -0.065255
    14  C   -0.143749
    15  C   -0.075775
    16  C   -0.117015
    17  C   -0.043104
    18  C   -0.204875
    19  C   -0.067718
    20  C   -0.106898
    21  C   -0.083328
    22  C   -0.121785
    23  C   -0.017280
    24  C   -0.234040
    25  C   -0.146267
    26  C   -0.075302
    27  C   -0.096212
    28  C   -0.118442
    29  C   -0.043675
    30  H    0.143104
    31  H    0.158731
    32  H    0.150408
    33  H    0.173751
    34  H    0.163707
    35  H    0.141397
    36  H    0.161026
    37  H    0.135850
    38  H    0.140838
    39  H    0.130467
    40  H    0.166295
    41  H    0.198201
    42  H    0.127975
    43  H    0.137391
    44  H    0.132963
    45  H    0.169474
    46  H    0.182188
    47  H    0.131415
    48  H    0.137794
    49  H    0.133096
    50  H    0.181530
    51  H    0.174733
    52  H    0.137707
    53  H    0.139709
    54  H    0.131543
    55  H    0.172798
    56  Rh  -0.568284
    57  C   -0.049417
    58  C   -0.101327
    59  C   -0.062509
    60  C   -0.087418
    61  C   -0.345486
    62  H    0.193273
    63  H    0.204002
    64  C   -0.216586
    65  C   -0.358973
    66  H    0.195006
    67  C   -0.230013
    68  H    0.220717
    69  H    0.167133
    70  H    0.167000
    71  H    0.173794
    72  H    0.133162
    73  H    0.167617
    74  H    0.167140
    75  H    0.125716
    76  H    0.173875
 Sum of Mulliken charges =   1.00000

 Dipole moment (field-independent basis, Debye):
    X=             -0.0709    Y=              0.0939    Z=             -0.4687  Tot=              0.4833
 Quadrupole moment (field-independent basis, Debye-Ang):
   XX=           -199.0736   YY=           -201.4220   ZZ=           -217.4893
   XY=             -5.5142   XZ=              0.3079   YZ=              1.0211

 Summary of Natural Population Analysis:

                                       Natural Population
                Natural  -----------------------------------------------
    Atom  No    Charge         Core      Valence    Rydberg      Total
 -----------------------------------------------------------------------
      P    1    1.11802      9.99634     3.83430    0.05134    13.88198
      P    2    1.10221      9.99638     3.84942    0.05200    13.89779
      C    3   -0.47386      1.99942     4.44887    0.02557     6.47386
      C    4   -0.62401      1.99934     4.61279    0.01188     6.62401
      C    5   -0.61756      1.99935     4.60773    0.01047     6.61756
      C    6   -0.34671      1.99899     4.32363    0.02409     6.34671
      C    7   -0.19928      1.99909     4.18323    0.01696     6.19928
      C    8   -0.19328      1.99919     4.17909    0.01499     6.19328
      C    9   -0.17372      1.99920     4.16003    0.01449     6.17372
      C   10   -0.19567      1.99919     4.18191    0.01456     6.19567
      C   11   -0.18786      1.99909     4.17306    0.01571     6.18786
      C   12   -0.34298      1.99897     4.32028    0.02373     6.34298
      C   13   -0.19772      1.99910     4.18257    0.01606     6.19772
      C   14   -0.19302      1.99919     4.17890    0.01493     6.19302
      C   15   -0.18085      1.99920     4.16697    0.01468     6.18085
      C   16   -0.19146      1.99920     4.17757    0.01469     6.19146
      C   17   -0.19953      1.99910     4.18524    0.01519     6.19953
      C   18   -0.34629      1.99897     4.32298    0.02434     6.34629
      C   19   -0.19324      1.99910     4.17866    0.01549     6.19324
      C   20   -0.19712      1.99919     4.18323    0.01470     6.19712
      C   21   -0.17591      1.99920     4.16211    0.01460     6.17591
      C   22   -0.19060      1.99920     4.17687    0.01454     6.19060
      C   23   -0.19148      1.99910     4.17687    0.01551     6.19148
      C   24   -0.34944      1.99897     4.32576    0.02471     6.34944
      C   25   -0.19880      1.99910     4.18205    0.01765     6.19880
      C   26   -0.19587      1.99919     4.18154    0.01514     6.19587
      C   27   -0.17252      1.99920     4.15882    0.01450     6.17252
      C   28   -0.19899      1.99919     4.18516    0.01463     6.19899
      C   29   -0.18590      1.99911     4.17054    0.01625     6.18590
      H   30    0.21772      0.00000     0.78042    0.00186     0.78228
      H   31    0.22199      0.00000     0.77591    0.00210     0.77801
      H   32    0.22195      0.00000     0.77614    0.00191     0.77805
      H   33    0.22363      0.00000     0.77426    0.00211     0.77637
      H   34    0.22495      0.00000     0.77296    0.00209     0.77505
      H   35    0.21792      0.00000     0.78045    0.00163     0.78208
      H   36    0.21819      0.00000     0.77900    0.00281     0.78181
      H   37    0.22416      0.00000     0.77457    0.00126     0.77584
      H   38    0.22395      0.00000     0.77489    0.00116     0.77605
      H   39    0.22167      0.00000     0.77710    0.00123     0.77833
      H   40    0.21902      0.00000     0.77895    0.00203     0.78098
      H   41    0.21707      0.00000     0.78053    0.00240     0.78293
      H   42    0.22032      0.00000     0.77840    0.00128     0.77968
      H   43    0.22252      0.00000     0.77631    0.00117     0.77748
      H   44    0.22253      0.00000     0.77624    0.00123     0.77747
      H   45    0.22392      0.00000     0.77434    0.00174     0.77608
      H   46    0.21567      0.00000     0.78223    0.00211     0.78433
      H   47    0.22116      0.00000     0.77759    0.00125     0.77884
      H   48    0.22323      0.00000     0.77559    0.00118     0.77677
      H   49    0.22269      0.00000     0.77609    0.00122     0.77731
      H   50    0.22238      0.00000     0.77577    0.00185     0.77762
      H   51    0.21559      0.00000     0.78172    0.00269     0.78441
      H   52    0.22435      0.00000     0.77439    0.00126     0.77565
      H   53    0.22414      0.00000     0.77472    0.00113     0.77586
      H   54    0.22191      0.00000     0.77687    0.00123     0.77809
      H   55    0.22306      0.00000     0.77473    0.00221     0.77694
     Rh   56   -0.39682     35.98621     9.38310    0.02750    45.39682
      C   57   -0.18842      1.99908     4.16983    0.01952     6.18842
      C   58   -0.15252      1.99909     4.13383    0.01960     6.15252
      C   59   -0.18407      1.99907     4.16549    0.01951     6.18407
      C   60   -0.15858      1.99909     4.13981    0.01968     6.15858
      C   61   -0.42331      1.99936     4.41211    0.01184     6.42331
      H   62    0.22488      0.00000     0.77300    0.00212     0.77512
      H   63    0.23206      0.00000     0.76592    0.00202     0.76794
      C   64   -0.41841      1.99935     4.40653    0.01253     6.41841
      C   65   -0.42452      1.99935     4.41326    0.01190     6.42452
      H   66    0.22530      0.00000     0.77271    0.00199     0.77470
      C   67   -0.41753      1.99935     4.40552    0.01267     6.41753
      H   68    0.23260      0.00000     0.76525    0.00215     0.76740
      H   69    0.22716      0.00000     0.77134    0.00150     0.77284
      H   70    0.21573      0.00000     0.78231    0.00196     0.78427
      H   71    0.23519      0.00000     0.76294    0.00186     0.76481
      H   72    0.21662      0.00000     0.78179    0.00159     0.78338
      H   73    0.21613      0.00000     0.78191    0.00195     0.78387
      H   74    0.22731      0.00000     0.77121    0.00148     0.77269
      H   75    0.21405      0.00000     0.78428    0.00167     0.78595
      H   76    0.23488      0.00000     0.76324    0.00188     0.76512
 =======================================================================
   * Total *    1.00000    125.94981   195.27571    0.77448   322.00000

 Normal termination of Gaussian 16 at Sun Jan 19 21:15:33 2025.
