 Gaussian 16, Revision B.01,
 Gaussian 16:  ES64L-G16RevB.01 20-Dec-2017

 ------------------------------------------
 # nmr=giao b3lyp/genecp pop=nbo scfcyc=200
 ------------------------------------------

 --------
 DS-7_SPE
 --------
 Symbolic Z-matrix:
 Charge =  1 Multiplicity = 1

                         Standard orientation:
 ---------------------------------------------------------------------
 Center     Atomic      Atomic             Coordinates (Angstroms)
 Number     Number       Type             X           Y           Z
 ---------------------------------------------------------------------
      1         15           0        1.404550   -0.031350   -0.590391
      2         15           0       -1.404280    0.031780   -0.590851
      3          6           0        0.000330    0.000760   -1.824681
      4          6           0       -0.018900   -0.740010   -3.153181
      5          6           0        0.019960    0.742380   -3.152681
      6          6           0        2.433660   -1.503810   -0.989151
      7          6           0        3.323860   -1.512190   -2.070361
      8          6           0        4.029950   -2.667010   -2.385971
      9          6           0        3.853920   -3.823970   -1.631461
     10          6           0        2.968060   -3.825050   -0.559791
     11          6           0        2.260370   -2.670550   -0.239281
     12          6           0        2.479210    1.444210   -0.841821
     13          6           0        3.847440    1.381020   -0.555261
     14          6           0        4.632970    2.527230   -0.623231
     15          6           0        4.063700    3.747550   -0.970001
     16          6           0        2.700660    3.820910   -1.240731
     17          6           0        1.910000    2.680010   -1.169611
     18          6           0       -2.479450   -1.443040   -0.844281
     19          6           0       -3.847810   -1.379489   -0.558441
     20          6           0       -4.633820   -2.525279   -0.627891
     21          6           0       -4.064920   -3.745539   -0.975451
     22          6           0       -2.701760   -3.819280   -1.245451
     23          6           0       -1.910610   -2.678800   -1.172841
     24          6           0       -2.432590    1.505210   -0.988041
     25          6           0       -3.322810    1.515320   -2.069201
     26          6           0       -4.028130    2.670961   -2.383581
     27          6           0       -3.851250    3.827021   -1.627911
     28          6           0       -2.965340    3.826390   -0.556281
     29          6           0       -2.258460    2.671060   -0.236961
     30          1           0       -0.944450   -1.232280   -3.421381
     31          1           0        0.874220   -1.288110   -3.424771
     32          1           0        0.945600    1.234790   -3.420281
     33          1           0       -0.873060    1.290670   -3.424181
     34          1           0        3.479410   -0.617870   -2.660541
     35          1           0        4.719250   -2.662830   -3.221021
     36          1           0        4.408300   -4.720620   -1.878271
     37          1           0        2.830370   -4.722220    0.030649
     38          1           0        1.569300   -2.673640    0.594549
     39          1           0        4.308700    0.440090   -0.285141
     40          1           0        5.691790    2.462940   -0.405941
     41          1           0        4.677681    4.637440   -1.026051
     42          1           0        2.249911    4.768890   -1.506711
     43          1           0        0.849560    2.759640   -1.370231
     44          1           0       -4.308810   -0.438589   -0.287741
     45          1           0       -5.692750   -2.460689   -0.411161
     46          1           0       -4.679260   -4.635099   -1.032671
     47          1           0       -2.251260   -4.767210   -1.512021
     48          1           0       -0.850090   -2.758760   -1.372881
     49          1           0       -3.478990    0.621730   -2.660301
     50          1           0       -4.717480    2.668101   -3.218601
     51          1           0       -4.405019    4.724311   -1.873761
     52          1           0       -2.826999    4.722860    0.035079
     53          1           0       -1.567390    2.672810    0.596879
     54         45           0       -0.000230   -0.001010    1.293689
     55          6           0       -1.445360    0.607850    2.966489
     56          6           0       -1.479630   -0.761920    2.818059
     57          6           0        1.443910   -0.612040    2.966629
     58          6           0        1.478300    0.757900    2.819989
     59          6           0       -0.698450    1.363240    4.050169
     60          1           0       -2.213480    1.172060    2.449439
     61          1           0       -2.281710   -1.175800    2.215469
     62          6           0       -0.735210   -1.782070    3.643499
     63          6           0        0.696310   -1.368830    4.048849
     64          1           0        2.212380   -1.175580    2.449359
     65          6           0        0.733350    1.776970    3.646279
     66          1           0        2.280730    1.172550    2.218419
     67          1           0       -1.261410    2.265980    4.293359
     68          1           0       -0.679050    0.769620    4.963799
     69          1           0       -1.318930   -2.022780    4.540989
     70          1           0       -0.691030   -2.706480    3.063379
     71          1           0        0.676310   -0.776390    4.963229
     72          1           0        1.259140   -2.271880    4.291259
     73          1           0        0.689560    2.702160    3.067369
     74          1           0        1.316480    2.016490    4.544479
 ---------------------------------------------------------------------

 SCF Done:  E(RB3LYP) =  -2149.01896782     A.U. after   15 cycles

      1  P    Isotropic =   283.6253   Anisotropy =    91.3888

      2  P    Isotropic =   283.6178   Anisotropy =    91.4231

      3  C    Isotropic =   134.2179   Anisotropy =   115.5961

      4  C    Isotropic =   160.4478   Anisotropy =    34.5142

      5  C    Isotropic =   160.4519   Anisotropy =    34.5161

      6  C    Isotropic =    48.5890   Anisotropy =   172.9309

      7  C    Isotropic =    45.4830   Anisotropy =   189.3984

      8  C    Isotropic =    48.5794   Anisotropy =   189.7383

      9  C    Isotropic =    44.4243   Anisotropy =   198.6531

     10  C    Isotropic =    48.3384   Anisotropy =   189.2309

     11  C    Isotropic =    41.8699   Anisotropy =   180.3392

     12  C    Isotropic =    46.8776   Anisotropy =   166.1733

     13  C    Isotropic =    47.6535   Anisotropy =   188.4107

     14  C    Isotropic =    48.4486   Anisotropy =   190.3961

     15  C    Isotropic =    46.7430   Anisotropy =   194.7977

     16  C    Isotropic =    49.3316   Anisotropy =   188.7435

     17  C    Isotropic =    46.6927   Anisotropy =   191.1243

     18  C    Isotropic =    46.8903   Anisotropy =   166.1669

     19  C    Isotropic =    47.6525   Anisotropy =   188.4099

     20  C    Isotropic =    48.4504   Anisotropy =   190.3922

     21  C    Isotropic =    46.7438   Anisotropy =   194.8000

     22  C    Isotropic =    49.3269   Anisotropy =   188.7507

     23  C    Isotropic =    46.6898   Anisotropy =   191.1297

     24  C    Isotropic =    48.5963   Anisotropy =   172.9437

     25  C    Isotropic =    45.4830   Anisotropy =   189.4014

     26  C    Isotropic =    48.5805   Anisotropy =   189.7381

     27  C    Isotropic =    44.4234   Anisotropy =   198.6425

     28  C    Isotropic =    48.3358   Anisotropy =   189.2339

     29  C    Isotropic =    41.8630   Anisotropy =   180.3419

     30  H    Isotropic =    30.5711   Anisotropy =     9.7836

     31  H    Isotropic =    30.8032   Anisotropy =    12.2094

     32  H    Isotropic =    30.5719   Anisotropy =     9.7833

     33  H    Isotropic =    30.8037   Anisotropy =    12.2076

     34  H    Isotropic =    24.5983   Anisotropy =    12.1018

     35  H    Isotropic =    24.0828   Anisotropy =     6.2668

     36  H    Isotropic =    23.8359   Anisotropy =     3.8013

     37  H    Isotropic =    23.8722   Anisotropy =     7.1204

     38  H    Isotropic =    23.3260   Anisotropy =    10.3538

     39  H    Isotropic =    24.7376   Anisotropy =    12.1609

     40  H    Isotropic =    24.2522   Anisotropy =     6.2345

     41  H    Isotropic =    24.1032   Anisotropy =     3.8086

     42  H    Isotropic =    24.1371   Anisotropy =     7.4740

     43  H    Isotropic =    24.2592   Anisotropy =    10.1188

     44  H    Isotropic =    24.7363   Anisotropy =    12.1616

     45  H    Isotropic =    24.2520   Anisotropy =     6.2347

     46  H    Isotropic =    24.1032   Anisotropy =     3.8082

     47  H    Isotropic =    24.1367   Anisotropy =     7.4733

     48  H    Isotropic =    24.2588   Anisotropy =    10.1228

     49  H    Isotropic =    24.5971   Anisotropy =    12.1009

     50  H    Isotropic =    24.0825   Anisotropy =     6.2654

     51  H    Isotropic =    23.8359   Anisotropy =     3.8017

     52  H    Isotropic =    23.8720   Anisotropy =     7.1212

     53  H    Isotropic =    23.3245   Anisotropy =    10.3532

     54  Rh   Isotropic =  -302.4182   Anisotropy =   334.5547

     55  C    Isotropic =    78.8209   Anisotropy =   121.4001

     56  C    Isotropic =    72.7536   Anisotropy =   122.9653

     57  C    Isotropic =    78.8131   Anisotropy =   121.4124

     58  C    Isotropic =    72.7511   Anisotropy =   122.9728

     59  C    Isotropic =   154.1093   Anisotropy =    24.8461

     60  H    Isotropic =    26.8862   Anisotropy =     6.1835

     61  H    Isotropic =    26.9730   Anisotropy =     3.8745

     62  C    Isotropic =   148.1523   Anisotropy =    28.9215

     63  C    Isotropic =   154.1084   Anisotropy =    24.8474

     64  H    Isotropic =    26.8847   Anisotropy =     6.1868

     65  C    Isotropic =   148.1510   Anisotropy =    28.9189

     66  H    Isotropic =    26.9715   Anisotropy =     3.8711

     67  H    Isotropic =    29.8430   Anisotropy =    11.5716

     68  H    Isotropic =    29.8148   Anisotropy =     9.8202

     69  H    Isotropic =    29.3052   Anisotropy =    12.5749

     70  H    Isotropic =    29.3274   Anisotropy =     7.1486

     71  H    Isotropic =    29.8145   Anisotropy =     9.8199

     72  H    Isotropic =    29.8424   Anisotropy =    11.5729

     73  H    Isotropic =    29.3276   Anisotropy =     7.1489

     74  H    Isotropic =    29.3049   Anisotropy =    12.5754

 The electronic state is 1-A.
 Alpha  occ. eigenvalues --  -77.23753 -77.23752 -10.31551 -10.29774 -10.29773
 Alpha  occ. eigenvalues --  -10.29643 -10.29642 -10.29239 -10.29208 -10.28937
 Alpha  occ. eigenvalues --  -10.28937 -10.28705 -10.28705 -10.28603 -10.28603
 Alpha  occ. eigenvalues --  -10.28567 -10.28567 -10.28209 -10.28208 -10.28152
 Alpha  occ. eigenvalues --  -10.28151 -10.27922 -10.27921 -10.27855 -10.27854
 Alpha  occ. eigenvalues --  -10.27830 -10.27830 -10.27513 -10.27513 -10.27461
 Alpha  occ. eigenvalues --  -10.27460 -10.27409 -10.27409 -10.27384 -10.27384
 Alpha  occ. eigenvalues --  -10.27208 -10.27208  -6.69704  -6.69703  -4.85980
 Alpha  occ. eigenvalues --   -4.85979  -4.85933  -4.85932  -4.85611  -4.85611
 Alpha  occ. eigenvalues --   -3.31374  -2.08269  -2.07618  -2.04834  -0.98438
 Alpha  occ. eigenvalues --   -0.96846  -0.96556  -0.96171  -0.96127  -0.94303
 Alpha  occ. eigenvalues --   -0.89046  -0.87901  -0.87793  -0.87444  -0.85597
 Alpha  occ. eigenvalues --   -0.85583  -0.85302  -0.85257  -0.84961  -0.84955
 Alpha  occ. eigenvalues --   -0.80358  -0.79693  -0.77718  -0.75893  -0.72170
 Alpha  occ. eigenvalues --   -0.71750  -0.71444  -0.71175  -0.70750  -0.70471
 Alpha  occ. eigenvalues --   -0.70400  -0.70344  -0.70283  -0.67317  -0.65703
 Alpha  occ. eigenvalues --   -0.65127  -0.62533  -0.62449  -0.62135  -0.61271
 Alpha  occ. eigenvalues --   -0.61101  -0.59875  -0.59478  -0.57916  -0.56913
 Alpha  occ. eigenvalues --   -0.56334  -0.56292  -0.56138  -0.56098  -0.55872
 Alpha  occ. eigenvalues --   -0.55545  -0.55538  -0.54730  -0.54107  -0.53545
 Alpha  occ. eigenvalues --   -0.53038  -0.52990  -0.52670  -0.52596  -0.52488
 Alpha  occ. eigenvalues --   -0.52482  -0.51937  -0.51454  -0.49470  -0.49002
 Alpha  occ. eigenvalues --   -0.48761  -0.48284  -0.47756  -0.47666  -0.47477
 Alpha  occ. eigenvalues --   -0.47116  -0.46792  -0.46093  -0.45901  -0.45673
 Alpha  occ. eigenvalues --   -0.45411  -0.45230  -0.45146  -0.44993  -0.44778
 Alpha  occ. eigenvalues --   -0.43588  -0.43379  -0.42988  -0.42939  -0.41453
 Alpha  occ. eigenvalues --   -0.41326  -0.40969  -0.37993  -0.37513  -0.36849
 Alpha  occ. eigenvalues --   -0.36461  -0.36438  -0.36233  -0.35914  -0.35839
 Alpha  occ. eigenvalues --   -0.35522  -0.35196  -0.34492  -0.34086  -0.33543
 Alpha  occ. eigenvalues --   -0.30520
 Alpha virt. eigenvalues --   -0.16482  -0.14795  -0.14119  -0.13284  -0.12891
 Alpha virt. eigenvalues --   -0.12347  -0.11917  -0.11111  -0.10861  -0.10337
 Alpha virt. eigenvalues --   -0.09173  -0.07668  -0.07192  -0.06078  -0.05782

 Mulliken charges:
               1
     1  P    0.542448
     2  P    0.542536
     3  C   -0.448792
     4  C   -0.290564
     5  C   -0.290539
     6  C   -0.240652
     7  C   -0.127499
     8  C   -0.073985
     9  C   -0.091366
    10  C   -0.108845
    11  C   -0.078062
    12  C   -0.208481
    13  C   -0.087447
    14  C   -0.101679
    15  C   -0.089128
    16  C   -0.110289
    17  C   -0.099137
    18  C   -0.208577
    19  C   -0.087394
    20  C   -0.101732
    21  C   -0.089114
    22  C   -0.110254
    23  C   -0.099128
    24  C   -0.240675
    25  C   -0.127523
    26  C   -0.074010
    27  C   -0.091352
    28  C   -0.108824
    29  C   -0.078167
    30  H    0.190298
    31  H    0.193945
    32  H    0.190281
    33  H    0.193922
    34  H    0.162272
    35  H    0.137752
    36  H    0.140523
    37  H    0.132059
    38  H    0.181947
    39  H    0.162206
    40  H    0.134809
    41  H    0.139329
    42  H    0.130463
    43  H    0.190563
    44  H    0.162236
    45  H    0.134806
    46  H    0.139337
    47  H    0.130468
    48  H    0.190501
    49  H    0.162319
    50  H    0.137751
    51  H    0.140524
    52  H    0.132057
    53  H    0.182058
    54  Rh  -0.663837
    55  C   -0.042901
    56  C   -0.100216
    57  C   -0.042896
    58  C   -0.100183
    59  C   -0.343995
    60  H    0.196221
    61  H    0.205705
    62  C   -0.227162
    63  C   -0.343970
    64  H    0.196155
    65  C   -0.227140
    66  H    0.205678
    67  H    0.167345
    68  H    0.166086
    69  H    0.172396
    70  H    0.131346
    71  H    0.166088
    72  H    0.167339
    73  H    0.131352
    74  H    0.172400
 Sum of Mulliken charges =   1.00000

 Dipole moment (field-independent basis, Debye):
    X=             -0.0005    Y=             -0.0003    Z=             -0.5440  Tot=              0.5440
 Quadrupole moment (field-independent basis, Debye-Ang):
   XX=           -196.3139   YY=           -199.1125   ZZ=           -217.1389
   XY=             -3.7869   XZ=              0.0018   YZ=              0.0058

 Summary of Natural Population Analysis:

                                       Natural Population
                Natural  -----------------------------------------------
    Atom  No    Charge         Core      Valence    Rydberg      Total
 -----------------------------------------------------------------------
      P    1    1.14711      9.99628     3.80318    0.05342    13.85289
      P    2    1.14720      9.99628     3.80309    0.05343    13.85280
      C    3   -0.62473      1.99934     4.59790    0.02750     6.62473
      C    4   -0.37918      1.99926     4.36785    0.01206     6.37918
      C    5   -0.37920      1.99926     4.36787    0.01206     6.37920
      C    6   -0.34813      1.99899     4.32541    0.02373     6.34813
      C    7   -0.19792      1.99910     4.18284    0.01599     6.19792
      C    8   -0.19283      1.99920     4.17900    0.01463     6.19283
      C    9   -0.17476      1.99921     4.16106    0.01450     6.17476
      C   10   -0.19584      1.99920     4.18211    0.01453     6.19584
      C   11   -0.18870      1.99910     4.17412    0.01548     6.18870
      C   12   -0.34361      1.99898     4.32116    0.02347     6.34361
      C   13   -0.20201      1.99910     4.18778    0.01514     6.20201
      C   14   -0.19087      1.99920     4.17694    0.01473     6.19087
      C   15   -0.18192      1.99920     4.16803    0.01469     6.18192
      C   16   -0.19240      1.99920     4.17858    0.01463     6.19240
      C   17   -0.19707      1.99910     4.18274    0.01523     6.19707
      C   18   -0.34365      1.99898     4.32120    0.02347     6.34365
      C   19   -0.20201      1.99910     4.18778    0.01514     6.20201
      C   20   -0.19087      1.99920     4.17694    0.01473     6.19087
      C   21   -0.18192      1.99920     4.16803    0.01469     6.18192
      C   22   -0.19240      1.99920     4.17857    0.01463     6.19240
      C   23   -0.19706      1.99910     4.18273    0.01523     6.19706
      C   24   -0.34814      1.99899     4.32542    0.02373     6.34814
      C   25   -0.19793      1.99910     4.18284    0.01599     6.19793
      C   26   -0.19282      1.99920     4.17900    0.01463     6.19282
      C   27   -0.17477      1.99921     4.16106    0.01450     6.17477
      C   28   -0.19584      1.99920     4.18211    0.01453     6.19584
      C   29   -0.18871      1.99910     4.17413    0.01548     6.18871
      H   30    0.22682      0.00000     0.77104    0.00213     0.77318
      H   31    0.22891      0.00000     0.76901    0.00208     0.77109
      H   32    0.22682      0.00000     0.77105    0.00213     0.77318
      H   33    0.22891      0.00000     0.76901    0.00208     0.77109
      H   34    0.22050      0.00000     0.77757    0.00193     0.77950
      H   35    0.22426      0.00000     0.77451    0.00123     0.77574
      H   36    0.22388      0.00000     0.77495    0.00117     0.77612
      H   37    0.22180      0.00000     0.77697    0.00122     0.77820
      H   38    0.22255      0.00000     0.77549    0.00196     0.77745
      H   39    0.22182      0.00000     0.77643    0.00175     0.77818
      H   40    0.22297      0.00000     0.77582    0.00122     0.77703
      H   41    0.22297      0.00000     0.77586    0.00117     0.77703
      H   42    0.22105      0.00000     0.77772    0.00123     0.77895
      H   43    0.21721      0.00000     0.78054    0.00225     0.78279
      H   44    0.22183      0.00000     0.77642    0.00175     0.77817
      H   45    0.22297      0.00000     0.77581    0.00122     0.77703
      H   46    0.22298      0.00000     0.77585    0.00117     0.77702
      H   47    0.22106      0.00000     0.77771    0.00123     0.77894
      H   48    0.21721      0.00000     0.78054    0.00225     0.78279
      H   49    0.22050      0.00000     0.77757    0.00194     0.77950
      H   50    0.22426      0.00000     0.77451    0.00123     0.77574
      H   51    0.22388      0.00000     0.77495    0.00117     0.77612
      H   52    0.22180      0.00000     0.77697    0.00122     0.77820
      H   53    0.22256      0.00000     0.77547    0.00196     0.77744
     Rh   54   -0.39194     35.98607     9.37760    0.02828    45.39194
      C   55   -0.18005      1.99907     4.16130    0.01967     6.18005
      C   56   -0.15612      1.99908     4.13733    0.01970     6.15612
      C   57   -0.18004      1.99907     4.16130    0.01967     6.18004
      C   58   -0.15613      1.99908     4.13734    0.01970     6.15613
      C   59   -0.42369      1.99936     4.41249    0.01184     6.42369
      H   60    0.22557      0.00000     0.77237    0.00206     0.77443
      H   61    0.23090      0.00000     0.76702    0.00208     0.76910
      C   62   -0.41852      1.99935     4.40655    0.01262     6.41852
      C   63   -0.42369      1.99936     4.41250    0.01184     6.42369
      H   64    0.22557      0.00000     0.77237    0.00206     0.77443
      C   65   -0.41853      1.99935     4.40655    0.01262     6.41853
      H   66    0.23090      0.00000     0.76702    0.00208     0.76910
      H   67    0.22759      0.00000     0.77091    0.00149     0.77241
      H   68    0.21508      0.00000     0.78295    0.00198     0.78492
      H   69    0.23414      0.00000     0.76397    0.00190     0.76586
      H   70    0.21681      0.00000     0.78163    0.00156     0.78319
      H   71    0.21508      0.00000     0.78294    0.00198     0.78492
      H   72    0.22759      0.00000     0.77091    0.00149     0.77241
      H   73    0.21680      0.00000     0.78164    0.00156     0.78320
      H   74    0.23414      0.00000     0.76396    0.00190     0.76586
 =======================================================================
   * Total *    1.00000    125.94934   193.28188    0.76878   320.00000

 Normal termination of Gaussian 16 at Sun Jan 19 21:05:23 2025.
