 Gaussian 16, Revision B.01,
 Gaussian 16:  ES64L-G16RevB.01 20-Dec-2017

 ------------------------------------------
 # nmr=giao b3lyp/genecp pop=nbo scfcyc=200
 ------------------------------------------

 --------
 DS-8_SPE
 --------
 Symbolic Z-matrix:
 Charge =  1 Multiplicity = 1

                         Standard orientation:
 ---------------------------------------------------------------------
 Center     Atomic      Atomic             Coordinates (Angstroms)
 Number     Number       Type             X           Y           Z
 ---------------------------------------------------------------------
      1         15           0       -0.877991    1.152649   -0.834470
      2          6           0       -1.539782    2.458979    0.296270
      3          6           0       -0.849253    3.656529    0.512900
      4          6           0       -1.375893    4.631569    1.352040
      5          6           0       -2.596213    4.423038    1.988380
      6          6           0       -3.285312    3.232688    1.786630
      7          6           0       -2.758121    2.254498    0.949620
      8          1           0        0.103237    3.831780    0.030700
      9          1           0       -0.832894    5.555379    1.508890
     10          1           0       -3.004534    5.183438    2.642050
     11          1           0       -4.231082    3.060687    2.285040
     12          1           0       -3.293911    1.325158    0.815910
     13          6           0        0.955239    1.129481   -0.516330
     14         15           0        1.084931   -0.509079    0.350600
     15          6           0        1.939489    1.900872   -0.882960
     16          6           0        1.621420   -0.216039    2.086700
     17          6           0        2.460121   -1.428868   -0.454230
     18          6           0        2.976028    2.614283   -1.236070
     19          6           0        2.092281   -1.294588    2.845630
     20          6           0        1.464129    1.030761    2.695900
     21          6           0        2.165962   -2.290538   -1.515000
     22          6           0        3.793311   -1.226937   -0.082230
     23          6           0        3.699488    2.362253   -2.537690
     24          6           0        3.496767    3.737303   -0.371150
     25          6           0        2.415611   -1.119978    4.185880
     26          1           0        2.226492   -2.268998    2.391490
     27          6           0        1.787459    1.199152    4.038720
     28          1           0        1.088959    1.871971    2.128680
     29          6           0        3.189543   -2.943457   -2.193050
     30          1           0        1.135022   -2.446799   -1.808460
     31          6           0        4.812782   -1.884736   -0.761230
     32          1           0        4.037841   -0.566977    0.739680
     33          1           0        4.753189    2.147284   -2.341670
     34          1           0        3.275129    1.526973   -3.091430
     35          1           0        3.663408    3.255953   -3.167090
     36          1           0        2.937557    3.839282    0.557230
     37          1           0        4.546897    3.560654   -0.123980
     38          1           0        3.448937    4.684773   -0.915320
     39          6           0        2.263500    0.127092    4.785320
     40          1           0        2.788282   -1.958278    4.761100
     41          1           0        1.666419    2.171131    4.500440
     42          6           0        4.513402   -2.743036   -1.815400
     43          1           0        2.953143   -3.612408   -3.011080
     44          1           0        5.842362   -1.729235   -0.463790
     45          1           0        2.516280    0.261512    5.829420
     46          1           0        5.310183   -3.256526   -2.338710
     47         45           0       -1.142849   -1.116081   -0.075560
     48          6           0       -0.967317   -3.338761    0.376270
     49          6           0       -1.366028   -2.659921    1.513110
     50          6           0       -3.418589   -1.473113   -0.185830
     51          6           0       -2.831528   -1.917302   -1.349420
     52          6           0       -1.875506   -4.153251   -0.526060
     53          1           0        0.091183   -3.552250    0.280850
     54          1           0       -0.595698   -2.403890    2.233650
     55          6           0       -2.770518   -2.535382    2.049730
     56          6           0       -3.859438   -2.347583    0.971790
     57          1           0       -3.842499   -0.476023   -0.207420
     58          6           0       -2.466337   -3.339472   -1.695710
     59          1           0       -2.853339   -1.245672   -2.200310
     60          1           0       -1.302126   -4.985141   -0.938360
     61          1           0       -2.672596   -4.604772    0.064500
     62          1           0       -3.005837   -3.412072    2.666410
     63          1           0       -2.788488   -1.680612    2.729160
     64          1           0       -4.193267   -3.314133    0.594640
     65          1           0       -4.733508   -1.891704    1.439750
     66          1           0       -1.740837   -3.306821   -2.511590
     67          1           0       -3.346897   -3.853242   -2.101780
     68          6           0       -1.227581    1.749419   -2.615180
     69          6           0       -2.754941    1.793038   -2.789070
     70          1           0       -2.987681    2.089448   -3.815060
     71          1           0       -3.223670    0.823218   -2.616050
     72          1           0       -3.219172    2.521548   -2.123010
     73          6           0       -0.646582    3.142990   -2.888160
     74          1           0       -0.870212    3.420389   -3.922150
     75          1           0       -1.088053    3.903179   -2.243940
     76          1           0        0.436018    3.168860   -2.766670
     77          6           0       -0.608540    0.723200   -3.576070
     78          1           0        0.477750    0.683901   -3.483670
     79          1           0       -0.998449   -0.282071   -3.408910
     80          1           0       -0.843780    1.006089   -4.605190
 ---------------------------------------------------------------------

 SCF Done:  E(RB3LYP) =  -2152.63694966     A.U. after   17 cycles

      1  P    Isotropic =   277.9787   Anisotropy =    72.4568

      2  C    Isotropic =    46.7698   Anisotropy =   171.9246

      3  C    Isotropic =    46.1915   Anisotropy =   189.7318

      4  C    Isotropic =    49.6100   Anisotropy =   187.4790

      5  C    Isotropic =    45.5646   Anisotropy =   196.6769

      6  C    Isotropic =    49.5105   Anisotropy =   187.3748

      7  C    Isotropic =    42.6387   Anisotropy =   183.4424

      8  H    Isotropic =    23.9300   Anisotropy =     9.6561

      9  H    Isotropic =    23.9923   Anisotropy =     6.5217

     10  H    Isotropic =    23.9816   Anisotropy =     3.6063

     11  H    Isotropic =    24.1188   Anisotropy =     6.5966

     12  H    Isotropic =    23.9382   Anisotropy =     9.6190

     13  C    Isotropic =    74.6910   Anisotropy =    46.9731

     14  P    Isotropic =   285.1050   Anisotropy =    82.3988

     15  C    Isotropic =   -38.3346   Anisotropy =    35.4652

     16  C    Isotropic =    44.9078   Anisotropy =   168.9747

     17  C    Isotropic =    44.6235   Anisotropy =   173.2354

     18  C    Isotropic =    75.5880   Anisotropy =   122.7931

     19  C    Isotropic =    48.4361   Anisotropy =   188.3091

     20  C    Isotropic =    48.0569   Anisotropy =   188.8135

     21  C    Isotropic =    43.1990   Anisotropy =   180.6322

     22  C    Isotropic =    45.8856   Anisotropy =   191.4781

     23  C    Isotropic =   164.8767   Anisotropy =    26.4235

     24  C    Isotropic =   164.1803   Anisotropy =    28.1734

     25  C    Isotropic =    48.8261   Anisotropy =   190.5083

     26  H    Isotropic =    24.8688   Anisotropy =    11.1777

     27  C    Isotropic =    49.4897   Anisotropy =   188.5449

     28  H    Isotropic =    24.6011   Anisotropy =     8.4527

     29  C    Isotropic =    49.3953   Anisotropy =   187.3088

     30  H    Isotropic =    23.1665   Anisotropy =     9.4698

     31  C    Isotropic =    49.0843   Anisotropy =   188.7641

     32  H    Isotropic =    24.6924   Anisotropy =    11.2140

     33  H    Isotropic =    30.4659   Anisotropy =     8.3775

     34  H    Isotropic =    30.7275   Anisotropy =     4.8526

     35  H    Isotropic =    30.2590   Anisotropy =     9.6277

     36  H    Isotropic =    29.8295   Anisotropy =     5.5669

     37  H    Isotropic =    30.1483   Anisotropy =     9.0875

     38  H    Isotropic =    30.0201   Anisotropy =     9.7774

     39  C    Isotropic =    46.8495   Anisotropy =   195.3388

     40  H    Isotropic =    24.3224   Anisotropy =     6.0927

     41  H    Isotropic =    24.5040   Anisotropy =     7.6771

     42  C    Isotropic =    45.2513   Anisotropy =   197.2773

     43  H    Isotropic =    23.9875   Anisotropy =     7.0427

     44  H    Isotropic =    24.2930   Anisotropy =     6.1024

     45  H    Isotropic =    24.2230   Anisotropy =     3.8790

     46  H    Isotropic =    23.9744   Anisotropy =     3.8286

     47  Rh   Isotropic =  -321.9816   Anisotropy =   350.0549

     48  C    Isotropic =    84.3783   Anisotropy =   114.1156

     49  C    Isotropic =    75.5251   Anisotropy =   118.7972

     50  C    Isotropic =    80.3690   Anisotropy =   120.5539

     51  C    Isotropic =    72.9105   Anisotropy =   121.7263

     52  C    Isotropic =   154.4143   Anisotropy =    23.8720

     53  H    Isotropic =    27.1419   Anisotropy =     5.2616

     54  H    Isotropic =    26.9652   Anisotropy =     5.0567

     55  C    Isotropic =   147.7811   Anisotropy =    29.3584

     56  C    Isotropic =   154.2484   Anisotropy =    24.3958

     57  H    Isotropic =    26.5709   Anisotropy =     6.1777

     58  C    Isotropic =   146.7360   Anisotropy =    29.6740

     59  H    Isotropic =    25.5606   Anisotropy =     3.1363

     60  H    Isotropic =    29.7547   Anisotropy =    11.2611

     61  H    Isotropic =    29.7440   Anisotropy =     9.7550

     62  H    Isotropic =    29.2760   Anisotropy =    12.6350

     63  H    Isotropic =    29.4113   Anisotropy =     6.9078

     64  H    Isotropic =    29.7562   Anisotropy =     9.7440

     65  H    Isotropic =    29.8078   Anisotropy =    11.5845

     66  H    Isotropic =    28.7814   Anisotropy =     7.3138

     67  H    Isotropic =    28.9434   Anisotropy =    12.6545

     68  C    Isotropic =   135.2369   Anisotropy =    30.3545

     69  C    Isotropic =   157.9818   Anisotropy =    39.5255

     70  H    Isotropic =    31.0345   Anisotropy =    11.0403

     71  H    Isotropic =    31.1599   Anisotropy =     6.8328

     72  H    Isotropic =    31.2044   Anisotropy =     6.1499

     73  C    Isotropic =   158.3537   Anisotropy =    38.2295

     74  H    Isotropic =    31.0314   Anisotropy =    10.9290

     75  H    Isotropic =    30.7356   Anisotropy =     6.8822

     76  H    Isotropic =    30.5509   Anisotropy =     8.6993

     77  C    Isotropic =   156.4704   Anisotropy =    39.2205

     78  H    Isotropic =    30.5239   Anisotropy =     6.0062

     79  H    Isotropic =    30.2754   Anisotropy =     7.1049

     80  H    Isotropic =    30.7017   Anisotropy =    10.2816

 The electronic state is 1-A.
 Alpha  occ. eigenvalues --  -77.23574 -77.22949 -10.30479 -10.30365 -10.30275
 Alpha  occ. eigenvalues --  -10.29835 -10.29294 -10.29283 -10.29259 -10.29115
 Alpha  occ. eigenvalues --  -10.28816 -10.28709 -10.28469 -10.28099 -10.28091
 Alpha  occ. eigenvalues --  -10.28088 -10.28017 -10.27954 -10.27818 -10.27481
 Alpha  occ. eigenvalues --  -10.27470 -10.27458 -10.27428 -10.27389 -10.27360
 Alpha  occ. eigenvalues --  -10.27347 -10.27240 -10.27225 -10.27223 -10.27197
 Alpha  occ. eigenvalues --  -10.27152 -10.27124 -10.27098 -10.27075 -10.26191
 Alpha  occ. eigenvalues --  -10.26187 -10.25768  -6.69527  -6.68892  -4.85818
 Alpha  occ. eigenvalues --   -4.85736  -4.85438  -4.85208  -4.85066  -4.84799
 Alpha  occ. eigenvalues --   -3.31297  -2.08163  -2.07523  -2.04765  -0.96569
 Alpha  occ. eigenvalues --   -0.96265  -0.95811  -0.94291  -0.93636  -0.92047
 Alpha  occ. eigenvalues --   -0.88998  -0.88721  -0.87869  -0.86240  -0.85201
 Alpha  occ. eigenvalues --   -0.85104  -0.84995  -0.84782  -0.84613  -0.80212
 Alpha  occ. eigenvalues --   -0.79951  -0.79054  -0.78804  -0.77929  -0.77664
 Alpha  occ. eigenvalues --   -0.75270  -0.72615  -0.71024  -0.70879  -0.70708
 Alpha  occ. eigenvalues --   -0.70390  -0.69971  -0.68949  -0.67504  -0.65742
 Alpha  occ. eigenvalues --   -0.64493  -0.62782  -0.62159  -0.61958  -0.60484
 Alpha  occ. eigenvalues --   -0.59954  -0.58164  -0.57278  -0.56993  -0.56184
 Alpha  occ. eigenvalues --   -0.56158  -0.55938  -0.55786  -0.55633  -0.55299
 Alpha  occ. eigenvalues --   -0.54842  -0.54339  -0.54158  -0.53999  -0.53510
 Alpha  occ. eigenvalues --   -0.53473  -0.52983  -0.52641  -0.52526  -0.52469
 Alpha  occ. eigenvalues --   -0.52348  -0.52283  -0.51385  -0.50035  -0.49138
 Alpha  occ. eigenvalues --   -0.49031  -0.48754  -0.48723  -0.48339  -0.47830
 Alpha  occ. eigenvalues --   -0.47549  -0.47445  -0.47304  -0.46980  -0.46845
 Alpha  occ. eigenvalues --   -0.46402  -0.46180  -0.45814  -0.45445  -0.45017
 Alpha  occ. eigenvalues --   -0.44874  -0.44603  -0.44516  -0.44031  -0.43910
 Alpha  occ. eigenvalues --   -0.43205  -0.42940  -0.42746  -0.42200  -0.40725
 Alpha  occ. eigenvalues --   -0.38520  -0.37791  -0.37153  -0.36418  -0.36141
 Alpha  occ. eigenvalues --   -0.35938  -0.35790  -0.35467  -0.35185  -0.34700
 Alpha  occ. eigenvalues --   -0.34192  -0.33749  -0.33319  -0.30495
 Alpha virt. eigenvalues --   -0.16930  -0.14600  -0.13658  -0.12860  -0.12235
 Alpha virt. eigenvalues --   -0.11798  -0.11686  -0.10822  -0.10370  -0.09548
 Alpha virt. eigenvalues --   -0.09056  -0.07730  -0.06822  -0.06039  -0.05676

 Mulliken charges:
               1
     1  P    0.341321
     2  C   -0.204744
     3  C   -0.066258
     4  C   -0.124342
     5  C   -0.074531
     6  C   -0.127575
     7  C    0.029645
     8  H    0.169659
     9  H    0.129158
    10  H    0.139086
    11  H    0.128718
    12  H    0.099712
    13  C   -0.928600
    14  P    0.492111
    15  C    0.530556
    16  C   -0.164488
    17  C   -0.285520
    18  C   -0.010791
    19  C   -0.123188
    20  C   -0.038887
    21  C   -0.047226
    22  C   -0.046144
    23  C   -0.365908
    24  C   -0.371280
    25  C   -0.091194
    26  H    0.159952
    27  C   -0.122660
    28  H    0.160647
    29  C   -0.107744
    30  H    0.173990
    31  C   -0.094846
    32  H    0.156725
    33  H    0.150497
    34  H    0.147458
    35  H    0.150464
    36  H    0.142069
    37  H    0.151473
    38  H    0.151226
    39  C   -0.090231
    40  H    0.134299
    41  H    0.129759
    42  C   -0.090964
    43  H    0.130143
    44  H    0.134591
    45  H    0.137018
    46  H    0.137706
    47  Rh  -0.563650
    48  C   -0.055872
    49  C   -0.094854
    50  C   -0.017066
    51  C   -0.102363
    52  C   -0.360885
    53  H    0.209818
    54  H    0.207791
    55  C   -0.212461
    56  C   -0.375173
    57  H    0.177364
    58  C   -0.215476
    59  H    0.169072
    60  H    0.168079
    61  H    0.167783
    62  H    0.169678
    63  H    0.135534
    64  H    0.169495
    65  H    0.166447
    66  H    0.127872
    67  H    0.171726
    68  C    0.006365
    69  C   -0.417081
    70  H    0.153066
    71  H    0.137366
    72  H    0.160910
    73  C   -0.418639
    74  H    0.147922
    75  H    0.159053
    76  H    0.150484
    77  C   -0.379020
    78  H    0.143203
    79  H    0.125250
    80  H    0.157403
 Sum of Mulliken charges =   1.00000

 Dipole moment (field-independent basis, Debye):
    X=              0.9934    Y=              0.9018    Z=             -0.5124  Tot=              1.4362
 Quadrupole moment (field-independent basis, Debye-Ang):
   XX=           -202.3611   YY=           -204.2755   ZZ=           -218.8342
   XY=              5.0080   XZ=             -3.7872   YZ=              3.6150

 Summary of Natural Population Analysis:

                                       Natural Population
                Natural  -----------------------------------------------
    Atom  No    Charge         Core      Valence    Rydberg      Total
 -----------------------------------------------------------------------
      P    1    1.08430      9.99654     3.86809    0.05107    13.91570
      C    2   -0.33842      1.99897     4.31501    0.02444     6.33842
      C    3   -0.20116      1.99909     4.18496    0.01712     6.20116
      C    4   -0.19571      1.99919     4.18153    0.01498     6.19571
      C    5   -0.17762      1.99920     4.16384    0.01458     6.17762
      C    6   -0.19452      1.99920     4.18081    0.01451     6.19452
      C    7   -0.18342      1.99910     4.16879    0.01553     6.18342
      H    8    0.21578      0.00000     0.78177    0.00245     0.78422
      H    9    0.22046      0.00000     0.77826    0.00128     0.77954
      H   10    0.22253      0.00000     0.77630    0.00117     0.77747
      H   11    0.22111      0.00000     0.77765    0.00124     0.77889
      H   12    0.21292      0.00000     0.78513    0.00195     0.78708
      C   13   -0.69482      1.99883     4.66921    0.02678     6.69482
      P   14    1.13860      9.99630     3.81028    0.05482    13.86140
      C   15    0.12871      1.99878     3.84993    0.02258     5.87129
      C   16   -0.34074      1.99899     4.31803    0.02372     6.34074
      C   17   -0.34318      1.99898     4.31920    0.02500     6.34318
      C   18   -0.04276      1.99893     4.03277    0.01107     6.04276
      C   19   -0.20220      1.99909     4.18793    0.01518     6.20220
      C   20   -0.19283      1.99909     4.17819    0.01555     6.19283
      C   21   -0.18672      1.99911     4.17154    0.01608     6.18672
      C   22   -0.18911      1.99910     4.17266    0.01735     6.18911
      C   23   -0.60587      1.99937     4.59806    0.00844     6.60587
      C   24   -0.60501      1.99937     4.59750    0.00814     6.60501
      C   25   -0.19149      1.99920     4.17758    0.01472     6.19149
      H   26    0.21801      0.00000     0.78022    0.00178     0.78199
      C   27   -0.19081      1.99920     4.17708    0.01453     6.19081
      H   28    0.21948      0.00000     0.77808    0.00244     0.78052
      C   29   -0.19825      1.99920     4.18431    0.01474     6.19825
      H   30    0.22109      0.00000     0.77687    0.00204     0.77891
      C   31   -0.19481      1.99920     4.18052    0.01510     6.19481
      H   32    0.22286      0.00000     0.77502    0.00211     0.77714
      H   33    0.22650      0.00000     0.77200    0.00150     0.77350
      H   34    0.22173      0.00000     0.77684    0.00142     0.77827
      H   35    0.22385      0.00000     0.77465    0.00150     0.77615
      H   36    0.21878      0.00000     0.77996    0.00126     0.78122
      H   37    0.22663      0.00000     0.77191    0.00145     0.77337
      H   38    0.22435      0.00000     0.77412    0.00153     0.77565
      C   39   -0.18288      1.99920     4.16900    0.01468     6.18288
      H   40    0.22224      0.00000     0.77653    0.00123     0.77776
      H   41    0.22000      0.00000     0.77876    0.00124     0.78000
      C   42   -0.17681      1.99921     4.16296    0.01464     6.17681
      H   43    0.22053      0.00000     0.77824    0.00122     0.77947
      H   44    0.22188      0.00000     0.77686    0.00126     0.77812
      H   45    0.22209      0.00000     0.77673    0.00118     0.77791
      H   46    0.22233      0.00000     0.77653    0.00114     0.77767
     Rh   47   -0.35522     35.98579     9.34067    0.02876    45.35522
      C   48   -0.18525      1.99907     4.16689    0.01929     6.18525
      C   49   -0.15421      1.99908     4.13567    0.01946     6.15421
      C   50   -0.18523      1.99907     4.16657    0.01959     6.18523
      C   51   -0.15480      1.99908     4.13541    0.02032     6.15480
      C   52   -0.42300      1.99936     4.41172    0.01193     6.42300
      H   53    0.22547      0.00000     0.77239    0.00215     0.77453
      H   54    0.22959      0.00000     0.76809    0.00232     0.77041
      C   55   -0.41797      1.99935     4.40603    0.01259     6.41797
      C   56   -0.42367      1.99936     4.41244    0.01187     6.42367
      H   57    0.21945      0.00000     0.77851    0.00204     0.78055
      C   58   -0.41822      1.99935     4.40619    0.01268     6.41822
      H   59    0.22103      0.00000     0.77672    0.00225     0.77897
      H   60    0.22744      0.00000     0.77107    0.00149     0.77256
      H   61    0.21492      0.00000     0.78309    0.00200     0.78508
      H   62    0.23335      0.00000     0.76477    0.00189     0.76665
      H   63    0.21891      0.00000     0.77944    0.00165     0.78109
      H   64    0.21508      0.00000     0.78293    0.00199     0.78492
      H   65    0.22733      0.00000     0.77118    0.00150     0.77267
      H   66    0.21384      0.00000     0.78454    0.00162     0.78616
      H   67    0.23382      0.00000     0.76427    0.00191     0.76618
      C   68   -0.25238      1.99943     4.23520    0.01774     6.25238
      C   69   -0.60584      1.99935     4.59827    0.00822     6.60584
      H   70    0.22364      0.00000     0.77462    0.00174     0.77636
      H   71    0.20406      0.00000     0.79448    0.00147     0.79594
      H   72    0.21874      0.00000     0.77976    0.00150     0.78126
      C   73   -0.60877      1.99935     4.59977    0.00964     6.60877
      H   74    0.22002      0.00000     0.77822    0.00176     0.77998
      H   75    0.21699      0.00000     0.78149    0.00151     0.78301
      H   76    0.21100      0.00000     0.78733    0.00167     0.78900
      C   77   -0.60141      1.99935     4.59417    0.00789     6.60141
      H   78    0.21187      0.00000     0.78639    0.00174     0.78813
      H   79    0.21112      0.00000     0.78741    0.00147     0.78888
      H   80    0.22070      0.00000     0.77757    0.00173     0.77930
 =======================================================================
   * Total *    1.00000    125.94941   199.29549    0.75510   326.00000

 Normal termination of Gaussian 16 at Sun Jan 19 21:12:18 2025.
