 Gaussian 16, Revision B.01,
 Gaussian 16:  ES64L-G16RevB.01 20-Dec-2017

 ------------------------------------------
 # nmr=giao b3lyp/genecp pop=nbo scfcyc=200
 ------------------------------------------

 --------
 DS-9_SPE
 --------
 Symbolic Z-matrix:
 Charge =  1 Multiplicity = 1

                         Standard orientation:
 ---------------------------------------------------------------------
 Center     Atomic      Atomic             Coordinates (Angstroms)
 Number     Number       Type             X           Y           Z
 ---------------------------------------------------------------------
      1         15           0       -1.547830    0.231900   -0.693140
      2         15           0        1.237860    0.014458   -0.323090
      3          6           0        1.791141    2.735438   -0.925510
      4          6           0        2.396012    3.964818   -0.684050
      5          6           0        3.231652    4.159498    0.415760
      6          6           0        3.448251    3.075057    1.273780
      7          6           0        2.842841    1.848828    1.047000
      8          6           0        2.009081    1.661688   -0.062240
      9          1           0        1.152821    2.620748   -1.791280
     10          1           0        2.216142    4.784848   -1.369390
     11          1           0        4.099591    3.194597    2.131950
     12          1           0        3.042140    1.030308    1.728580
     13          6           0        3.800380   -0.588443   -1.391970
     14          6           0        4.771079   -1.457613   -1.876660
     15          6           0        4.558169   -2.837183   -1.914440
     16          6           0        3.330639   -3.324233   -1.452920
     17          6           0        2.357239   -2.466292   -0.962160
     18          6           0        2.580200   -1.085412   -0.928380
     19          1           0        3.999540    0.475067   -1.375800
     20          1           0        5.711180   -1.052944   -2.233180
     21          1           0        3.137778   -4.390692   -1.474920
     22          1           0        1.416019   -2.870952   -0.608570
     23          6           0       -2.629941   -1.902240   -2.154520
     24          6           0       -3.640311   -2.605619   -2.797260
     25          6           0       -4.914891   -2.054969   -2.907890
     26          6           0       -5.174100   -0.798589   -2.373390
     27          6           0       -4.163520   -0.085449   -1.734450
     28          6           0       -2.880750   -0.629040   -1.628000
     29          1           0       -1.644911   -2.344470   -2.068370
     30          1           0       -3.433932   -3.584920   -3.210690
     31          1           0       -5.701871   -2.605549   -3.407490
     32          1           0       -6.163780   -0.366878   -2.453820
     33          1           0       -4.379060    0.893491   -1.327760
     34          6           0       -2.239649    2.582450    0.673920
     35          6           0       -2.617738    3.918250    0.775230
     36          6           0       -2.805258    4.677190   -0.373750
     37          6           0       -2.612648    4.101890   -1.628210
     38          6           0       -2.235969    2.769410   -1.733270
     39          6           0       -2.051989    1.998550   -0.580000
     40          1           0       -2.080069    1.996470    1.569900
     41          1           0       -2.762228    4.364160    1.751220
     42          1           0       -3.099457    5.716260   -0.295140
     43          1           0       -2.756178    4.692510   -2.524380
     44          1           0       -2.090079    2.333280   -2.713930
     45          6           0        0.005400    0.195839   -1.696060
     46         45           0       -0.462780   -0.714761    1.174440
     47          6           0       -2.182360   -1.006810    2.628990
     48          6           0       -2.108481   -2.101000    1.787730
     49          6           0        0.721169   -2.162791    2.495890
     50          6           0        0.694550   -0.921521    3.094470
     51          6           0       -1.684960   -0.960680    4.062020
     52          1           0       -2.894390   -0.234570    2.357830
     53          1           0       -2.781861   -2.116650    0.937290
     54          6           0       -1.465901   -3.432220    2.091130
     55          6           0       -0.146071   -3.344821    2.886360
     56          1           0        1.591989   -2.398042    1.894930
     57          6           0       -0.229720   -0.462091    4.194910
     58          1           0        1.557020   -0.281232    2.941950
     59          1           0       -2.331510   -0.292540    4.633250
     60          1           0       -1.793781   -1.943630    4.520270
     61          1           0       -2.180512   -4.070590    2.626000
     62          1           0       -1.277652   -3.932360    1.138600
     63          1           0       -0.348711   -3.311411    3.956670
     64          1           0        0.421258   -4.261731    2.717890
     65          1           0       -0.224660    0.630139    4.194790
     66          1           0        0.178650   -0.761571    5.168290
     67          6           0        0.180620    0.020769   -3.001900
     68          1           0        1.168560   -0.124392   -3.426430
     69          1           0       -0.654900   -0.013891   -3.692960
     70          6           0        5.625818   -3.775234   -2.409080
     71          1           0        6.237778   -4.135774   -1.577050
     72          1           0        5.193758   -4.649393   -2.897850
     73          1           0        6.293639   -3.282384   -3.116060
     74          6           0        3.867652    5.496167    0.687630
     75          1           0        3.318723    6.035168    1.465200
     76          1           0        4.895622    5.383927    1.036100
     77          1           0        3.876193    6.122907   -0.204150
 ---------------------------------------------------------------------

 SCF Done:  E(RB3LYP) =  -2188.36727628     A.U. after   16 cycles

      1  P    Isotropic =   285.7002   Anisotropy =    89.9631

      2  P    Isotropic =   294.7613   Anisotropy =    79.4734

      3  C    Isotropic =    47.1744   Anisotropy =   187.5919

      4  C    Isotropic =    48.7972   Anisotropy =   167.2190

      5  C    Isotropic =    31.9673   Anisotropy =   213.1566

      6  C    Isotropic =    48.3653   Anisotropy =   172.6258

      7  C    Isotropic =    46.7692   Anisotropy =   184.2950

      8  C    Isotropic =    53.8400   Anisotropy =   165.3242

      9  H    Isotropic =    24.9400   Anisotropy =     9.3860

     10  H    Isotropic =    24.7969   Anisotropy =     8.0766

     11  H    Isotropic =    24.3434   Anisotropy =     7.6593

     12  H    Isotropic =    24.6179   Anisotropy =    10.4093

     13  C    Isotropic =    45.1156   Anisotropy =   189.9357

     14  C    Isotropic =    48.3116   Anisotropy =   167.3121

     15  C    Isotropic =    30.4600   Anisotropy =   213.4015

     16  C    Isotropic =    48.3543   Anisotropy =   168.2700

     17  C    Isotropic =    45.8377   Anisotropy =   178.0338

     18  C    Isotropic =    50.6202   Anisotropy =   161.8608

     19  H    Isotropic =    25.1957   Anisotropy =    13.3420

     20  H    Isotropic =    24.5374   Anisotropy =     8.3633

     21  H    Isotropic =    24.1653   Anisotropy =     8.8108

     22  H    Isotropic =    23.7068   Anisotropy =    10.3851

     23  C    Isotropic =    48.0547   Anisotropy =   187.9453

     24  C    Isotropic =    49.3337   Anisotropy =   188.5026

     25  C    Isotropic =    46.1012   Anisotropy =   196.3050

     26  C    Isotropic =    48.5579   Anisotropy =   190.1951

     27  C    Isotropic =    45.5871   Anisotropy =   193.5118

     28  C    Isotropic =    46.7665   Anisotropy =   163.8361

     29  H    Isotropic =    23.9477   Anisotropy =    10.4566

     30  H    Isotropic =    24.0668   Anisotropy =     6.7465

     31  H    Isotropic =    24.0932   Anisotropy =     3.8198

     32  H    Isotropic =    24.3136   Anisotropy =     6.5343

     33  H    Isotropic =    25.0062   Anisotropy =    12.8953

     34  C    Isotropic =    41.1840   Anisotropy =   182.8775

     35  C    Isotropic =    49.4695   Anisotropy =   189.0009

     36  C    Isotropic =    44.8881   Anisotropy =   199.3863

     37  C    Isotropic =    48.6244   Anisotropy =   190.6199

     38  C    Isotropic =    45.8867   Anisotropy =   191.9745

     39  C    Isotropic =    48.4690   Anisotropy =   169.4614

     40  H    Isotropic =    23.8516   Anisotropy =     9.6748

     41  H    Isotropic =    24.3005   Anisotropy =     6.3853

     42  H    Isotropic =    24.0413   Anisotropy =     3.2331

     43  H    Isotropic =    24.0817   Anisotropy =     5.6196

     44  H    Isotropic =    24.1854   Anisotropy =    11.1321

     45  C    Isotropic =    14.8296   Anisotropy =   115.0759

     46  Rh   Isotropic =  -312.0404   Anisotropy =   327.9575

     47  C    Isotropic =    83.5629   Anisotropy =   113.8609

     48  C    Isotropic =    74.2873   Anisotropy =   119.7043

     49  C    Isotropic =    75.9502   Anisotropy =   125.4838

     50  C    Isotropic =    75.9184   Anisotropy =   116.2861

     51  C    Isotropic =   154.2170   Anisotropy =    24.3821

     52  H    Isotropic =    27.0860   Anisotropy =     6.6465

     53  H    Isotropic =    26.8542   Anisotropy =     4.7380

     54  C    Isotropic =   147.1844   Anisotropy =    30.0371

     55  C    Isotropic =   153.7155   Anisotropy =    25.2909

     56  H    Isotropic =    26.5112   Anisotropy =     5.5625

     57  C    Isotropic =   147.7380   Anisotropy =    29.3506

     58  H    Isotropic =    26.1136   Anisotropy =     5.3879

     59  H    Isotropic =    29.8203   Anisotropy =    11.7204

     60  H    Isotropic =    29.7323   Anisotropy =     9.5898

     61  H    Isotropic =    29.1574   Anisotropy =    12.3701

     62  H    Isotropic =    28.9850   Anisotropy =     7.5038

     63  H    Isotropic =    29.6706   Anisotropy =     9.4509

     64  H    Isotropic =    29.7187   Anisotropy =    11.2672

     65  H    Isotropic =    29.1142   Anisotropy =     7.8879

     66  H    Isotropic =    29.0583   Anisotropy =    12.7054

     67  C    Isotropic =    43.2057   Anisotropy =   184.2098

     68  H    Isotropic =    26.0327   Anisotropy =     7.3145

     69  H    Isotropic =    25.3730   Anisotropy =     6.6221

     70  C    Isotropic =   161.9169   Anisotropy =    42.5139

     71  H    Isotropic =    29.2349   Anisotropy =     9.0707

     72  H    Isotropic =    29.4613   Anisotropy =     8.1421

     73  H    Isotropic =    29.5687   Anisotropy =     8.3715

     74  C    Isotropic =   162.0936   Anisotropy =    42.4214

     75  H    Isotropic =    29.3745   Anisotropy =     8.4690

     76  H    Isotropic =    29.4645   Anisotropy =     8.9825

     77  H    Isotropic =    29.7690   Anisotropy =     7.8977

 The electronic state is 1-A.
 Alpha  occ. eigenvalues --  -77.23661 -77.23377 -10.30521 -10.29543 -10.29512
 Alpha  occ. eigenvalues --  -10.29466 -10.28944 -10.28921 -10.28866 -10.28835
 Alpha  occ. eigenvalues --  -10.28808 -10.28539 -10.28304 -10.28276 -10.28208
 Alpha  occ. eigenvalues --  -10.28073 -10.28034 -10.27974 -10.27865 -10.27854
 Alpha  occ. eigenvalues --  -10.27652 -10.27643 -10.27624 -10.27556 -10.27482
 Alpha  occ. eigenvalues --  -10.27463 -10.27387 -10.27365 -10.27358 -10.27294
 Alpha  occ. eigenvalues --  -10.27186 -10.27110 -10.26847 -10.26775 -10.26684
 Alpha  occ. eigenvalues --  -10.26655 -10.24949 -10.24947  -6.69648  -6.69349
 Alpha  occ. eigenvalues --   -4.85930  -4.85863  -4.85643  -4.85557  -4.85556
 Alpha  occ. eigenvalues --   -4.85256  -3.31516  -2.08403  -2.07726  -2.04992
 Alpha  occ. eigenvalues --   -0.96760  -0.96407  -0.96019  -0.95836  -0.94291
 Alpha  occ. eigenvalues --   -0.91106  -0.89000  -0.88021  -0.87870  -0.86844
 Alpha  occ. eigenvalues --   -0.86445  -0.85257  -0.85143  -0.84806  -0.84673
 Alpha  occ. eigenvalues --   -0.84619  -0.80452  -0.80044  -0.77691  -0.77631
 Alpha  occ. eigenvalues --   -0.77331  -0.73679  -0.71174  -0.71001  -0.70912
 Alpha  occ. eigenvalues --   -0.70764  -0.70417  -0.70167  -0.69127  -0.68087
 Alpha  occ. eigenvalues --   -0.66711  -0.65708  -0.64113  -0.62373  -0.62215
 Alpha  occ. eigenvalues --   -0.60451  -0.60281  -0.59887  -0.58544  -0.57232
 Alpha  occ. eigenvalues --   -0.56818  -0.56512  -0.56399  -0.56190  -0.56026
 Alpha  occ. eigenvalues --   -0.55741  -0.55375  -0.55240  -0.54913  -0.54146
 Alpha  occ. eigenvalues --   -0.53499  -0.53001  -0.52717  -0.52572  -0.52447
 Alpha  occ. eigenvalues --   -0.52439  -0.52082  -0.52057  -0.51522  -0.50762
 Alpha  occ. eigenvalues --   -0.50747  -0.49571  -0.48584  -0.48043  -0.47878
 Alpha  occ. eigenvalues --   -0.47522  -0.47427  -0.47348  -0.47150  -0.46371
 Alpha  occ. eigenvalues --   -0.45975  -0.45890  -0.45796  -0.45396  -0.45082
 Alpha  occ. eigenvalues --   -0.44916  -0.44394  -0.43911  -0.43837  -0.43346
 Alpha  occ. eigenvalues --   -0.43157  -0.43047  -0.42800  -0.42228  -0.41200
 Alpha  occ. eigenvalues --   -0.39942  -0.37941  -0.37243  -0.36344  -0.36174
 Alpha  occ. eigenvalues --   -0.35706  -0.35619  -0.35548  -0.35254  -0.34992
 Alpha  occ. eigenvalues --   -0.34673  -0.34318  -0.33938  -0.33232  -0.30603
 Alpha virt. eigenvalues --   -0.17418  -0.14841  -0.13898  -0.13518  -0.12104
 Alpha virt. eigenvalues --   -0.11926  -0.11562  -0.11285  -0.10659  -0.10351
 Alpha virt. eigenvalues --   -0.10254  -0.09113  -0.07464  -0.06214  -0.06083

 Mulliken charges:
               1
     1  P    0.431199
     2  P    0.346992
     3  C    0.003764
     4  C   -0.114021
     5  C    0.098015
     6  C   -0.134088
     7  C   -0.057105
     8  C   -0.216238
     9  H    0.141597
    10  H    0.124033
    11  H    0.127515
    12  H    0.143973
    13  C    0.000003
    14  C   -0.122394
    15  C    0.103031
    16  C   -0.140252
    17  C   -0.014224
    18  C   -0.284030
    19  H    0.156283
    20  H    0.129148
    21  H    0.125022
    22  H    0.160912
    23  C   -0.080234
    24  C   -0.092670
    25  C   -0.094799
    26  C   -0.100109
    27  C   -0.058890
    28  C   -0.214922
    29  H    0.144237
    30  H    0.132525
    31  H    0.139341
    32  H    0.135715
    33  H    0.163027
    34  C   -0.020109
    35  C   -0.113331
    36  C   -0.093982
    37  C   -0.083446
    38  C   -0.067494
    39  C   -0.250735
    40  H    0.141047
    41  H    0.130970
    42  H    0.139156
    43  H    0.135014
    44  H    0.132260
    45  C   -0.509178
    46  Rh  -0.543524
    47  C   -0.010557
    48  C   -0.110224
    49  C   -0.043573
    50  C   -0.081230
    51  C   -0.358105
    52  H    0.179194
    53  H    0.218914
    54  C   -0.233417
    55  C   -0.346955
    56  H    0.209021
    57  C   -0.216640
    58  H    0.161124
    59  H    0.167665
    60  H    0.166365
    61  H    0.171211
    62  H    0.127712
    63  H    0.166818
    64  H    0.167572
    65  H    0.132268
    66  H    0.170623
    67  C   -0.050604
    68  H    0.159943
    69  H    0.155074
    70  C   -0.429884
    71  H    0.158322
    72  H    0.141481
    73  H    0.143289
    74  C   -0.434961
    75  H    0.154404
    76  H    0.143864
    77  H    0.142283
 Sum of Mulliken charges =   1.00000

 Dipole moment (field-independent basis, Debye):
    X=             -0.1114    Y=              0.0525    Z=             -0.4407  Tot=              0.4576
 Quadrupole moment (field-independent basis, Debye-Ang):
   XX=           -200.1622   YY=           -197.9991   ZZ=           -219.8008
   XY=             -1.5424   XZ=              1.6649   YZ=              2.1553

 Summary of Natural Population Analysis:

                                       Natural Population
                Natural  -----------------------------------------------
    Atom  No    Charge         Core      Valence    Rydberg      Total
 -----------------------------------------------------------------------
      P    1    1.11986      9.99620     3.82925    0.05469    13.88014
      P    2    1.10769      9.99631     3.84096    0.05504    13.89231
      C    3   -0.18522      1.99909     4.16835    0.01778     6.18522
      C    4   -0.19472      1.99911     4.18111    0.01449     6.19472
      C    5    0.01471      1.99914     3.97161    0.01454     5.98529
      C    6   -0.19411      1.99910     4.18162    0.01338     6.19411
      C    7   -0.18240      1.99909     4.16811    0.01520     6.18240
      C    8   -0.34984      1.99898     4.32723    0.02362     6.34984
      H    9    0.21970      0.00000     0.77787    0.00243     0.78030
      H   10    0.21594      0.00000     0.78245    0.00161     0.78406
      H   11    0.21681      0.00000     0.78179    0.00140     0.78319
      H   12    0.20918      0.00000     0.78898    0.00184     0.79082
      C   13   -0.18135      1.99911     4.16600    0.01624     6.18135
      C   14   -0.19528      1.99911     4.18245    0.01373     6.19528
      C   15    0.01811      1.99914     3.96819    0.01455     5.98189
      C   16   -0.19819      1.99910     4.18540    0.01368     6.19819
      C   17   -0.18419      1.99910     4.16914    0.01594     6.18419
      C   18   -0.35704      1.99898     4.33344    0.02462     6.35704
      H   19    0.22447      0.00000     0.77364    0.00189     0.77553
      H   20    0.21778      0.00000     0.78082    0.00139     0.78222
      H   21    0.21542      0.00000     0.78317    0.00141     0.78458
      H   22    0.21582      0.00000     0.78223    0.00195     0.78418
      C   23   -0.19670      1.99910     4.18217    0.01543     6.19670
      C   24   -0.19368      1.99920     4.17983    0.01465     6.19368
      C   25   -0.17890      1.99921     4.16503    0.01466     6.17890
      C   26   -0.19055      1.99920     4.17669    0.01466     6.19055
      C   27   -0.19147      1.99910     4.17712    0.01526     6.19147
      C   28   -0.34807      1.99899     4.32462    0.02446     6.34807
      H   29    0.21649      0.00000     0.78160    0.00191     0.78351
      H   30    0.22143      0.00000     0.77734    0.00123     0.77857
      H   31    0.22308      0.00000     0.77575    0.00117     0.77692
      H   32    0.22319      0.00000     0.77559    0.00121     0.77681
      H   33    0.22441      0.00000     0.77386    0.00173     0.77559
      C   34   -0.17775      1.99909     4.16335    0.01531     6.17775
      C   35   -0.19548      1.99920     4.18176    0.01452     6.19548
      C   36   -0.17413      1.99921     4.16039    0.01453     6.17413
      C   37   -0.19421      1.99920     4.18050    0.01452     6.19421
      C   38   -0.18883      1.99909     4.17376    0.01598     6.18883
      C   39   -0.34195      1.99898     4.31845    0.02452     6.34195
      H   40    0.22000      0.00000     0.77802    0.00198     0.78000
      H   41    0.22150      0.00000     0.77728    0.00122     0.77850
      H   42    0.22253      0.00000     0.77630    0.00118     0.77747
      H   43    0.22261      0.00000     0.77616    0.00124     0.77739
      H   44    0.21606      0.00000     0.78191    0.00203     0.78394
      C   45   -0.60416      1.99909     4.57617    0.02890     6.60416
     Rh   46   -0.37704     35.98572     9.36217    0.02914    45.37704
      C   47   -0.18765      1.99906     4.16905    0.01953     6.18765
      C   48   -0.14711      1.99907     4.12831    0.01973     6.14711
      C   49   -0.16558      1.99906     4.14691    0.01961     6.16558
      C   50   -0.16280      1.99907     4.14384    0.01990     6.16280
      C   51   -0.42227      1.99936     4.41120    0.01171     6.42227
      H   52    0.22464      0.00000     0.77349    0.00187     0.77536
      H   53    0.23153      0.00000     0.76652    0.00195     0.76847
      C   54   -0.41763      1.99935     4.40567    0.01261     6.41763
      C   55   -0.42512      1.99936     4.41389    0.01187     6.42512
      H   56    0.22945      0.00000     0.76841    0.00214     0.77055
      C   57   -0.41910      1.99935     4.40714    0.01261     6.41910
      H   58    0.22346      0.00000     0.77455    0.00199     0.77654
      H   59    0.22779      0.00000     0.77073    0.00148     0.77221
      H   60    0.21430      0.00000     0.78370    0.00201     0.78570
      H   61    0.23335      0.00000     0.76473    0.00193     0.76665
      H   62    0.21446      0.00000     0.78395    0.00159     0.78554
      H   63    0.21501      0.00000     0.78299    0.00200     0.78499
      H   64    0.22768      0.00000     0.77085    0.00147     0.77232
      H   65    0.21663      0.00000     0.78186    0.00151     0.78337
      H   66    0.23352      0.00000     0.76456    0.00192     0.76648
      C   67   -0.30359      1.99901     4.28854    0.01605     6.30359
      H   68    0.21611      0.00000     0.78123    0.00265     0.78389
      H   69    0.21225      0.00000     0.78505    0.00271     0.78775
      C   70   -0.61925      1.99941     4.61251    0.00733     6.61925
      H   71    0.22788      0.00000     0.77075    0.00137     0.77212
      H   72    0.22050      0.00000     0.77824    0.00126     0.77950
      H   73    0.22098      0.00000     0.77777    0.00125     0.77902
      C   74   -0.61862      1.99941     4.61195    0.00727     6.61862
      H   75    0.22612      0.00000     0.77252    0.00136     0.77388
      H   76    0.22252      0.00000     0.77621    0.00127     0.77748
      H   77    0.21903      0.00000     0.77972    0.00125     0.78097
 =======================================================================
   * Total *    1.00000    127.94744   199.26647    0.78609   328.00000

 Normal termination of Gaussian 16 at Sun Jan 19 21:01:33 2025.
