 Gaussian 16, Revision B.01,
 Gaussian 16:  ES64L-G16RevB.01 20-Dec-2017

 ------------------------------------------
 # nmr=giao b3lyp/genecp pop=nbo scfcyc=200
 ------------------------------------------

 -------------
 Ligand 12 SPE
 -------------
 Symbolic Z-matrix:
 Charge =  1 Multiplicity = 1

                         Standard orientation:
 ---------------------------------------------------------------------
 Center     Atomic      Atomic             Coordinates (Angstroms)
 Number     Number       Type             X           Y           Z
 ---------------------------------------------------------------------
      1         15           0       -1.362410   -0.418661    0.151710
      2         15           0        1.279670   -0.117510    1.174590
      3          8           0        0.249030   -2.639300    1.044390
      4          6           0        1.950020    0.284860    2.916230
      5          6           0        0.867550    1.105090    3.635500
      6          6           0        2.246840   -1.007190    3.686830
      7          6           0        3.229720    1.123140    2.772370
      8          6           0       -0.166950   -1.312880    1.352640
      9          6           0        1.519380   -2.688850    0.529890
     10          6           0        2.245120   -1.497770    0.470690
     11          6           0        4.074400   -2.711510   -0.535900
     12          6           0        2.043541   -3.897310    0.090370
     13          6           0        3.326351   -3.884860   -0.438070
     14          1           0        5.065780   -2.748849   -0.961620
     15          1           0        1.460731   -4.805010    0.159920
     16          1           0        3.761571   -4.811270   -0.790860
     17          1           0        0.600750    2.006960    3.081070
     18          1           0       -0.615320   -1.328120    2.345590
     19          1           0       -0.043130    0.527620    3.808470
     20          1           0        3.019590   -1.603230    3.200850
     21          1           0        4.015960    0.580240    2.249670
     22          1           0        1.243180    1.413370    4.614260
     23          1           0        1.360250   -1.632460    3.808960
     24          1           0        2.604250   -0.751750    4.688040
     25          1           0        3.049360    2.057910    2.238930
     26          1           0        3.599210    1.380650    3.768380
     27         45           0        0.183430    1.343210   -0.335250
     28          6           0        1.451749    3.230790   -0.246600
     29          6           0        2.048769    2.336740   -1.111800
     30          6           0       -0.594980    2.145100   -2.316180
     31          6           0       -1.230591    2.818159   -1.293290
     32          1           0        1.807649    3.233770    0.777510
     33          6           0        0.642379    4.448290   -0.651580
     34          1           0        2.850270    1.719860   -0.720560
     35          6           0        1.941649    2.330850   -2.616180
     36          6           0        0.542849    2.689120   -3.159780
     37          1           0       -1.117930    1.294989   -2.738780
     38          1           0       -2.219761    2.470819   -1.019880
     39          6           0       -0.873601    4.176299   -0.744160
     40          1           0        1.017059    4.840410   -1.596810
     41          1           0        0.808069    5.235770    0.085500
     42          1           0        2.690699    3.009090   -3.044110
     43          1           0        2.212910    1.330660   -2.960830
     44          1           0        0.448930    2.284090   -4.168770
     45          1           0        0.437989    3.769240   -3.260160
     46          1           0       -1.355881    4.957229   -1.345520
     47          1           0       -1.312291    4.256819    0.253070
     48          6           0        3.533320   -1.508330   -0.083310
     49          6           0       -1.897270   -1.665251   -1.153510
     50          6           0       -3.150600   -1.197201   -1.919720
     51          6           0       -0.755520   -1.981171   -2.138220
     52          1           0       -2.141700   -2.576611   -0.598940
     53          6           0       -3.579950   -2.233611   -2.968660
     54          1           0       -2.941100   -0.245601   -2.421050
     55          1           0       -3.980180   -1.014821   -1.236740
     56          6           0       -1.192369   -3.018821   -3.181580
     57          1           0       -0.455120   -1.059810   -2.647340
     58          1           0        0.124300   -2.345940   -1.610230
     59          6           0       -2.445360   -2.572211   -3.937640
     60          1           0       -4.449280   -1.856461   -3.512710
     61          1           0       -3.905669   -3.145741   -2.456500
     62          1           0       -0.369359   -3.198330   -3.877710
     63          1           0       -1.388709   -3.973221   -2.680680
     64          1           0       -2.765299   -3.350141   -4.634510
     65          1           0       -2.209540   -1.690181   -4.544400
     66          6           0       -2.799510   -0.126621    1.347460
     67          6           0       -3.773540    0.993749    0.945570
     68          6           0       -3.542620   -1.420291    1.728920
     69          1           0       -2.267870    0.231409    2.238350
     70          6           0       -4.817880    1.233869    2.046920
     71          1           0       -4.287000    0.737319    0.015130
     72          1           0       -3.221580    1.916999    0.762200
     73          6           0       -4.581860   -1.156541    2.829010
     74          1           0       -4.053830   -1.824321    0.850920
     75          1           0       -2.839910   -2.189471    2.060750
     76          6           0       -5.559790   -0.050401    2.425230
     77          1           0       -5.523510    1.999259    1.715260
     78          1           0       -4.316460    1.637389    2.934020
     79          1           0       -5.119340   -2.082201    3.047870
     80          1           0       -4.067350   -0.869711    3.753110
     81          1           0       -6.261290    0.147078    3.238820
     82          1           0       -6.160530   -0.389432    1.573590
     83          8           0        4.176380   -0.310700   -0.130480
     84          6           0        5.508680   -0.262519   -0.652110
     85          1           0        5.533460   -0.575679   -1.698150
     86          1           0        5.816870    0.776961   -0.576830
     87          1           0        6.184010   -0.885729   -0.062090
 ---------------------------------------------------------------------

 SCF Done:  E(RB3LYP) =  -2193.64932509     A.U. after   16 cycles

      1  P    Isotropic =   298.3758   Anisotropy =    77.2492

      2  P    Isotropic =   277.7991   Anisotropy =    84.2022

      3  O    Isotropic =   166.8466   Anisotropy =   106.0198

      4  C    Isotropic =   134.9770   Anisotropy =    33.1472

      5  C    Isotropic =   156.5547   Anisotropy =    38.4412

      6  C    Isotropic =   158.8518   Anisotropy =    40.1542

      7  C    Isotropic =   157.3768   Anisotropy =    39.2261

      8  C    Isotropic =    79.8977   Anisotropy =    45.6764

      9  C    Isotropic =    10.7000   Anisotropy =   105.3153

     10  C    Isotropic =    74.0556   Anisotropy =    90.9695

     11  C    Isotropic =    76.2351   Anisotropy =   149.4624

     12  C    Isotropic =    73.3201   Anisotropy =   144.3337

     13  C    Isotropic =    41.8366   Anisotropy =   195.3743

     14  H    Isotropic =    25.3457   Anisotropy =     6.7062

     15  H    Isotropic =    25.0974   Anisotropy =     6.6574

     16  H    Isotropic =    24.2333   Anisotropy =     3.6167

     17  H    Isotropic =    30.4379   Anisotropy =     5.8946

     18  H    Isotropic =    26.2443   Anisotropy =     3.4999

     19  H    Isotropic =    30.8423   Anisotropy =     7.5512

     20  H    Isotropic =    31.2378   Anisotropy =     5.8318

     21  H    Isotropic =    30.3788   Anisotropy =     8.4924

     22  H    Isotropic =    30.6904   Anisotropy =    10.7166

     23  H    Isotropic =    31.0748   Anisotropy =     7.2936

     24  H    Isotropic =    30.9377   Anisotropy =    11.5228

     25  H    Isotropic =    30.9942   Anisotropy =     5.4049

     26  H    Isotropic =    30.8886   Anisotropy =    11.1285

     27  Rh   Isotropic =  -332.4137   Anisotropy =   369.3611

     28  C    Isotropic =    80.6829   Anisotropy =   119.8822

     29  C    Isotropic =    78.6705   Anisotropy =   118.9652

     30  C    Isotropic =    78.2661   Anisotropy =   123.4242

     31  C    Isotropic =    79.6309   Anisotropy =   114.5297

     32  H    Isotropic =    26.7453   Anisotropy =     6.3577

     33  C    Isotropic =   154.3860   Anisotropy =    24.8442

     34  H    Isotropic =    25.6135   Anisotropy =     6.7021

     35  C    Isotropic =   147.9970   Anisotropy =    29.5513

     36  C    Isotropic =   153.8344   Anisotropy =    25.4347

     37  H    Isotropic =    26.6783   Anisotropy =     5.9046

     38  H    Isotropic =    26.3797   Anisotropy =     4.5911

     39  C    Isotropic =   147.9789   Anisotropy =    30.4266

     40  H    Isotropic =    29.7983   Anisotropy =     9.5425

     41  H    Isotropic =    29.8387   Anisotropy =    11.6499

     42  H    Isotropic =    29.1617   Anisotropy =    12.3620

     43  H    Isotropic =    29.2141   Anisotropy =     6.5337

     44  H    Isotropic =    29.8960   Anisotropy =    10.9754

     45  H    Isotropic =    29.7796   Anisotropy =     9.6714

     46  H    Isotropic =    29.1254   Anisotropy =    12.6594

     47  H    Isotropic =    29.1067   Anisotropy =     7.4227

     48  C    Isotropic =    13.8868   Anisotropy =   135.3341

     49  C    Isotropic =   142.8607   Anisotropy =    22.1548

     50  C    Isotropic =   152.3922   Anisotropy =    11.0289

     51  C    Isotropic =   150.9523   Anisotropy =    15.1512

     52  H    Isotropic =    29.5004   Anisotropy =     2.9337

     53  C    Isotropic =   154.8073   Anisotropy =     6.5307

     54  H    Isotropic =    31.0912   Anisotropy =     4.5464

     55  H    Isotropic =    30.1492   Anisotropy =     8.7593

     56  C    Isotropic =   155.2839   Anisotropy =     8.1909

     57  H    Isotropic =    30.7588   Anisotropy =     7.1785

     58  H    Isotropic =    30.7746   Anisotropy =    12.8307

     59  C    Isotropic =   155.9613   Anisotropy =     2.9212

     60  H    Isotropic =    30.1266   Anisotropy =    10.9518

     61  H    Isotropic =    30.5490   Anisotropy =     8.7468

     62  H    Isotropic =    30.4325   Anisotropy =     9.1863

     63  H    Isotropic =    30.6665   Anisotropy =     7.9828

     64  H    Isotropic =    30.1869   Anisotropy =    11.9550

     65  H    Isotropic =    30.7437   Anisotropy =     7.6768

     66  C    Isotropic =   130.5046   Anisotropy =    36.0401

     67  C    Isotropic =   150.3669   Anisotropy =    15.1318

     68  C    Isotropic =   154.6941   Anisotropy =    13.9674

     69  H    Isotropic =    30.2266   Anisotropy =     5.5205

     70  C    Isotropic =   153.0993   Anisotropy =     8.3797

     71  H    Isotropic =    30.3691   Anisotropy =     4.5085

     72  H    Isotropic =    29.8459   Anisotropy =     9.4625

     73  C    Isotropic =   153.2501   Anisotropy =     7.8562

     74  H    Isotropic =    30.3692   Anisotropy =     6.1664

     75  H    Isotropic =    29.8916   Anisotropy =     5.2200

     76  C    Isotropic =   156.1596   Anisotropy =     2.4455

     77  H    Isotropic =    29.9492   Anisotropy =    10.2736

     78  H    Isotropic =    30.5071   Anisotropy =     7.5404

     79  H    Isotropic =    29.8669   Anisotropy =    10.8646

     80  H    Isotropic =    30.5459   Anisotropy =     7.8365

     81  H    Isotropic =    30.0690   Anisotropy =    11.7805

     82  H    Isotropic =    30.5595   Anisotropy =     8.7246

     83  O    Isotropic =   208.8908   Anisotropy =    86.8087

     84  C    Isotropic =   128.0167   Anisotropy =    79.5311

     85  H    Isotropic =    28.1237   Anisotropy =     9.4291

     86  H    Isotropic =    27.8726   Anisotropy =     9.0705

     87  H    Isotropic =    28.1647   Anisotropy =    10.4572

 The electronic state is 1-A.
 Alpha  occ. eigenvalues --  -77.23243 -77.22519 -19.27723 -19.26846 -10.35426
 Alpha  occ. eigenvalues --  -10.35077 -10.34758 -10.32392 -10.30920 -10.29595
 Alpha  occ. eigenvalues --  -10.29220 -10.29099 -10.29053 -10.28995 -10.28867
 Alpha  occ. eigenvalues --  -10.28776 -10.28366 -10.27538 -10.27493 -10.27349
 Alpha  occ. eigenvalues --  -10.27290 -10.27279 -10.27110 -10.26929 -10.26918
 Alpha  occ. eigenvalues --  -10.26899 -10.26861 -10.26335 -10.26299 -10.26245
 Alpha  occ. eigenvalues --  -10.25455 -10.25449 -10.25319 -10.25138 -10.24853
 Alpha  occ. eigenvalues --  -10.24720  -6.69294  -6.68561  -4.85605  -4.85473
 Alpha  occ. eigenvalues --   -4.85177  -4.84866  -4.84728  -4.84465  -3.31487
 Alpha  occ. eigenvalues --   -2.08379  -2.07750  -2.04893  -1.18975  -1.17764
 Alpha  occ. eigenvalues --   -0.96435  -0.94504  -0.93895  -0.92782  -0.92743
 Alpha  occ. eigenvalues --   -0.89153  -0.88275  -0.88060  -0.86807  -0.85536
 Alpha  occ. eigenvalues --   -0.84043  -0.83825  -0.83690  -0.83382  -0.80436
 Alpha  occ. eigenvalues --   -0.80313  -0.79496  -0.79151  -0.77838  -0.75186
 Alpha  occ. eigenvalues --   -0.73105  -0.71080  -0.70839  -0.70584  -0.70542
 Alpha  occ. eigenvalues --   -0.70269  -0.69405  -0.66337  -0.65934  -0.65184
 Alpha  occ. eigenvalues --   -0.65100  -0.64544  -0.62554  -0.62280  -0.61754
 Alpha  occ. eigenvalues --   -0.60179  -0.59025  -0.58777  -0.58127  -0.57539
 Alpha  occ. eigenvalues --   -0.57336  -0.56818  -0.56596  -0.56232  -0.55317
 Alpha  occ. eigenvalues --   -0.54730  -0.54550  -0.54276  -0.53985  -0.53836
 Alpha  occ. eigenvalues --   -0.53654  -0.53372  -0.53275  -0.52919  -0.52672
 Alpha  occ. eigenvalues --   -0.52620  -0.51046  -0.50936  -0.50364  -0.49598
 Alpha  occ. eigenvalues --   -0.49284  -0.48877  -0.48551  -0.48178  -0.48088
 Alpha  occ. eigenvalues --   -0.47967  -0.47681  -0.47506  -0.47367  -0.47226
 Alpha  occ. eigenvalues --   -0.46957  -0.46430  -0.46255  -0.45987  -0.45333
 Alpha  occ. eigenvalues --   -0.45140  -0.44807  -0.44443  -0.44267  -0.44163
 Alpha  occ. eigenvalues --   -0.43883  -0.43732  -0.43357  -0.42824  -0.42704
 Alpha  occ. eigenvalues --   -0.42267  -0.41814  -0.41313  -0.40971  -0.40758
 Alpha  occ. eigenvalues --   -0.39948  -0.39871  -0.38908  -0.38599  -0.37679
 Alpha  occ. eigenvalues --   -0.36189  -0.35055  -0.34517  -0.33945  -0.33685
 Alpha  occ. eigenvalues --   -0.32690  -0.30549
 Alpha virt. eigenvalues --   -0.16352  -0.14389  -0.12371  -0.09965  -0.09596
 Alpha virt. eigenvalues --   -0.08871  -0.08274  -0.07441  -0.07332  -0.06983
 Alpha virt. eigenvalues --   -0.06053  -0.05454  -0.05334  -0.04659  -0.04475

 Mulliken charges:
               1
     1  P    0.490183
     2  P    0.309860
     3  O   -0.131848
     4  C   -0.035727
     5  C   -0.385978
     6  C   -0.364151
     7  C   -0.391098
     8  C   -0.399357
     9  C    0.047066
    10  C   -0.165797
    11  C   -0.125774
    12  C   -0.148429
    13  C   -0.109506
    14  H    0.152508
    15  H    0.144698
    16  H    0.132072
    17  H    0.141811
    18  H    0.225477
    19  H    0.126023
    20  H    0.155391
    21  H    0.158159
    22  H    0.161920
    23  H    0.138090
    24  H    0.151376
    25  H    0.132592
    26  H    0.153432
    27  Rh  -0.486664
    28  C   -0.023589
    29  C   -0.112172
    30  C   -0.024394
    31  C   -0.099737
    32  H    0.162612
    33  C   -0.340851
    34  H    0.243000
    35  C   -0.239639
    36  C   -0.350533
    37  H    0.173675
    38  H    0.201121
    39  C   -0.243923
    40  H    0.167325
    41  H    0.169881
    42  H    0.168958
    43  H    0.131179
    44  H    0.167320
    45  H    0.168106
    46  H    0.171383
    47  H    0.133298
    48  C    0.174326
    49  C   -0.174458
    50  C   -0.269059
    51  C   -0.274882
    52  H    0.190431
    53  C   -0.243739
    54  H    0.132183
    55  H    0.137582
    56  C   -0.240998
    57  H    0.106223
    58  H    0.175261
    59  C   -0.221827
    60  H    0.147611
    61  H    0.121398
    62  H    0.141338
    63  H    0.122410
    64  H    0.148556
    65  H    0.109778
    66  C   -0.243589
    67  C   -0.268504
    68  C   -0.240439
    69  H    0.143972
    70  C   -0.251475
    71  H    0.144972
    72  H    0.127438
    73  C   -0.245750
    74  H    0.138481
    75  H    0.152617
    76  C   -0.220668
    77  H    0.146432
    78  H    0.120008
    79  H    0.150223
    80  H    0.117484
    81  H    0.149644
    82  H    0.115944
    83  O   -0.239885
    84  C   -0.229016
    85  H    0.145370
    86  H    0.154705
    87  H    0.150548
 Sum of Mulliken charges =   1.00000

 Dipole moment (field-independent basis, Debye):
    X=              2.0426    Y=              1.1180    Z=             -0.0604  Tot=              2.3293
 Quadrupole moment (field-independent basis, Debye-Ang):
   XX=           -193.9265   YY=           -221.7118   ZZ=           -225.4874
   XY=             -1.3626   XZ=             -4.0848   YZ=              1.0144

 Summary of Natural Population Analysis:

                                       Natural Population
                Natural  -----------------------------------------------
    Atom  No    Charge         Core      Valence    Rydberg      Total
 -----------------------------------------------------------------------
      P    1    1.07078      9.99684     3.88629    0.04608    13.92922
      P    2    1.06816      9.99671     3.88634    0.04879    13.93184
      O    3   -0.45917      1.99976     6.43990    0.01951     8.45917
      C    4   -0.25285      1.99944     4.23654    0.01688     6.25285
      C    5   -0.60372      1.99936     4.59661    0.00776     6.60372
      C    6   -0.60674      1.99936     4.59810    0.00929     6.60674
      C    7   -0.60438      1.99935     4.59701    0.00802     6.60438
      C    8   -0.42988      1.99927     4.40372    0.02689     6.42988
      C    9    0.30639      1.99866     3.67156    0.02339     5.69361
      C   10   -0.44948      1.99877     4.42774    0.02297     6.44948
      C   11   -0.31199      1.99908     4.29904    0.01387     6.31199
      C   12   -0.27681      1.99904     4.26253    0.01524     6.27681
      C   13   -0.13530      1.99924     4.12122    0.01484     6.13530
      H   14    0.22741      0.00000     0.77078    0.00181     0.77259
      H   15    0.23685      0.00000     0.76165    0.00150     0.76315
      H   16    0.22471      0.00000     0.77423    0.00106     0.77529
      H   17    0.21693      0.00000     0.78165    0.00142     0.78307
      H   18    0.22551      0.00000     0.77068    0.00381     0.77449
      H   19    0.20170      0.00000     0.79664    0.00166     0.79830
      H   20    0.21810      0.00000     0.78038    0.00152     0.78190
      H   21    0.22336      0.00000     0.77517    0.00147     0.77664
      H   22    0.22600      0.00000     0.77223    0.00177     0.77400
      H   23    0.20778      0.00000     0.79073    0.00149     0.79222
      H   24    0.22342      0.00000     0.77485    0.00173     0.77658
      H   25    0.20544      0.00000     0.79307    0.00149     0.79456
      H   26    0.22001      0.00000     0.77820    0.00179     0.77999
     Rh   27   -0.36670     35.98555     9.35255    0.02860    45.36670
      C   28   -0.17824      1.99908     4.15957    0.01959     6.17824
      C   29   -0.16726      1.99909     4.14863    0.01955     6.16726
      C   30   -0.16779      1.99907     4.14892    0.01980     6.16779
      C   31   -0.16936      1.99909     4.15059    0.01968     6.16936
      H   32    0.22059      0.00000     0.77711    0.00229     0.77941
      C   33   -0.42299      1.99936     4.41178    0.01185     6.42299
      H   34    0.23985      0.00000     0.75790    0.00225     0.76015
      C   35   -0.41722      1.99935     4.40537    0.01250     6.41722
      C   36   -0.42400      1.99936     4.41271    0.01194     6.42400
      H   37    0.22177      0.00000     0.77580    0.00243     0.77823
      H   38    0.22424      0.00000     0.77359    0.00217     0.77576
      C   39   -0.41772      1.99935     4.40561    0.01276     6.41772
      H   40    0.21477      0.00000     0.78331    0.00192     0.78523
      H   41    0.22831      0.00000     0.77020    0.00148     0.77169
      H   42    0.23125      0.00000     0.76687    0.00188     0.76875
      H   43    0.21732      0.00000     0.78106    0.00162     0.78268
      H   44    0.22788      0.00000     0.77064    0.00148     0.77212
      H   45    0.21542      0.00000     0.78265    0.00193     0.78458
      H   46    0.23309      0.00000     0.76503    0.00189     0.76691
      H   47    0.21625      0.00000     0.78207    0.00168     0.78375
      C   48    0.31820      1.99868     3.65998    0.02314     5.68180
      C   49   -0.47401      1.99934     4.45614    0.01853     6.47401
      C   50   -0.39099      1.99937     4.38095    0.01067     6.39099
      C   51   -0.38835      1.99938     4.37818    0.01079     6.38835
      H   52    0.23087      0.00000     0.76560    0.00354     0.76913
      C   53   -0.38302      1.99941     4.37367    0.00994     6.38302
      H   54    0.19219      0.00000     0.80566    0.00215     0.80781
      H   55    0.20418      0.00000     0.79359    0.00223     0.79582
      C   56   -0.38285      1.99941     4.37368    0.00976     6.38285
      H   57    0.19777      0.00000     0.80017    0.00206     0.80223
      H   58    0.21461      0.00000     0.78333    0.00206     0.78539
      C   59   -0.38844      1.99942     4.37958    0.00944     6.38844
      H   60    0.21473      0.00000     0.78390    0.00138     0.78527
      H   61    0.19558      0.00000     0.80259    0.00183     0.80442
      H   62    0.21286      0.00000     0.78577    0.00137     0.78714
      H   63    0.19533      0.00000     0.80284    0.00183     0.80467
      H   64    0.21541      0.00000     0.78323    0.00135     0.78459
      H   65    0.19004      0.00000     0.80813    0.00182     0.80996
      C   66   -0.45587      1.99935     4.43892    0.01760     6.45587
      C   67   -0.39050      1.99936     4.38120    0.00994     6.39050
      C   68   -0.39901      1.99937     4.38900    0.01064     6.39901
      H   69    0.21439      0.00000     0.78221    0.00340     0.78561
      C   70   -0.38279      1.99942     4.37368    0.00970     6.38279
      H   71    0.19644      0.00000     0.80123    0.00233     0.80356
      H   72    0.20625      0.00000     0.79175    0.00200     0.79375
      C   73   -0.38159      1.99942     4.37248    0.00969     6.38159
      H   74    0.19747      0.00000     0.80028    0.00225     0.80253
      H   75    0.20577      0.00000     0.79242    0.00181     0.79423
      C   76   -0.39020      1.99942     4.38127    0.00950     6.39020
      H   77    0.21526      0.00000     0.78336    0.00138     0.78474
      H   78    0.19240      0.00000     0.80572    0.00188     0.80760
      H   79    0.21666      0.00000     0.78195    0.00139     0.78334
      H   80    0.19175      0.00000     0.80638    0.00187     0.80825
      H   81    0.21651      0.00000     0.78214    0.00134     0.78349
      H   82    0.19352      0.00000     0.80467    0.00181     0.80648
      O   83   -0.46410      1.99976     6.44919    0.01516     8.46410
      C   84   -0.25883      1.99927     4.24648    0.01308     6.25883
      H   85    0.18237      0.00000     0.81566    0.00197     0.81763
      H   86    0.20352      0.00000     0.79526    0.00122     0.79648
      H   87    0.18481      0.00000     0.81325    0.00194     0.81519
 =======================================================================
   * Total *    1.00000    123.95457   207.33428    0.71115   332.00000

 Normal termination of Gaussian 16 at Tue Nov  5 13:01:24 2024.
