 Gaussian 16, Revision B.01,
 Gaussian 16:  ES64L-G16RevB.01 20-Dec-2017

 ------------------------------------------
 # nmr=giao b3lyp/genecp pop=nbo scfcyc=200
 ------------------------------------------

 --------------
 Ligand 20b SPE
 --------------
 Symbolic Z-matrix:
 Charge =  1 Multiplicity = 1

                         Standard orientation:
 ---------------------------------------------------------------------
 Center     Atomic      Atomic             Coordinates (Angstroms)
 Number     Number       Type             X           Y           Z
 ---------------------------------------------------------------------
      1         45           0        0.014320    1.187051    0.036450
      2         15           0        0.861120   -0.963359   -0.443910
      3         15           0       -1.301270   -0.384039    1.210740
      4          6           0        1.887059    2.352791   -0.410930
      5          1           0        2.660239    1.595452   -0.483930
      6          6           0        2.070199    3.320352    0.732400
      7          1           0        2.814419    4.078402    0.457810
      8          1           0        2.505519    2.766642    1.567040
      9          6           0        0.773669    4.011221    1.206430
     10          1           0        0.921429    4.357651    2.230620
     11          1           0        0.580819    4.905191    0.613830
     12          6           0       -0.446701    3.109621    1.175170
     13          1           0       -0.785501    2.752951    2.141680
     14          6           0       -1.330311    2.994741    0.122700
     15          1           0       -2.312531    2.589600    0.345020
     16          6           0       -1.221821    3.663431   -1.225560
     17          1           0       -1.651071    4.671761   -1.173960
     18          1           0       -1.854121    3.109011   -1.922860
     19          6           0        0.212049    3.736951   -1.795710
     20          1           0        0.145799    3.857181   -2.878210
     21          1           0        0.721279    4.627201   -1.427280
     22          6           0        1.052779    2.509451   -1.498140
     23          1           0        1.208039    1.836711   -2.335210
     24          6           0       -0.076120   -1.780989    0.956250
     25          1           0       -0.496809   -2.763719    0.741760
     26          1           0        0.578240   -1.853529    1.825950
     27          6           0       -2.896350   -0.966650    0.507340
     28          6           0       -3.439640   -0.309400   -0.595590
     29          6           0       -4.643480   -0.738740   -1.162450
     30          6           0       -5.280380   -1.842420   -0.599660
     31          6           0       -4.758590   -2.521800    0.505790
     32          6           0       -3.558410   -2.071920    1.051640
     33          6           0       -1.583290   -0.260729    3.032600
     34          1           0       -2.316850    0.521860    3.227140
     35          1           0       -1.952600   -1.200499    3.442780
     36          1           0       -0.646120    0.003471    3.522050
     37          6           0        0.230500   -1.787359   -1.967950
     38          1           0        0.683130   -1.338959   -2.851720
     39          1           0        0.437681   -2.857859   -1.952700
     40          1           0       -0.846550   -1.631889   -2.017480
     41          1           0       -6.212430   -2.188870   -1.034120
     42          1           0       -3.144190   -2.598640    1.903990
     43          1           0       -2.919880    0.539920   -1.023220
     44          6           0        2.630710   -1.428968   -0.288770
     45          6           0        3.294520   -2.159488   -1.272790
     46          6           0        3.330080   -1.001148    0.845800
     47          6           0        4.648080   -2.481918   -1.130310
     48          1           0        2.775060   -2.491278   -2.162510
     49          6           0        4.675600   -1.315418    1.015560
     50          1           0        2.826970   -0.410638    1.604230
     51          6           0        5.315160   -2.052738    0.014260
     52          1           0        6.366530   -2.293977    0.131010
     53          6           0        5.433490   -0.873818    2.240860
     54          1           0        6.327280   -0.308027    1.969180
     55          1           0        4.820240   -0.244888    2.886650
     56          1           0        5.762800   -1.734378    2.828310
     57          6           0        5.356941   -3.299918   -2.178750
     58          1           0        6.412931   -3.035397   -2.241900
     59          1           0        5.301051   -4.366208   -1.941770
     60          1           0        4.912241   -3.159758   -3.164750
     61          6           0       -5.249760   -0.010940   -2.334660
     62          1           0       -5.769220   -0.697830   -3.003890
     63          1           0       -5.980950    0.728700   -1.996320
     64          1           0       -4.491610    0.518150   -2.913450
     65          6           0       -5.487589   -3.703690    1.090610
     66          1           0       -6.426549   -3.391580    1.554840
     67          1           0       -5.736089   -4.435490    0.319340
     68          1           0       -4.891139   -4.205810    1.852460
 ---------------------------------------------------------------------

 SCF Done:  E(RB3LYP) =  -1845.35398655     A.U. after   15 cycles

      1  Rh   Isotropic =  -306.3730   Anisotropy =   348.3125

      2  P    Isotropic =   337.6730   Anisotropy =   102.5268

      3  P    Isotropic =   330.2409   Anisotropy =    78.3663

      4  C    Isotropic =    72.9841   Anisotropy =   121.9179

      5  H    Isotropic =    26.9031   Anisotropy =     4.3842

      6  C    Isotropic =   147.8287   Anisotropy =    29.0059

      7  H    Isotropic =    29.2129   Anisotropy =    12.0163

      8  H    Isotropic =    29.0724   Anisotropy =     8.0291

      9  C    Isotropic =   153.5220   Anisotropy =    25.4089

     10  H    Isotropic =    29.7669   Anisotropy =    11.4148

     11  H    Isotropic =    29.7295   Anisotropy =     9.0862

     12  C    Isotropic =    76.4135   Anisotropy =   124.2699

     13  H    Isotropic =    26.7820   Anisotropy =     7.0076

     14  C    Isotropic =    78.2141   Anisotropy =   114.7763

     15  H    Isotropic =    26.3423   Anisotropy =     4.4758

     16  C    Isotropic =   147.8045   Anisotropy =    28.9708

     17  H    Isotropic =    29.0215   Anisotropy =    12.3127

     18  H    Isotropic =    28.9732   Anisotropy =     8.6977

     19  C    Isotropic =   153.9978   Anisotropy =    24.7373

     20  H    Isotropic =    29.8429   Anisotropy =    11.5312

     21  H    Isotropic =    29.8079   Anisotropy =     9.1610

     22  C    Isotropic =    79.6831   Anisotropy =   119.6041

     23  H    Isotropic =    27.2358   Anisotropy =     7.2802

     24  C    Isotropic =   127.5486   Anisotropy =    51.7915

     25  H    Isotropic =    28.8702   Anisotropy =     8.9680

     26  H    Isotropic =    28.4697   Anisotropy =     3.6755

     27  C    Isotropic =    44.6460   Anisotropy =   167.9183

     28  C    Isotropic =    46.3090   Anisotropy =   148.7361

     29  C    Isotropic =    35.8106   Anisotropy =   199.2638

     30  C    Isotropic =    43.1919   Anisotropy =   162.9038

     31  C    Isotropic =    33.8606   Anisotropy =   204.0718

     32  C    Isotropic =    52.3419   Anisotropy =   156.2012

     33  C    Isotropic =   166.1497   Anisotropy =    29.0998

     34  H    Isotropic =    30.5270   Anisotropy =     8.3965

     35  H    Isotropic =    29.7982   Anisotropy =    10.5316

     36  H    Isotropic =    30.4668   Anisotropy =     8.8508

     37  C    Isotropic =   170.6806   Anisotropy =    21.2167

     38  H    Isotropic =    30.4390   Anisotropy =     9.3152

     39  H    Isotropic =    30.3633   Anisotropy =    10.9634

     40  H    Isotropic =    30.6416   Anisotropy =     9.2100

     41  H    Isotropic =    24.2085   Anisotropy =     8.4924

     42  H    Isotropic =    24.7901   Anisotropy =    12.5237

     43  H    Isotropic =    24.0127   Anisotropy =    11.3155

     44  C    Isotropic =    45.9847   Anisotropy =   163.2477

     45  C    Isotropic =    52.6690   Anisotropy =   162.1272

     46  C    Isotropic =    50.9426   Anisotropy =   151.6634

     47  C    Isotropic =    35.2298   Anisotropy =   202.6255

     48  H    Isotropic =    24.9793   Anisotropy =    13.5645

     49  C    Isotropic =    35.0758   Anisotropy =   202.1072

     50  H    Isotropic =    24.4718   Anisotropy =    11.6006

     51  C    Isotropic =    44.4938   Anisotropy =   161.2137

     52  H    Isotropic =    24.3146   Anisotropy =     8.4629

     53  C    Isotropic =   161.8000   Anisotropy =    41.6352

     54  H    Isotropic =    29.1932   Anisotropy =     8.6406

     55  H    Isotropic =    29.8023   Anisotropy =     5.9011

     56  H    Isotropic =    29.1580   Anisotropy =     9.2827

     57  C    Isotropic =   161.9354   Anisotropy =    42.9110

     58  H    Isotropic =    29.5180   Anisotropy =     8.7921

     59  H    Isotropic =    29.2915   Anisotropy =     9.1714

     60  H    Isotropic =    29.7329   Anisotropy =     7.0064

     61  C    Isotropic =   162.0456   Anisotropy =    41.3025

     62  H    Isotropic =    29.3393   Anisotropy =     8.8907

     63  H    Isotropic =    29.1403   Anisotropy =     8.7537

     64  H    Isotropic =    29.5932   Anisotropy =     6.0707

     65  C    Isotropic =   161.8406   Anisotropy =    42.8588

     66  H    Isotropic =    29.2086   Anisotropy =     9.3865

     67  H    Isotropic =    29.2845   Anisotropy =     8.8497

     68  H    Isotropic =    29.8852   Anisotropy =     6.7420

 The electronic state is 1-A.
 Alpha  occ. eigenvalues --  -77.23896 -77.23830 -10.30328 -10.29468 -10.29408
 Alpha  occ. eigenvalues --  -10.29371 -10.29284 -10.29222 -10.29091 -10.29064
 Alpha  occ. eigenvalues --  -10.29040 -10.28411 -10.28386 -10.28295 -10.28193
 Alpha  occ. eigenvalues --  -10.27824 -10.27822 -10.27798 -10.27742 -10.27698
 Alpha  occ. eigenvalues --  -10.27691 -10.27561 -10.27510 -10.26903 -10.26664
 Alpha  occ. eigenvalues --  -10.25687 -10.25582 -10.25469 -10.25277  -6.69905
 Alpha  occ. eigenvalues --   -6.69839  -4.86189  -4.86130  -4.86124  -4.86049
 Alpha  occ. eigenvalues --   -4.85799  -4.85742  -3.31839  -2.08744  -2.08064
 Alpha  occ. eigenvalues --   -2.05285  -0.96836  -0.96688  -0.94703  -0.90480
 Alpha  occ. eigenvalues --   -0.89431  -0.88283  -0.88253  -0.88162  -0.87958
 Alpha  occ. eigenvalues --   -0.85423  -0.84082  -0.81563  -0.80591  -0.78682
 Alpha  occ. eigenvalues --   -0.78525  -0.78228  -0.78083  -0.77997  -0.73087
 Alpha  occ. eigenvalues --   -0.71675  -0.70818  -0.67560  -0.67365  -0.66114
 Alpha  occ. eigenvalues --   -0.65775  -0.65607  -0.62726  -0.60933  -0.60617
 Alpha  occ. eigenvalues --   -0.60141  -0.58102  -0.57926  -0.57245  -0.56569
 Alpha  occ. eigenvalues --   -0.56480  -0.55597  -0.54141  -0.53887  -0.53675
 Alpha  occ. eigenvalues --   -0.53206  -0.52854  -0.52808  -0.52447  -0.52102
 Alpha  occ. eigenvalues --   -0.51898  -0.51728  -0.51310  -0.50832  -0.50509
 Alpha  occ. eigenvalues --   -0.50387  -0.50222  -0.49539  -0.48907  -0.48801
 Alpha  occ. eigenvalues --   -0.48685  -0.48536  -0.48122  -0.47139  -0.47010
 Alpha  occ. eigenvalues --   -0.46798  -0.46237  -0.46033  -0.45324  -0.44396
 Alpha  occ. eigenvalues --   -0.44313  -0.43884  -0.43614  -0.43417  -0.43361
 Alpha  occ. eigenvalues --   -0.42708  -0.42525  -0.41451  -0.37602  -0.36916
 Alpha  occ. eigenvalues --   -0.35678  -0.35339  -0.34964  -0.34583  -0.34489
 Alpha  occ. eigenvalues --   -0.34348  -0.34127  -0.31063
 Alpha virt. eigenvalues --   -0.16527  -0.14651  -0.13451  -0.12182  -0.11139
 Alpha virt. eigenvalues --   -0.10852  -0.09603  -0.08511  -0.07934  -0.07073
 Alpha virt. eigenvalues --   -0.06505  -0.06204  -0.05831  -0.04808  -0.04445

 Mulliken charges:
               1
     1  Rh  -0.551990
     2  P    0.304839
     3  P    0.299916
     4  C   -0.113878
     5  H    0.222713
     6  C   -0.232630
     7  H    0.171832
     8  H    0.130850
     9  C   -0.351526
    10  H    0.169306
    11  H    0.167821
    12  C   -0.016999
    13  H    0.177053
    14  C   -0.098668
    15  H    0.192909
    16  C   -0.219795
    17  H    0.172052
    18  H    0.129918
    19  C   -0.341410
    20  H    0.169866
    21  H    0.166236
    22  C   -0.002573
    23  H    0.168656
    24  C   -0.538775
    25  H    0.209798
    26  H    0.210515
    27  C   -0.114537
    28  C   -0.107044
    29  C    0.141292
    30  C   -0.171211
    31  C    0.135084
    32  C   -0.177253
    33  C   -0.423655
    34  H    0.167624
    35  H    0.169096
    36  H    0.154724
    37  C   -0.468375
    38  H    0.167812
    39  H    0.172076
    40  H    0.188574
    41  H    0.132081
    42  H    0.132390
    43  H    0.177111
    44  C   -0.039257
    45  C   -0.168667
    46  C   -0.169785
    47  C    0.153978
    48  H    0.148950
    49  C    0.135381
    50  H    0.149213
    51  C   -0.174012
    52  H    0.129305
    53  C   -0.446796
    54  H    0.150156
    55  H    0.128122
    56  H    0.154626
    57  C   -0.443589
    58  H    0.145502
    59  H    0.160288
    60  H    0.136154
    61  C   -0.460533
    62  H    0.147230
    63  H    0.160036
    64  H    0.131466
    65  C   -0.437139
    66  H    0.155958
    67  H    0.147858
    68  H    0.133730
 Sum of Mulliken charges =   1.00000

 Dipole moment (field-independent basis, Debye):
    X=             -0.3028    Y=             -0.8282    Z=              0.4752  Tot=              1.0017
 Quadrupole moment (field-independent basis, Debye-Ang):
   XX=           -146.4873   YY=           -172.6398   ZZ=           -185.7940
   XY=              1.3768   XZ=              1.5248   YZ=              0.3126

 Summary of Natural Population Analysis:

                                       Natural Population
                Natural  -----------------------------------------------
    Atom  No    Charge         Core      Valence    Rydberg      Total
 -----------------------------------------------------------------------
     Rh    1   -0.44020     35.98577     9.42904    0.02539    45.44020
      P    2    1.13224      9.99663     3.82186    0.04927    13.86776
      P    3    1.11391      9.99663     3.83891    0.05055    13.88609
      C    4   -0.15237      1.99905     4.13291    0.02041     6.15237
      H    5    0.23290      0.00000     0.76512    0.00197     0.76710
      C    6   -0.42085      1.99936     4.40908    0.01241     6.42085
      H    7    0.23393      0.00000     0.76426    0.00181     0.76607
      H    8    0.21693      0.00000     0.78153    0.00154     0.78307
      C    9   -0.42496      1.99937     4.41362    0.01197     6.42496
      H   10    0.22860      0.00000     0.77000    0.00139     0.77140
      H   11    0.21482      0.00000     0.78324    0.00194     0.78518
      C   12   -0.15926      1.99905     4.14055    0.01966     6.15926
      H   13    0.22271      0.00000     0.77552    0.00177     0.77729
      C   14   -0.16625      1.99905     4.14696    0.02023     6.16625
      H   15    0.22664      0.00000     0.77158    0.00178     0.77336
      C   16   -0.42079      1.99936     4.40887    0.01256     6.42079
      H   17    0.23450      0.00000     0.76371    0.00180     0.76550
      H   18    0.21607      0.00000     0.78240    0.00153     0.78393
      C   19   -0.42357      1.99937     4.41240    0.01180     6.42357
      H   20    0.22903      0.00000     0.76958    0.00139     0.77097
      H   21    0.21439      0.00000     0.78368    0.00194     0.78561
      C   22   -0.17598      1.99906     4.15728    0.01965     6.17598
      H   23    0.22824      0.00000     0.77020    0.00156     0.77176
      C   24   -0.97114      1.99944     4.95546    0.01624     6.97114
      H   25    0.25484      0.00000     0.74319    0.00197     0.74516
      H   26    0.25992      0.00000     0.73865    0.00142     0.74008
      C   27   -0.33433      1.99901     4.31164    0.02368     6.33433
      C   28   -0.20148      1.99900     4.18832    0.01416     6.20148
      C   29    0.00302      1.99913     3.98257    0.01527     5.99698
      C   30   -0.17611      1.99901     4.16428    0.01281     6.17611
      C   31    0.01096      1.99914     3.97473    0.01517     5.98904
      C   32   -0.20789      1.99900     4.19412    0.01477     6.20789
      C   33   -0.89351      1.99942     4.88490    0.00919     6.89351
      H   34    0.24536      0.00000     0.75356    0.00108     0.75464
      H   35    0.23861      0.00000     0.75980    0.00160     0.76139
      H   36    0.23985      0.00000     0.75893    0.00122     0.76015
      C   37   -0.90226      1.99942     4.89340    0.00944     6.90226
      H   38    0.24349      0.00000     0.75539    0.00112     0.75651
      H   39    0.23953      0.00000     0.75861    0.00186     0.76047
      H   40    0.25073      0.00000     0.74806    0.00121     0.74927
      H   41    0.21219      0.00000     0.78628    0.00153     0.78781
      H   42    0.20344      0.00000     0.79361    0.00295     0.79656
      H   43    0.21303      0.00000     0.78385    0.00311     0.78697
      C   44   -0.33100      1.99901     4.30959    0.02239     6.33100
      C   45   -0.20473      1.99900     4.19159    0.01414     6.20473
      C   46   -0.21340      1.99900     4.20026    0.01414     6.21340
      C   47    0.01125      1.99914     3.97434    0.01528     5.98875
      H   48    0.20738      0.00000     0.78987    0.00275     0.79262
      C   49    0.00779      1.99913     3.97786    0.01521     5.99221
      H   50    0.20651      0.00000     0.79088    0.00261     0.79349
      C   51   -0.17951      1.99901     4.16760    0.01289     6.17951
      H   52    0.21208      0.00000     0.78639    0.00154     0.78792
      C   53   -0.61492      1.99941     4.60849    0.00702     6.61492
      H   54    0.22504      0.00000     0.77376    0.00120     0.77496
      H   55    0.21050      0.00000     0.78836    0.00113     0.78950
      H   56    0.22661      0.00000     0.77215    0.00123     0.77339
      C   57   -0.61531      1.99941     4.60887    0.00704     6.61531
      H   58    0.22287      0.00000     0.77602    0.00110     0.77713
      H   59    0.22617      0.00000     0.77250    0.00133     0.77383
      H   60    0.21614      0.00000     0.78273    0.00113     0.78386
      C   61   -0.61481      1.99941     4.60840    0.00701     6.61481
      H   62    0.22330      0.00000     0.77559    0.00111     0.77670
      H   63    0.22627      0.00000     0.77240    0.00133     0.77373
      H   64    0.21250      0.00000     0.78633    0.00116     0.78750
      C   65   -0.61582      1.99941     4.60938    0.00704     6.61582
      H   66    0.22741      0.00000     0.77134    0.00125     0.77259
      H   67    0.22486      0.00000     0.77396    0.00118     0.77514
      H   68    0.21388      0.00000     0.78501    0.00110     0.78612
 =======================================================================
   * Total *    1.00000    109.95720   163.47535    0.56745   274.00000

 Normal termination of Gaussian 16 at Mon Jan  1 04:54:36 2001.
