 Gaussian 16, Revision B.01,
 Gaussian 16:  ES64L-G16RevB.01 20-Dec-2017

 ------------------------------------------
 # nmr=giao b3lyp/genecp pop=nbo scfcyc=200
 ------------------------------------------

 -------------
 Ligand 23 SPE
 -------------
 Symbolic Z-matrix:
 Charge =  1 Multiplicity = 1

                         Standard orientation:
 ---------------------------------------------------------------------
 Center     Atomic      Atomic             Coordinates (Angstroms)
 Number     Number       Type             X           Y           Z
 ---------------------------------------------------------------------
      1          7           0       -0.486179   -0.780347    1.698191
      2          8           0       -2.751826   -0.315147    2.634971
      3         15           0       -2.111061   -1.378108    1.531581
      4         15           0       -0.116155   -0.361202    0.051011
      5          6           0       -0.314618   -0.122465    3.030931
      6          1           0        0.039042   -0.885870    3.722861
      7          6           0       -1.750745    0.378926    3.418261
      8          1           0       -1.952242    0.146254    4.463841
      9          6           0       -1.751385    1.901356    3.187401
     10          1           0       -2.194098    2.134560    2.214991
     11          1           0       -2.342212    2.427278    3.937931
     12          6           0       -0.285360    2.258766    3.233611
     13          6           0        0.521215    1.123187    3.118271
     14          6           0        1.906554    1.215785    3.195821
     15          1           0        2.529736    0.330113    3.149681
     16          6           0        2.486477    2.470523    3.358431
     17          1           0        3.562726    2.563347    3.427661
     18          6           0        1.685372    3.608172    3.455941
     19          1           0        2.148549    4.576948    3.594421
     20          6           0        0.296723    3.509424    3.400881
     21          1           0       -0.316978    4.395985    3.506781
     22          6           0       -2.320319   -3.064151    2.352811
     23          6           0       -1.661358   -3.132112    3.736891
     24          1           0       -2.056988   -2.379928    4.420151
     25          1           0       -0.576729   -3.033258    3.680591
     26          1           0       -1.871725   -4.109925    4.177481
     27          6           0       -3.839796   -3.281041    2.492371
     28          1           0       -4.018163   -4.269244    2.922531
     29          1           0       -4.356436   -3.249168    1.531391
     30          1           0       -4.295266   -2.540958    3.151131
     31          6           0       -1.704315   -4.118813    1.421041
     32          1           0       -1.888842   -5.113085    1.834651
     33          1           0       -0.623516   -3.998539    1.327011
     34          1           0       -2.138315   -4.088499    0.420171
     35         45           0       -2.182235   -1.117329   -0.770259
     36          6           0       -4.097610   -2.216775   -1.415599
     37          6           0       -4.402728   -0.900559   -1.144689
     38          6           0       -2.151116   -0.275429   -2.925809
     39          6           0       -1.683489   -1.569623   -2.943079
     40          1           0       -4.255241   -2.929817   -0.615149
     41          6           0       -3.921472   -2.822213   -2.794629
     42          1           0       -4.804961   -0.675404   -0.161869
     43          6           0       -4.549203    0.215319   -2.148599
     44          6           0       -3.544592    0.173942   -3.321909
     45          1           0       -1.407887    0.512381   -2.874009
     46          1           0       -0.606787   -1.708078   -2.928329
     47          6           0       -2.460792   -2.813433   -3.291869
     48          1           0       -4.569899   -2.311261   -3.505399
     49          1           0       -4.267238   -3.856537   -2.763829
     50          1           0       -5.573613    0.215835   -2.541139
     51          1           0       -4.440045    1.162211   -1.616339
     52          1           0       -3.474145    1.176743   -3.745139
     53          1           0       -3.919044   -0.464443   -4.121359
     54          1           0       -2.437600   -2.962703   -4.378399
     55          1           0       -1.930531   -3.667386   -2.865109
     56          6           0        1.510786   -1.147300   -0.305119
     57          6           0        2.094233   -0.989532   -1.565079
     58          6           0        2.118647   -1.980732    0.627941
     59          6           0        3.276352   -1.650677   -1.873639
     60          1           0        1.636925   -0.352968   -2.312659
     61          6           0        3.308115   -2.632726    0.312981
     62          1           0        1.662909   -2.126618    1.597701
     63          6           0        3.894443   -2.473018   -0.935099
     64          1           0        4.813070   -2.987476   -1.179109
     65          6           0        0.180751    1.446522   -0.198369
     66          6           0        1.453353    2.025989   -0.188789
     67          6           0       -0.928270    2.241627   -0.477409
     68          6           0        1.599455    3.379131   -0.456739
     69          1           0        2.329821    1.432651    0.025131
     70          6           0       -0.773538    3.601509   -0.733009
     71          1           0       -1.914014    1.793234   -0.511279
     72          6           0        0.488455    4.176046   -0.729149
     73          1           0        0.609981    5.229888   -0.941209
     74          6           0       -2.008779    4.428393   -1.003499
     75          6           0        2.970487    4.020419   -0.479479
     76          6           0        3.937667   -3.517918    1.365491
     77          6           0        3.906809   -1.430518   -3.232239
     78          9           0        2.966299   -1.378601   -4.201119
     79          9           0        4.579354   -0.261819   -3.271739
     80          9           0        4.768782   -2.407847   -3.550279
     81          9           0        5.062935   -4.102813    0.935191
     82          9           0        3.084890   -4.494869    1.748941
     83          9           0        4.239708   -2.807604    2.475761
     84          9           0        3.932488    3.168182   -0.080259
     85          9           0        3.018172    5.097980    0.329621
     86          9           0        3.288211    4.440434   -1.720009
     87          9           0       -2.769240    4.543533    0.109301
     88          9           0       -2.788211    3.844433   -1.945119
     89          9           0       -1.715835    5.664637   -1.426019
 ---------------------------------------------------------------------

 SCF Done:  E(RB3LYP) =  -3553.36367376     A.U. after   17 cycles

      1  N    Isotropic =   126.8306   Anisotropy =   103.0721

      2  O    Isotropic =   215.6844   Anisotropy =    70.6983

      3  P    Isotropic =   108.1341   Anisotropy =   126.1466

      4  P    Isotropic =   232.3113   Anisotropy =    88.3882

      5  C    Isotropic =   105.9815   Anisotropy =    28.7861

      6  H    Isotropic =    26.5615   Anisotropy =     6.5675

      7  C    Isotropic =    87.7559   Anisotropy =    75.4574

      8  H    Isotropic =    26.3382   Anisotropy =     5.8712

      9  C    Isotropic =   141.9473   Anisotropy =    42.4163

     10  H    Isotropic =    29.2063   Anisotropy =     4.3502

     11  H    Isotropic =    28.5702   Anisotropy =     9.5046

     12  C    Isotropic =    35.6567   Anisotropy =   165.9480

     13  C    Isotropic =    45.8443   Anisotropy =   155.3086

     14  C    Isotropic =    52.2091   Anisotropy =   181.7943

     15  H    Isotropic =    24.6533   Anisotropy =     7.4371

     16  C    Isotropic =    49.4924   Anisotropy =   194.2758

     17  H    Isotropic =    24.5992   Anisotropy =     5.1293

     18  C    Isotropic =    44.8717   Anisotropy =   201.4110

     19  H    Isotropic =    24.6139   Anisotropy =     2.3234

     20  C    Isotropic =    53.1764   Anisotropy =   182.6808

     21  H    Isotropic =    25.1513   Anisotropy =     6.1245

     22  C    Isotropic =   128.8459   Anisotropy =    42.3019

     23  C    Isotropic =   158.0614   Anisotropy =    39.7386

     24  H    Isotropic =    30.5659   Anisotropy =     6.2632

     25  H    Isotropic =    30.5467   Anisotropy =     6.7368

     26  H    Isotropic =    30.6146   Anisotropy =    11.2385

     27  C    Isotropic =   161.0188   Anisotropy =    38.2387

     28  H    Isotropic =    30.8561   Anisotropy =    11.1834

     29  H    Isotropic =    31.1392   Anisotropy =     6.8610

     30  H    Isotropic =    30.4763   Anisotropy =     8.4150

     31  C    Isotropic =   159.6510   Anisotropy =    32.8877

     32  H    Isotropic =    30.6930   Anisotropy =    10.2068

     33  H    Isotropic =    30.7613   Anisotropy =     8.1658

     34  H    Isotropic =    30.3322   Anisotropy =     6.7761

     35  Rh   Isotropic =  -302.8435   Anisotropy =   352.7753

     36  C    Isotropic =    77.0182   Anisotropy =   124.9940

     37  C    Isotropic =    73.4060   Anisotropy =   124.5688

     38  C    Isotropic =    73.3228   Anisotropy =   128.8184

     39  C    Isotropic =    71.3530   Anisotropy =   123.9779

     40  H    Isotropic =    26.6446   Anisotropy =     6.5187

     41  C    Isotropic =   154.1912   Anisotropy =    25.1035

     42  H    Isotropic =    25.6117   Anisotropy =     5.4896

     43  C    Isotropic =   146.9830   Anisotropy =    29.5794

     44  C    Isotropic =   154.8176   Anisotropy =    24.0842

     45  H    Isotropic =    27.2820   Anisotropy =     3.4976

     46  H    Isotropic =    26.7897   Anisotropy =     5.4524

     47  C    Isotropic =   148.4892   Anisotropy =    29.0695

     48  H    Isotropic =    29.6965   Anisotropy =     9.7750

     49  H    Isotropic =    29.8525   Anisotropy =    11.8286

     50  H    Isotropic =    28.9197   Anisotropy =    12.7659

     51  H    Isotropic =    28.7794   Anisotropy =     8.0641

     52  H    Isotropic =    29.8180   Anisotropy =    10.2883

     53  H    Isotropic =    29.7540   Anisotropy =     9.9898

     54  H    Isotropic =    29.2423   Anisotropy =    12.6158

     55  H    Isotropic =    29.3779   Anisotropy =     6.9367

     56  C    Isotropic =    42.0726   Anisotropy =   169.7377

     57  C    Isotropic =    49.5605   Anisotropy =   192.0686

     58  C    Isotropic =    46.2856   Anisotropy =   197.8216

     59  C    Isotropic =    41.7684   Anisotropy =   166.5113

     60  H    Isotropic =    24.8612   Anisotropy =    13.8518

     61  C    Isotropic =    42.2603   Anisotropy =   165.8695

     62  H    Isotropic =    23.1724   Anisotropy =    14.0194

     63  C    Isotropic =    52.6317   Anisotropy =   191.8233

     64  H    Isotropic =    23.4720   Anisotropy =     9.8624

     65  C    Isotropic =    43.9597   Anisotropy =   175.1748

     66  C    Isotropic =    47.2506   Anisotropy =   198.5452

     67  C    Isotropic =    41.3362   Anisotropy =   187.9267

     68  C    Isotropic =    43.2483   Anisotropy =   167.5205

     69  H    Isotropic =    25.3539   Anisotropy =    12.3967

     70  C    Isotropic =    43.8871   Anisotropy =   163.3573

     71  H    Isotropic =    22.4940   Anisotropy =    11.3559

     72  C    Isotropic =    50.0003   Anisotropy =   197.0956

     73  H    Isotropic =    23.9538   Anisotropy =     9.5743

     74  C    Isotropic =    49.2426   Anisotropy =    15.2688

     75  C    Isotropic =    50.4695   Anisotropy =    13.5795

     76  C    Isotropic =    49.4205   Anisotropy =    15.3493

     77  C    Isotropic =    49.9439   Anisotropy =    14.8541

     78  F    Isotropic =   238.4210   Anisotropy =   141.7127

     79  F    Isotropic =   218.0015   Anisotropy =   141.3474

     80  F    Isotropic =   248.1878   Anisotropy =   124.2052

     81  F    Isotropic =   253.5201   Anisotropy =   115.6105

     82  F    Isotropic =   226.3634   Anisotropy =   145.9372

     83  F    Isotropic =   224.7498   Anisotropy =   145.7974

     84  F    Isotropic =   254.0404   Anisotropy =   115.4642

     85  F    Isotropic =   228.2683   Anisotropy =   142.1529

     86  F    Isotropic =   221.7375   Anisotropy =   143.6551

     87  F    Isotropic =   220.8097   Anisotropy =   143.4800

     88  F    Isotropic =   231.4124   Anisotropy =   148.4088

     89  F    Isotropic =   252.2524   Anisotropy =   117.3975

 The electronic state is 1-A.
 Alpha  occ. eigenvalues --  -77.29600 -77.29080 -24.81940 -24.81770 -24.81543
 Alpha  occ. eigenvalues --  -24.81535 -24.81371 -24.81283 -24.81226 -24.81194
 Alpha  occ. eigenvalues --  -24.81178 -24.80899 -24.80819 -24.80737 -19.26895
 Alpha  occ. eigenvalues --  -14.46654 -10.53520 -10.53126 -10.52986 -10.52874
 Alpha  occ. eigenvalues --  -10.35753 -10.34576 -10.33249 -10.33227 -10.33046
 Alpha  occ. eigenvalues --  -10.33043 -10.32991 -10.32885 -10.32703 -10.32565
 Alpha  occ. eigenvalues --  -10.32439 -10.32432 -10.32333 -10.32113 -10.31951
 Alpha  occ. eigenvalues --  -10.31093 -10.31018 -10.30930 -10.30702 -10.29174
 Alpha  occ. eigenvalues --  -10.29117 -10.29094 -10.29018 -10.28829 -10.28809
 Alpha  occ. eigenvalues --  -10.28745 -10.28410 -10.27879 -10.27815 -10.27796
 Alpha  occ. eigenvalues --  -10.27763 -10.27740 -10.27691  -6.74970  -6.74658
 Alpha  occ. eigenvalues --   -4.91470  -4.91119  -4.91054  -4.90843  -4.90810
 Alpha  occ. eigenvalues --   -4.90551  -3.33920  -2.10951  -2.10177  -2.07248
 Alpha  occ. eigenvalues --   -1.42066  -1.41661  -1.41497  -1.41391  -1.33454
 Alpha  occ. eigenvalues --   -1.33039  -1.32915  -1.32834  -1.32733  -1.32498
 Alpha  occ. eigenvalues --   -1.32365  -1.32237  -1.16928  -1.04280  -1.01585
 Alpha  occ. eigenvalues --   -1.01373  -0.98453  -0.96210  -0.93837  -0.92833
 Alpha  occ. eigenvalues --   -0.92652  -0.92579  -0.91666  -0.91056  -0.90506
 Alpha  occ. eigenvalues --   -0.89638  -0.87151  -0.83448  -0.82516  -0.82347
 Alpha  occ. eigenvalues --   -0.82264  -0.82042  -0.81849  -0.81768  -0.80613
 Alpha  occ. eigenvalues --   -0.80561  -0.79534  -0.79427  -0.75648  -0.75415
 Alpha  occ. eigenvalues --   -0.75087  -0.74907  -0.73312  -0.72223  -0.71939
 Alpha  occ. eigenvalues --   -0.71050  -0.70801  -0.70050  -0.69909  -0.69835
 Alpha  occ. eigenvalues --   -0.69522  -0.69479  -0.69271  -0.69130  -0.68988
 Alpha  occ. eigenvalues --   -0.68746  -0.67583  -0.66273  -0.66127  -0.64860
 Alpha  occ. eigenvalues --   -0.64718  -0.64265  -0.63675  -0.63473  -0.62849
 Alpha  occ. eigenvalues --   -0.61898  -0.61662  -0.60948  -0.60595  -0.59482
 Alpha  occ. eigenvalues --   -0.59178  -0.58811  -0.58145  -0.57824  -0.57594
 Alpha  occ. eigenvalues --   -0.57437  -0.57129  -0.57066  -0.57007  -0.56840
 Alpha  occ. eigenvalues --   -0.56690  -0.56649  -0.56446  -0.55897  -0.55832
 Alpha  occ. eigenvalues --   -0.55427  -0.55199  -0.54690  -0.54433  -0.54299
 Alpha  occ. eigenvalues --   -0.54230  -0.54159  -0.53837  -0.53570  -0.53472
 Alpha  occ. eigenvalues --   -0.53443  -0.53347  -0.53285  -0.53121  -0.52745
 Alpha  occ. eigenvalues --   -0.52674  -0.52375  -0.52161  -0.52140  -0.51831
 Alpha  occ. eigenvalues --   -0.51638  -0.51344  -0.51206  -0.51138  -0.50976
 Alpha  occ. eigenvalues --   -0.50873  -0.50749  -0.50484  -0.50373  -0.49945
 Alpha  occ. eigenvalues --   -0.49821  -0.49443  -0.49040  -0.48722  -0.48546
 Alpha  occ. eigenvalues --   -0.48066  -0.47905  -0.47622  -0.47427  -0.47251
 Alpha  occ. eigenvalues --   -0.46486  -0.45916  -0.45753  -0.45459  -0.45284
 Alpha  occ. eigenvalues --   -0.44809  -0.44707  -0.44410  -0.43879  -0.41510
 Alpha  occ. eigenvalues --   -0.41084  -0.40873  -0.40365  -0.40127  -0.39904
 Alpha  occ. eigenvalues --   -0.38541  -0.38098  -0.37004  -0.36687  -0.36185
 Alpha  occ. eigenvalues --   -0.35950  -0.35365  -0.32998
 Alpha virt. eigenvalues --   -0.18407  -0.18238  -0.17243  -0.16883  -0.15983
 Alpha virt. eigenvalues --   -0.15205  -0.12852  -0.12082  -0.11311  -0.10333
 Alpha virt. eigenvalues --   -0.09259  -0.08673  -0.07560  -0.07323  -0.06977

 Mulliken charges:
               1
     1  N   -0.401208
     2  O   -0.323422
     3  P    0.629824
     4  P    0.399574
     5  C   -0.096322
     6  H    0.201690
     7  C   -0.040238
     8  H    0.193635
     9  C   -0.325875
    10  H    0.181312
    11  H    0.173897
    12  C    0.057048
    13  C   -0.105338
    14  C   -0.119080
    15  H    0.133118
    16  C   -0.108523
    17  H    0.134693
    18  C   -0.064436
    19  H    0.135330
    20  C   -0.115228
    21  H    0.130427
    22  C   -0.031835
    23  C   -0.398053
    24  H    0.152902
    25  H    0.136164
    26  H    0.162237
    27  C   -0.411659
    28  H    0.158797
    29  H    0.133229
    30  H    0.166532
    31  C   -0.388389
    32  H    0.162680
    33  H    0.144824
    34  H    0.138889
    35  Rh  -0.677790
    36  C   -0.007809
    37  C   -0.096446
    38  C   -0.040615
    39  C   -0.082423
    40  H    0.178737
    41  C   -0.355452
    42  H    0.196075
    43  C   -0.254986
    44  C   -0.356797
    45  H    0.201657
    46  H    0.195750
    47  C   -0.223367
    48  H    0.172292
    49  H    0.176897
    50  H    0.183436
    51  H    0.154056
    52  H    0.180832
    53  H    0.173760
    54  H    0.182282
    55  H    0.139135
    56  C   -0.069515
    57  C   -0.098727
    58  C   -0.032156
    59  C   -0.099531
    60  H    0.187365
    61  C   -0.122897
    62  H    0.198428
    63  C   -0.044384
    64  H    0.186878
    65  C   -0.208117
    66  C   -0.020497
    67  C   -0.051146
    68  C   -0.077137
    69  H    0.176996
    70  C   -0.098178
    71  H    0.245691
    72  C   -0.047934
    73  H    0.167807
    74  C    0.438646
    75  C    0.462174
    76  C    0.439571
    77  C    0.442729
    78  F   -0.160076
    79  F   -0.143070
    80  F   -0.145734
    81  F   -0.143236
    82  F   -0.154856
    83  F   -0.153570
    84  F   -0.158916
    85  F   -0.154909
    86  F   -0.143001
    87  F   -0.152500
    88  F   -0.161426
    89  F   -0.141195
 Sum of Mulliken charges =   1.00000

 Dipole moment (field-independent basis, Debye):
    X=             -7.6969    Y=             -3.9720    Z=              1.9525  Tot=              8.8787
 Quadrupole moment (field-independent basis, Debye-Ang):
   XX=           -304.8565   YY=           -305.3895   ZZ=           -302.2841
   XY=             19.1445   XZ=             10.7637   YZ=              8.8312

 Summary of Natural Population Analysis:

                                       Natural Population
                Natural  -----------------------------------------------
    Atom  No    Charge         Core      Valence    Rydberg      Total
 -----------------------------------------------------------------------
      N    1   -1.02098      1.99959     5.99651    0.02488     8.02098
      O    2   -0.75902      1.99982     6.74377    0.01544     8.75902
      P    3    1.62263      9.99592     3.30820    0.07325    13.37737
      P    4    1.32746      9.99605     3.61309    0.06340    13.67254
      C    5   -0.09266      1.99921     4.06928    0.02417     6.09266
      H    6    0.21919      0.00000     0.77814    0.00267     0.78081
      C    7    0.09947      1.99923     3.88239    0.01891     5.90053
      H    8    0.20499      0.00000     0.79299    0.00202     0.79501
      C    9   -0.44107      1.99933     4.43042    0.01133     6.44107
      H   10    0.22676      0.00000     0.77141    0.00183     0.77324
      H   11    0.23537      0.00000     0.76329    0.00134     0.76463
      C   12    0.00370      1.99904     3.98125    0.01601     5.99630
      C   13   -0.06675      1.99899     4.04920    0.01857     6.06675
      C   14   -0.19311      1.99908     4.17952    0.01450     6.19311
      H   15    0.21633      0.00000     0.78176    0.00191     0.78367
      C   16   -0.19756      1.99921     4.18355    0.01479     6.19756
      H   17    0.22541      0.00000     0.77340    0.00119     0.77459
      C   18   -0.17579      1.99922     4.16214    0.01442     6.17579
      H   19    0.22543      0.00000     0.77342    0.00115     0.77457
      C   20   -0.19574      1.99909     4.18228    0.01437     6.19574
      H   21    0.22066      0.00000     0.77771    0.00163     0.77934
      C   22   -0.32488      1.99943     4.30357    0.02188     6.32488
      C   23   -0.60389      1.99936     4.59603    0.00849     6.60389
      H   24    0.21368      0.00000     0.78481    0.00151     0.78632
      H   25    0.20775      0.00000     0.79070    0.00155     0.79225
      H   26    0.22923      0.00000     0.76906    0.00171     0.77077
      C   27   -0.60521      1.99936     4.59797    0.00788     6.60521
      H   28    0.22766      0.00000     0.77061    0.00172     0.77234
      H   29    0.20480      0.00000     0.79375    0.00145     0.79520
      H   30    0.22605      0.00000     0.77253    0.00142     0.77395
      C   31   -0.60026      1.99935     4.59357    0.00734     6.60026
      H   32    0.22746      0.00000     0.77083    0.00171     0.77254
      H   33    0.21368      0.00000     0.78478    0.00154     0.78632
      H   34    0.21595      0.00000     0.78252    0.00153     0.78405
     Rh   35   -0.44994     35.98461     9.43523    0.03011    45.44994
      C   36   -0.17357      1.99907     4.15416    0.02034     6.17357
      C   37   -0.14736      1.99908     4.12788    0.02040     6.14736
      C   38   -0.16481      1.99907     4.14575    0.01999     6.16481
      C   39   -0.15523      1.99908     4.13592    0.02023     6.15523
      H   40    0.22332      0.00000     0.77450    0.00218     0.77668
      C   41   -0.42569      1.99936     4.41438    0.01195     6.42569
      H   42    0.23386      0.00000     0.76435    0.00179     0.76614
      C   43   -0.42186      1.99935     4.40978    0.01272     6.42186
      C   44   -0.42810      1.99936     4.41673    0.01202     6.42810
      H   45    0.22527      0.00000     0.77280    0.00193     0.77473
      H   46    0.22734      0.00000     0.77052    0.00215     0.77266
      C   47   -0.42076      1.99935     4.40855    0.01286     6.42076
      H   48    0.21816      0.00000     0.77984    0.00200     0.78184
      H   49    0.23270      0.00000     0.76581    0.00149     0.76730
      H   50    0.24071      0.00000     0.75744    0.00185     0.75929
      H   51    0.22117      0.00000     0.77723    0.00160     0.77883
      H   52    0.23637      0.00000     0.76216    0.00146     0.76363
      H   53    0.21856      0.00000     0.77945    0.00199     0.78144
      H   54    0.24042      0.00000     0.75772    0.00186     0.75958
      H   55    0.22002      0.00000     0.77848    0.00151     0.77998
      C   56   -0.35168      1.99901     4.32718    0.02549     6.35168
      C   57   -0.15657      1.99902     4.14285    0.01469     6.15657
      C   58   -0.14906      1.99902     4.13459    0.01546     6.14906
      C   59   -0.11620      1.99897     4.09989    0.01733     6.11620
      H   60    0.23385      0.00000     0.76423    0.00192     0.76615
      C   61   -0.11794      1.99897     4.10181    0.01717     6.11794
      H   62    0.23777      0.00000     0.75932    0.00291     0.76223
      C   63   -0.13300      1.99905     4.12049    0.01346     6.13300
      H   64    0.25996      0.00000     0.73860    0.00144     0.74004
      C   65   -0.35494      1.99898     4.32872    0.02724     6.35494
      C   66   -0.13798      1.99901     4.12126    0.01772     6.13798
      C   67   -0.14314      1.99902     4.12754    0.01658     6.14314
      C   68   -0.12011      1.99896     4.10215    0.01900     6.12011
      H   69    0.24518      0.00000     0.75252    0.00229     0.75482
      C   70   -0.13153      1.99896     4.11495    0.01762     6.13153
      H   71    0.23973      0.00000     0.75757    0.00270     0.76027
      C   72   -0.11724      1.99904     4.10499    0.01321     6.11724
      H   73    0.25534      0.00000     0.74323    0.00143     0.74466
      C   74    0.93658      1.99917     3.01401    0.05025     5.06342
      C   75    0.93555      1.99918     3.01479    0.05048     5.06445
      C   76    0.93450      1.99918     3.01558    0.05074     5.06550
      C   77    0.93402      1.99918     3.01593    0.05086     5.06598
      F   78   -0.31010      1.99993     7.30281    0.00736     9.31010
      F   79   -0.30155      1.99992     7.29396    0.00766     9.30155
      F   80   -0.29753      1.99992     7.29005    0.00755     9.29753
      F   81   -0.29567      1.99992     7.28819    0.00755     9.29567
      F   82   -0.30904      1.99993     7.30163    0.00748     9.30904
      F   83   -0.30860      1.99993     7.30123    0.00745     9.30860
      F   84   -0.30600      1.99992     7.29879    0.00728     9.30600
      F   85   -0.30387      1.99992     7.29643    0.00751     9.30387
      F   86   -0.30031      1.99992     7.29296    0.00743     9.30031
      F   87   -0.30849      1.99993     7.30122    0.00734     9.30849
      F   88   -0.31423      1.99993     7.30678    0.00752     9.31423
      F   89   -0.29503      1.99992     7.28759    0.00752     9.29503
 =======================================================================
   * Total *    1.00000    157.94342   294.95698    1.09959   454.00000

 Normal termination of Gaussian 16 at Wed Nov  6 00:40:51 2024.
