 Gaussian 16, Revision B.01,
 Gaussian 16:  ES64L-G16RevB.01 20-Dec-2017

 ------------------------------------------
 # nmr=giao b3lyp/genecp pop=nbo scfcyc=200
 ------------------------------------------

 -------------
 Ligand 27 SPE
 -------------
 Symbolic Z-matrix:
 Charge =  1 Multiplicity = 1

                         Standard orientation:
 ---------------------------------------------------------------------
 Center     Atomic      Atomic             Coordinates (Angstroms)
 Number     Number       Type             X           Y           Z
 ---------------------------------------------------------------------
      1          6           0       -0.380240    0.073341   -1.073480
      2          1           0        0.179789   -0.246470   -1.951620
      3          1           0       -1.314320    0.546022   -1.377740
      4          6           0        0.982221    1.246430    3.714810
      5          1           0        1.827061    1.688029    3.198130
      6          6           0       -0.249459    1.806771    3.469580
      7          1           0       -0.283508    2.652841    2.790960
      8          6           0       -1.521329    1.570512    4.244000
      9          1           0       -1.565788    2.267282    5.090590
     10          1           0       -2.357589    1.839843    3.595500
     11          6           0       -1.718860    0.125412    4.752530
     12          1           0       -2.779620   -0.019867    4.963820
     13          1           0       -1.204060   -0.017688    5.701810
     14          6           0       -1.278331   -0.940058    3.766760
     15          1           0       -2.079052   -1.450128    3.245090
     16          6           0       -0.034352   -1.521279    3.704430
     17          1           0        0.051697   -2.451339    3.151000
     18          6           0        1.173328   -1.175690    4.538260
     19          1           0        1.151358   -1.756330    5.469020
     20          1           0        2.057418   -1.519541    3.996880
     21          6           0        1.333600    0.325379    4.867430
     22          1           0        0.742280    0.588400    5.743720
     23          1           0        2.373750    0.503258    5.145210
     24         15           0        0.553881    1.155280    0.118570
     25         15           0       -0.730752   -1.236449    0.225320
     26         45           0       -0.070620    0.037681    2.047810
     27          8           0        0.099022    2.704560   -0.049530
     28          8           0        2.066590    0.995379   -0.475650
     29          8           0        0.180917   -2.522690   -0.120700
     30          8           0       -2.242112   -1.788877   -0.060820
     31          6           0        0.159473    3.479870   -1.314040
     32          6           0       -1.278987    3.717572   -1.812320
     33          6           0        0.900644    4.778980   -1.017040
     34          1           0        0.727292    2.885100   -2.027630
     35          6           0       -2.012386    4.662132   -0.829300
     36          1           0       -1.798338    2.753202   -1.758150
     37          6           0        0.154905    5.665540   -0.015180
     38          1           0        1.902474    4.549259   -0.652290
     39          1           0        1.036354    5.305440   -1.966140
     40          6           0       -1.288115    5.973122   -0.453200
     41          1           0       -2.156027    4.097183    0.096290
     42          1           0       -3.014156    4.882133   -1.199880
     43          1           0        0.709716    6.595490    0.132920
     44          1           0        0.135024    5.157970    0.953150
     45          1           0       -1.813585    6.365882    0.423630
     46          6           0        3.280190    1.002578    0.374140
     47          6           0        4.252960   -0.026263   -0.234820
     48          6           0        3.816432    2.426837    0.460710
     49          1           0        2.968440    0.651878    1.361310
     50          6           0        5.068580    0.553226   -1.425410
     51          1           0        3.597049   -0.779693   -0.678400
     52          6           0        4.370282    2.922117   -0.876980
     53          1           0        3.026312    3.089248    0.824130
     54          1           0        4.601892    2.446896    1.219590
     55          6           0        5.516831    2.034106   -1.385570
     56          1           0        4.430810    0.452227   -2.308210
     57          1           0        5.934049   -0.082865   -1.619830
     58          1           0        4.713183    3.955026   -0.775000
     59          1           0        3.564742    2.930547   -1.616470
     60          1           0        5.698072    2.307745   -2.429810
     61          6           0        0.078167   -3.298160   -1.383510
     62          6           0        1.502006   -3.441231   -1.947970
     63          6           0       -0.583365   -4.635539   -1.069910
     64          1           0       -0.552063   -2.726269   -2.062980
     65          6           0        2.328216   -4.365222   -1.020290
     66          1           0        1.961617   -2.447321   -1.886540
     67          6           0        0.258355   -5.497620   -0.124640
     68          1           0       -1.572274   -4.453548   -0.646920
     69          1           0       -0.744245   -5.154459   -2.019580
     70          6           0        1.691264   -5.720001   -0.640770
     71          1           0        2.485076   -3.811502   -0.090200
     72          1           0        3.321395   -4.525562   -1.441200
     73          1           0       -0.238166   -6.458389    0.033760
     74          1           0        0.302225   -5.005180    0.850710
     75          1           0        2.279624   -6.103921    0.199330
     76          6           0       -3.469342   -1.198636    0.502750
     77          6           0       -4.310801   -0.615886   -0.649410
     78          6           0       -4.202173   -2.299486    1.264390
     79          1           0       -3.159321   -0.409137    1.188080
     80          6           0       -4.813942   -1.773045   -1.546030
     81          1           0       -3.629310   -0.016716   -1.266070
     82          6           0       -4.666744   -3.437255    0.348940
     83          1           0       -3.552523   -2.694586    2.049720
     84          1           0       -5.056912   -1.842815    1.771840
     85          6           0       -5.523543   -2.944294   -0.831070
     86          1           0       -3.933822   -2.186316   -2.046710
     87          1           0       -5.449282   -1.381954   -2.341280
     88          1           0       -5.221494   -4.173985    0.935390
     89          1           0       -3.784554   -3.951336   -0.040160
     90          1           0       -5.562124   -3.760094   -1.560270
     91          6           0        6.831412    2.313874   -0.647290
     92          1           0        7.619451    1.631214   -0.973260
     93          1           0        7.170233    3.330474   -0.860550
     94          1           0        6.742932    2.224064    0.434940
     95          6           0        5.010689   -0.842254    0.858650
     96          1           0        4.209478   -1.252843    1.487300
     97          6           0        5.740718   -2.044275    0.244810
     98          1           0        6.097617   -2.713295    1.030570
     99          1           0        5.086397   -2.620974   -0.412470
    100          1           0        6.613188   -1.736535   -0.335290
    101          6           0        5.957769   -0.085075    1.795060
    102          1           0        5.477260    0.758186    2.294910
    103          1           0        6.315879   -0.759115    2.576640
    104          1           0        6.835240    0.288364    1.267550
    105          6           0        1.494066   -3.797521   -3.464720
    106          1           0        0.907415   -4.707390   -3.618080
    107          6           0        0.848207   -2.684340   -4.306520
    108          1           0       -0.203573   -2.517629   -4.068390
    109          1           0        1.381368   -1.737651   -4.173050
    110          1           0        0.894647   -2.936220   -5.367460
    111          6           0        2.907806   -4.062212   -3.999640
    112          1           0        3.369625   -4.940072   -3.550840
    113          1           0        2.877186   -4.227482   -5.078220
    114          1           0        3.563237   -3.205213   -3.816720
    115          6           0        1.760623   -6.795171   -1.733580
    116          1           0        2.786043   -6.936452   -2.081760
    117          1           0        1.414423   -7.754071   -1.340870
    118          1           0        1.146874   -6.561760   -2.604630
    119          6           0       -5.390690    0.386495   -0.144830
    120          1           0       -6.053601   -0.123574    0.558570
    121          6           0       -4.766539    1.580945    0.594630
    122          1           0       -5.539928    2.299526    0.871640
    123          1           0       -4.253799    1.296454    1.514820
    124          1           0       -4.047409    2.104424   -0.042510
    125          6           0       -6.257500    0.914276   -1.296230
    126          1           0       -5.640679    1.385536   -2.067640
    127          1           0       -6.847060    0.131787   -1.771040
    128          1           0       -6.955899    1.667987   -0.927940
    129          6           0       -6.978523   -2.671463   -0.425390
    130          1           0       -7.071332   -1.937783    0.376610
    131          1           0       -7.562333   -2.307923   -1.273680
    132          1           0       -7.449844   -3.593013   -0.076130
    133          6           0       -1.315717    4.110412   -3.319890
    134          1           0       -0.691706    4.994341   -3.475820
    135          6           0       -0.760578    2.989911   -4.214740
    136          1           0        0.289692    2.764500   -4.024370
    137          1           0       -1.333679    2.066582   -4.083780
    138          1           0       -0.837407    3.272921   -5.265950
    139          6           0       -2.735446    4.458213   -3.787150
    140          1           0       -3.133656    5.345793   -3.298360
    141          1           0       -2.741566    4.649153   -4.861820
    142          1           0       -3.425337    3.630174   -3.596840
    143          6           0       -1.355524    7.076952   -1.517140
    144          1           0       -2.388084    7.277803   -1.810590
    145          1           0       -0.942373    8.007281   -1.120630
    146          1           0       -0.797394    6.835301   -2.422620
 ---------------------------------------------------------------------

 SCF Done:  E(RB3LYP) =  -3016.37037989     A.U. after   16 cycles

      1  C    Isotropic =   105.8420   Anisotropy =    62.9423

      2  H    Isotropic =    27.8879   Anisotropy =     4.5361

      3  H    Isotropic =    27.9450   Anisotropy =     5.6343

      4  C    Isotropic =    77.8792   Anisotropy =   122.7229

      5  H    Isotropic =    27.0173   Anisotropy =     5.8878

      6  C    Isotropic =    68.8676   Anisotropy =   130.6182

      7  H    Isotropic =    25.7118   Anisotropy =     3.5742

      8  C    Isotropic =   147.7419   Anisotropy =    28.7936

      9  H    Isotropic =    29.1169   Anisotropy =    12.1834

     10  H    Isotropic =    29.1136   Anisotropy =     7.2000

     11  C    Isotropic =   154.1339   Anisotropy =    23.7362

     12  H    Isotropic =    29.9139   Anisotropy =    10.5045

     13  H    Isotropic =    29.7260   Anisotropy =     9.6776

     14  C    Isotropic =    75.2915   Anisotropy =   127.3307

     15  H    Isotropic =    26.9443   Anisotropy =     6.5734

     16  C    Isotropic =    71.5225   Anisotropy =   126.3479

     17  H    Isotropic =    26.0729   Anisotropy =     4.1196

     18  C    Isotropic =   148.2712   Anisotropy =    28.2921

     19  H    Isotropic =    29.1104   Anisotropy =    12.4524

     20  H    Isotropic =    29.1866   Anisotropy =     7.5659

     21  C    Isotropic =   154.4695   Anisotropy =    23.0944

     22  H    Isotropic =    29.7717   Anisotropy =     9.6854

     23  H    Isotropic =    29.9254   Anisotropy =    10.7423

     24  P    Isotropic =   177.2827   Anisotropy =   165.1923

     25  P    Isotropic =   175.9033   Anisotropy =   158.6632

     26  Rh   Isotropic =  -305.5085   Anisotropy =   364.5525

     27  O    Isotropic =   170.6754   Anisotropy =   117.3243

     28  O    Isotropic =   148.2428   Anisotropy =   125.8189

     29  O    Isotropic =   183.7388   Anisotropy =   129.9772

     30  O    Isotropic =   192.4845   Anisotropy =    83.1948

     31  C    Isotropic =    99.4756   Anisotropy =    81.1209

     32  C    Isotropic =   130.0762   Anisotropy =    34.1860

     33  C    Isotropic =   158.1268   Anisotropy =    17.0452

     34  H    Isotropic =    27.2434   Anisotropy =     6.8494

     35  C    Isotropic =   154.0721   Anisotropy =    25.6120

     36  H    Isotropic =    30.8664   Anisotropy =     7.3608

     37  C    Isotropic =   156.2964   Anisotropy =    24.8950

     38  H    Isotropic =    30.5173   Anisotropy =    11.8565

     39  H    Isotropic =    30.1110   Anisotropy =     6.6985

     40  C    Isotropic =   152.2208   Anisotropy =     5.1594

     41  H    Isotropic =    29.9602   Anisotropy =     7.9146

     42  H    Isotropic =    30.1600   Anisotropy =     5.5242

     43  H    Isotropic =    30.5866   Anisotropy =     9.9948

     44  H    Isotropic =    29.9867   Anisotropy =     5.9801

     45  H    Isotropic =    29.9840   Anisotropy =     8.5844

     46  C    Isotropic =    90.3926   Anisotropy =    71.0211

     47  C    Isotropic =   133.9686   Anisotropy =    29.1860

     48  C    Isotropic =   155.1410   Anisotropy =    18.4908

     49  H    Isotropic =    27.4166   Anisotropy =     7.1031

     50  C    Isotropic =   156.7368   Anisotropy =    30.5185

     51  H    Isotropic =    29.9234   Anisotropy =     8.5225

     52  C    Isotropic =   157.0792   Anisotropy =    23.2170

     53  H    Isotropic =    30.4966   Anisotropy =     7.1903

     54  H    Isotropic =    30.0652   Anisotropy =     5.9180

     55  C    Isotropic =   154.4407   Anisotropy =     4.4232

     56  H    Isotropic =    29.9356   Anisotropy =     7.2036

     57  H    Isotropic =    30.3074   Anisotropy =     6.3296

     58  H    Isotropic =    30.6406   Anisotropy =     9.1535

     59  H    Isotropic =    30.0575   Anisotropy =     8.8203

     60  H    Isotropic =    29.9214   Anisotropy =     9.0882

     61  C    Isotropic =    96.6375   Anisotropy =    82.1115

     62  C    Isotropic =   130.3135   Anisotropy =    33.8950

     63  C    Isotropic =   157.0750   Anisotropy =    18.0622

     64  H    Isotropic =    27.3267   Anisotropy =     7.2048

     65  C    Isotropic =   154.0231   Anisotropy =    25.5352

     66  H    Isotropic =    30.6909   Anisotropy =     7.1506

     67  C    Isotropic =   156.0121   Anisotropy =    24.7529

     68  H    Isotropic =    30.1256   Anisotropy =    11.3846

     69  H    Isotropic =    30.0230   Anisotropy =     6.7320

     70  C    Isotropic =   152.0673   Anisotropy =     4.9361

     71  H    Isotropic =    29.9103   Anisotropy =     8.0615

     72  H    Isotropic =    30.1365   Anisotropy =     5.5240

     73  H    Isotropic =    30.5419   Anisotropy =     9.8974

     74  H    Isotropic =    29.8924   Anisotropy =     5.8943

     75  H    Isotropic =    29.9451   Anisotropy =     8.5345

     76  C    Isotropic =   100.6478   Anisotropy =    76.2118

     77  C    Isotropic =   130.0292   Anisotropy =    31.0738

     78  C    Isotropic =   156.8974   Anisotropy =    18.4233

     79  H    Isotropic =    26.9838   Anisotropy =     5.3744

     80  C    Isotropic =   154.4512   Anisotropy =    25.0931

     81  H    Isotropic =    30.8237   Anisotropy =     6.6098

     82  C    Isotropic =   156.0061   Anisotropy =    24.0551

     83  H    Isotropic =    30.6382   Anisotropy =     7.4839

     84  H    Isotropic =    30.0203   Anisotropy =     6.1866

     85  C    Isotropic =   152.4135   Anisotropy =     4.8856

     86  H    Isotropic =    29.9957   Anisotropy =     6.4197

     87  H    Isotropic =    30.1163   Anisotropy =     6.0429

     88  H    Isotropic =    30.5355   Anisotropy =    10.0838

     89  H    Isotropic =    29.8615   Anisotropy =     8.4621

     90  H    Isotropic =    29.9646   Anisotropy =     9.1385

     91  C    Isotropic =   162.2433   Anisotropy =    31.8578

     92  H    Isotropic =    31.0045   Anisotropy =    10.1368

     93  H    Isotropic =    30.8691   Anisotropy =    11.9491

     94  H    Isotropic =    30.6131   Anisotropy =     4.0199

     95  C    Isotropic =   145.3705   Anisotropy =    17.6690

     96  H    Isotropic =    29.9646   Anisotropy =     6.7658

     97  C    Isotropic =   160.5989   Anisotropy =    38.5830

     98  H    Isotropic =    30.7511   Anisotropy =     9.6421

     99  H    Isotropic =    31.0008   Anisotropy =    10.7543

    100  H    Isotropic =    30.7503   Anisotropy =     7.3320

    101  C    Isotropic =   164.5315   Anisotropy =    26.6964

    102  H    Isotropic =    31.0010   Anisotropy =     5.4672

    103  H    Isotropic =    30.8226   Anisotropy =    10.2971

    104  H    Isotropic =    30.8621   Anisotropy =     7.2827

    105  C    Isotropic =   148.9513   Anisotropy =    15.7683

    106  H    Isotropic =    30.1434   Anisotropy =     5.4708

    107  C    Isotropic =   161.0730   Anisotropy =    36.1701

    108  H    Isotropic =    30.6991   Anisotropy =     6.8541

    109  H    Isotropic =    31.5231   Anisotropy =     6.2920

    110  H    Isotropic =    30.8083   Anisotropy =    10.6555

    111  C    Isotropic =   162.0029   Anisotropy =    31.5434

    112  H    Isotropic =    30.3661   Anisotropy =     7.7939

    113  H    Isotropic =    30.8940   Anisotropy =    11.2108

    114  H    Isotropic =    31.3721   Anisotropy =     7.0655

    115  C    Isotropic =   163.2906   Anisotropy =    36.4852

    116  H    Isotropic =    30.7112   Anisotropy =     9.3597

    117  H    Isotropic =    30.8888   Anisotropy =    12.2647

    118  H    Isotropic =    30.6258   Anisotropy =     4.7423

    119  C    Isotropic =   148.9204   Anisotropy =    15.2672

    120  H    Isotropic =    29.9907   Anisotropy =     6.2418

    121  C    Isotropic =   160.7512   Anisotropy =    35.0489

    122  H    Isotropic =    30.6708   Anisotropy =     9.0766

    123  H    Isotropic =    30.4414   Anisotropy =     7.8702

    124  H    Isotropic =    31.3713   Anisotropy =    10.3552

    125  C    Isotropic =   161.6425   Anisotropy =    32.7384

    126  H    Isotropic =    31.3446   Anisotropy =     7.3961

    127  H    Isotropic =    30.3136   Anisotropy =     8.5992

    128  H    Isotropic =    30.8430   Anisotropy =    10.5894

    129  C    Isotropic =   162.9765   Anisotropy =    36.5964

    130  H    Isotropic =    30.6137   Anisotropy =     4.4887

    131  H    Isotropic =    30.6989   Anisotropy =     9.4798

    132  H    Isotropic =    30.8693   Anisotropy =    12.2574

    133  C    Isotropic =   148.7128   Anisotropy =    15.8253

    134  H    Isotropic =    30.1540   Anisotropy =     5.5291

    135  C    Isotropic =   161.4159   Anisotropy =    35.6570

    136  H    Isotropic =    30.6953   Anisotropy =     6.8973

    137  H    Isotropic =    31.6779   Anisotropy =     6.1261

    138  H    Isotropic =    30.8358   Anisotropy =    10.6675

    139  C    Isotropic =   161.8548   Anisotropy =    31.7069

    140  H    Isotropic =    30.3468   Anisotropy =     7.8809

    141  H    Isotropic =    30.8825   Anisotropy =    11.1396

    142  H    Isotropic =    31.4293   Anisotropy =     7.3849

    143  C    Isotropic =   163.2620   Anisotropy =    36.5020

    144  H    Isotropic =    30.7188   Anisotropy =     9.4305

    145  H    Isotropic =    30.9019   Anisotropy =    12.2860

    146  H    Isotropic =    30.6492   Anisotropy =     4.7656

 The electronic state is 1-A.
 Alpha  occ. eigenvalues --  -77.29446 -77.29224 -19.24848 -19.24728 -19.24655
 Alpha  occ. eigenvalues --  -19.24632 -10.32641 -10.32427 -10.32348 -10.32062
 Alpha  occ. eigenvalues --  -10.29462 -10.29454 -10.29303 -10.29131 -10.28929
 Alpha  occ. eigenvalues --  -10.27865 -10.27838 -10.27691 -10.27630 -10.26393
 Alpha  occ. eigenvalues --  -10.26296 -10.25975 -10.25826 -10.25790 -10.25786
 Alpha  occ. eigenvalues --  -10.25687 -10.25685 -10.25507 -10.25482 -10.25226
 Alpha  occ. eigenvalues --  -10.24818 -10.24811 -10.24753 -10.24708 -10.24425
 Alpha  occ. eigenvalues --  -10.24319 -10.24248 -10.24240 -10.24168 -10.24156
 Alpha  occ. eigenvalues --  -10.24108 -10.24065 -10.23862 -10.23776 -10.23769
 Alpha  occ. eigenvalues --  -10.23669 -10.23368 -10.23348 -10.23211 -10.23094
 Alpha  occ. eigenvalues --  -10.22899 -10.22769 -10.22686 -10.22546 -10.22418
 Alpha  occ. eigenvalues --   -6.74444  -6.74268  -4.90866  -4.90738  -4.90693
 Alpha  occ. eigenvalues --   -4.90550  -4.90307  -4.90136  -3.32116  -2.09142
 Alpha  occ. eigenvalues --   -2.08291  -2.05497  -1.15439  -1.15113  -1.11772
 Alpha  occ. eigenvalues --   -1.11670  -0.94800  -0.92979  -0.92800  -0.92238
 Alpha  occ. eigenvalues --   -0.92172  -0.89588  -0.88362  -0.87972  -0.87803
 Alpha  occ. eigenvalues --   -0.87739  -0.87470  -0.86865  -0.84860  -0.84147
 Alpha  occ. eigenvalues --   -0.84015  -0.83411  -0.81753  -0.81609  -0.81409
 Alpha  occ. eigenvalues --   -0.81204  -0.80696  -0.78219  -0.76873  -0.76673
 Alpha  occ. eigenvalues --   -0.76544  -0.76381  -0.75897  -0.75701  -0.75468
 Alpha  occ. eigenvalues --   -0.75371  -0.72880  -0.71719  -0.71289  -0.70942
 Alpha  occ. eigenvalues --   -0.70753  -0.70561  -0.70267  -0.69195  -0.69115
 Alpha  occ. eigenvalues --   -0.66668  -0.66488  -0.66088  -0.65328  -0.65264
 Alpha  occ. eigenvalues --   -0.64802  -0.64501  -0.62912  -0.62456  -0.61754
 Alpha  occ. eigenvalues --   -0.60995  -0.60203  -0.59767  -0.59316  -0.59004
 Alpha  occ. eigenvalues --   -0.58852  -0.58263  -0.57981  -0.57499  -0.57245
 Alpha  occ. eigenvalues --   -0.56883  -0.56477  -0.55542  -0.55154  -0.54857
 Alpha  occ. eigenvalues --   -0.54514  -0.54317  -0.54280  -0.54013  -0.53981
 Alpha  occ. eigenvalues --   -0.53556  -0.53468  -0.53010  -0.52929  -0.52861
 Alpha  occ. eigenvalues --   -0.52478  -0.52332  -0.52025  -0.51871  -0.51494
 Alpha  occ. eigenvalues --   -0.51147  -0.50632  -0.50460  -0.50401  -0.50225
 Alpha  occ. eigenvalues --   -0.50126  -0.49687  -0.49523  -0.49337  -0.49231
 Alpha  occ. eigenvalues --   -0.48987  -0.48791  -0.48408  -0.48142  -0.47944
 Alpha  occ. eigenvalues --   -0.47614  -0.47541  -0.47406  -0.47267  -0.46880
 Alpha  occ. eigenvalues --   -0.46655  -0.46539  -0.46411  -0.46383  -0.46264
 Alpha  occ. eigenvalues --   -0.46171  -0.45986  -0.45914  -0.45858  -0.45620
 Alpha  occ. eigenvalues --   -0.45362  -0.45284  -0.44995  -0.44694  -0.44562
 Alpha  occ. eigenvalues --   -0.44356  -0.44266  -0.44113  -0.44022  -0.43879
 Alpha  occ. eigenvalues --   -0.43660  -0.43514  -0.43450  -0.43162  -0.43022
 Alpha  occ. eigenvalues --   -0.42861  -0.42577  -0.42291  -0.42061  -0.41894
 Alpha  occ. eigenvalues --   -0.41786  -0.41525  -0.41388  -0.41369  -0.41138
 Alpha  occ. eigenvalues --   -0.41087  -0.40838  -0.40662  -0.40380  -0.39959
 Alpha  occ. eigenvalues --   -0.39655  -0.39565  -0.39433  -0.38753  -0.38687
 Alpha  occ. eigenvalues --   -0.38444  -0.38322  -0.37934  -0.37810  -0.37747
 Alpha  occ. eigenvalues --   -0.37702  -0.37599  -0.37360  -0.37094  -0.36985
 Alpha  occ. eigenvalues --   -0.36709  -0.36369  -0.35681  -0.35267  -0.34205
 Alpha  occ. eigenvalues --   -0.31151
 Alpha virt. eigenvalues --   -0.17071  -0.14023  -0.09873  -0.08608  -0.08037
 Alpha virt. eigenvalues --   -0.07488  -0.07186  -0.07058  -0.06695  -0.05744
 Alpha virt. eigenvalues --   -0.05330  -0.04829  -0.04791  -0.04289  -0.03952

 Mulliken charges:
               1
     1  C   -0.541702
     2  H    0.219612
     3  H    0.193589
     4  C   -0.039370
     5  H    0.196899
     6  C   -0.096856
     7  H    0.205736
     8  C   -0.214988
     9  H    0.176060
    10  H    0.133034
    11  C   -0.367865
    12  H    0.170456
    13  H    0.168508
    14  C   -0.029197
    15  H    0.189702
    16  C   -0.087622
    17  H    0.190697
    18  C   -0.212257
    19  H    0.176808
    20  H    0.135150
    21  C   -0.366782
    22  H    0.168501
    23  H    0.170193
    24  P    0.682951
    25  P    0.663731
    26  Rh  -0.579351
    27  O   -0.351715
    28  O   -0.364130
    29  O   -0.337206
    30  O   -0.358350
    31  C   -0.071960
    32  C   -0.109845
    33  C   -0.328792
    34  H    0.212804
    35  C   -0.343724
    36  H    0.127951
    37  C   -0.263146
    38  H    0.161548
    39  H    0.156218
    40  C    0.006270
    41  H    0.143394
    42  H    0.160933
    43  H    0.144196
    44  H    0.128733
    45  H    0.147880
    46  C   -0.089263
    47  C   -0.068873
    48  C   -0.304733
    49  H    0.187101
    50  C   -0.327868
    51  H    0.167361
    52  C   -0.280925
    53  H    0.151942
    54  H    0.152253
    55  C   -0.000421
    56  H    0.141346
    57  H    0.140165
    58  H    0.149293
    59  H    0.141473
    60  H    0.150817
    61  C   -0.051190
    62  C   -0.100920
    63  C   -0.363798
    64  H    0.204515
    65  C   -0.351423
    66  H    0.152406
    67  C   -0.249089
    68  H    0.171667
    69  H    0.148556
    70  C   -0.005657
    71  H    0.150152
    72  H    0.158953
    73  H    0.140697
    74  H    0.126600
    75  H    0.147505
    76  C   -0.131873
    77  C   -0.101534
    78  C   -0.298368
    79  H    0.215898
    80  C   -0.327077
    81  H    0.132538
    82  C   -0.266516
    83  H    0.134547
    84  H    0.153847
    85  C   -0.004028
    86  H    0.142565
    87  H    0.159216
    88  H    0.144733
    89  H    0.132254
    90  H    0.151406
    91  C   -0.424132
    92  H    0.133502
    93  H    0.135026
    94  H    0.121515
    95  C   -0.124163
    96  H    0.128364
    97  C   -0.406205
    98  H    0.134869
    99  H    0.137802
   100  H    0.131526
   101  C   -0.395206
   102  H    0.118622
   103  H    0.134668
   104  H    0.137844
   105  C   -0.068993
   106  H    0.127522
   107  C   -0.401511
   108  H    0.118796
   109  H    0.116438
   110  H    0.144308
   111  C   -0.389406
   112  H    0.138092
   113  H    0.135889
   114  H    0.119276
   115  C   -0.409901
   116  H    0.130533
   117  H    0.133606
   118  H    0.116403
   119  C   -0.073904
   120  H    0.129359
   121  C   -0.409562
   122  H    0.145875
   123  H    0.117515
   124  H    0.128761
   125  C   -0.395552
   126  H    0.122251
   127  H    0.140976
   128  H    0.136102
   129  C   -0.408842
   130  H    0.113390
   131  H    0.132197
   132  H    0.135170
   133  C   -0.077028
   134  H    0.128603
   135  C   -0.380771
   136  H    0.119565
   137  H    0.108612
   138  H    0.143749
   139  C   -0.392807
   140  H    0.139872
   141  H    0.138274
   142  H    0.119777
   143  C   -0.412711
   144  H    0.131743
   145  H    0.134748
   146  H    0.116611
 Sum of Mulliken charges =   1.00000

 Dipole moment (field-independent basis, Debye):
    X=             -0.8622    Y=              0.7190    Z=              3.0818  Tot=              3.2800
 Quadrupole moment (field-independent basis, Debye-Ang):
   XX=           -329.7539   YY=           -336.0332   ZZ=           -333.8113
   XY=              2.1088   XZ=             -0.8862   YZ=             -0.5117

 Summary of Natural Population Analysis:

                                       Natural Population
                Natural  -----------------------------------------------
    Atom  No    Charge         Core      Valence    Rydberg      Total
 -----------------------------------------------------------------------
      C    1   -1.10160      1.99944     5.08585    0.01631     7.10160
      H    2    0.27177      0.00000     0.72611    0.00212     0.72823
      H    3    0.26135      0.00000     0.73669    0.00196     0.73865
      C    4   -0.18480      1.99907     4.16531    0.02042     6.18480
      H    5    0.22542      0.00000     0.77229    0.00229     0.77458
      C    6   -0.14787      1.99908     4.12781    0.02098     6.14787
      H    7    0.23790      0.00000     0.75951    0.00259     0.76210
      C    8   -0.42331      1.99935     4.41139    0.01257     6.42331
      H    9    0.23626      0.00000     0.76193    0.00181     0.76374
      H   10    0.22051      0.00000     0.77778    0.00171     0.77949
      C   11   -0.42610      1.99936     4.41472    0.01202     6.42610
      H   12    0.22867      0.00000     0.76991    0.00142     0.77133
      H   13    0.21570      0.00000     0.78234    0.00195     0.78430
      C   14   -0.17141      1.99907     4.15178    0.02056     6.17141
      H   15    0.22424      0.00000     0.77276    0.00301     0.77576
      C   16   -0.15751      1.99908     4.13780    0.02063     6.15751
      H   17    0.23507      0.00000     0.76282    0.00211     0.76493
      C   18   -0.42330      1.99936     4.41147    0.01248     6.42330
      H   19    0.23698      0.00000     0.76124    0.00178     0.76302
      H   20    0.22198      0.00000     0.77651    0.00152     0.77802
      C   21   -0.42478      1.99936     4.41346    0.01196     6.42478
      H   22    0.21503      0.00000     0.78301    0.00196     0.78497
      H   23    0.22939      0.00000     0.76918    0.00143     0.77061
      P   24    1.72744      9.99586     3.18332    0.09338    13.27256
      P   25    1.74383      9.99592     3.16658    0.09368    13.25617
     Rh   26   -0.54555     35.98538     9.53524    0.02492    45.54555
      O   27   -0.80176      1.99981     6.78814    0.01382     8.80176
      O   28   -0.79898      1.99981     6.78527    0.01390     8.79898
      O   29   -0.79303      1.99981     6.77938    0.01384     8.79303
      O   30   -0.80495      1.99979     6.79105    0.01411     8.80495
      C   31    0.10715      1.99915     3.87306    0.02063     5.89285
      C   32   -0.22123      1.99931     4.20554    0.01638     6.22123
      C   33   -0.41528      1.99935     4.40437    0.01155     6.41528
      H   34    0.18965      0.00000     0.80678    0.00357     0.81035
      C   35   -0.39301      1.99933     4.38212    0.01156     6.39301
      H   36    0.19250      0.00000     0.80429    0.00321     0.80750
      C   37   -0.38863      1.99938     4.37886    0.01040     6.38863
      H   38    0.21256      0.00000     0.78506    0.00238     0.78744
      H   39    0.21216      0.00000     0.78622    0.00161     0.78784
      C   40   -0.20431      1.99940     4.19280    0.01211     6.20431
      H   41    0.20787      0.00000     0.79053    0.00160     0.79213
      H   42    0.21197      0.00000     0.78633    0.00169     0.78803
      H   43    0.21092      0.00000     0.78747    0.00161     0.78908
      H   44    0.20126      0.00000     0.79720    0.00154     0.79874
      H   45    0.20053      0.00000     0.79789    0.00158     0.79947
      C   46    0.11892      1.99916     3.86326    0.01866     5.88108
      C   47   -0.22738      1.99927     4.21125    0.01686     6.22738
      C   48   -0.42456      1.99935     4.41433    0.01088     6.42456
      H   49    0.18772      0.00000     0.80971    0.00257     0.81228
      C   50   -0.39732      1.99933     4.38669    0.01130     6.39732
      H   51    0.21642      0.00000     0.78093    0.00265     0.78358
      C   52   -0.38978      1.99937     4.37956    0.01084     6.38978
      H   53    0.20858      0.00000     0.78974    0.00169     0.79142
      H   54    0.21425      0.00000     0.78398    0.00176     0.78575
      C   55   -0.20263      1.99940     4.19121    0.01202     6.20263
      H   56    0.20644      0.00000     0.79202    0.00154     0.79356
      H   57    0.21200      0.00000     0.78615    0.00185     0.78800
      H   58    0.21101      0.00000     0.78732    0.00167     0.78899
      H   59    0.19879      0.00000     0.79922    0.00199     0.80121
      H   60    0.20159      0.00000     0.79688    0.00154     0.79841
      C   61    0.11168      1.99915     3.86815    0.02102     5.88832
      C   62   -0.22573      1.99931     4.20958    0.01684     6.22573
      C   63   -0.42002      1.99935     4.40896    0.01170     6.42002
      H   64    0.18522      0.00000     0.81094    0.00383     0.81478
      C   65   -0.39100      1.99933     4.38032    0.01135     6.39100
      H   66    0.20204      0.00000     0.79483    0.00312     0.79796
      C   67   -0.38840      1.99938     4.37872    0.01030     6.38840
      H   68    0.21874      0.00000     0.77905    0.00221     0.78126
      H   69    0.21030      0.00000     0.78808    0.00162     0.78970
      C   70   -0.20434      1.99940     4.19288    0.01206     6.20434
      H   71    0.20693      0.00000     0.79125    0.00182     0.79307
      H   72    0.21107      0.00000     0.78709    0.00183     0.78893
      H   73    0.20990      0.00000     0.78849    0.00161     0.79010
      H   74    0.20131      0.00000     0.79717    0.00152     0.79869
      H   75    0.20011      0.00000     0.79835    0.00154     0.79989
      C   76    0.11111      1.99916     3.87100    0.01873     5.88889
      C   77   -0.22007      1.99931     4.20479    0.01598     6.22007
      C   78   -0.41474      1.99935     4.40413    0.01126     6.41474
      H   79    0.19233      0.00000     0.80516    0.00252     0.80767
      C   80   -0.39164      1.99933     4.38111    0.01120     6.39164
      H   81    0.19387      0.00000     0.80309    0.00304     0.80613
      C   82   -0.38835      1.99937     4.37845    0.01053     6.38835
      H   83    0.20687      0.00000     0.79161    0.00152     0.79313
      H   84    0.21021      0.00000     0.78818    0.00161     0.78979
      C   85   -0.20481      1.99940     4.19327    0.01214     6.20481
      H   86    0.20898      0.00000     0.78953    0.00149     0.79102
      H   87    0.21213      0.00000     0.78619    0.00168     0.78787
      H   88    0.21119      0.00000     0.78720    0.00162     0.78881
      H   89    0.20299      0.00000     0.79481    0.00219     0.79701
      H   90    0.20270      0.00000     0.79571    0.00159     0.79730
      C   91   -0.59728      1.99943     4.59120    0.00666     6.59728
      H   92    0.20720      0.00000     0.79136    0.00144     0.79280
      H   93    0.20879      0.00000     0.78984    0.00137     0.79121
      H   94    0.19356      0.00000     0.80465    0.00179     0.80644
      C   95   -0.18923      1.99940     4.17775    0.01209     6.18923
      H   96    0.18427      0.00000     0.81335    0.00238     0.81573
      C   97   -0.59097      1.99943     4.58465    0.00689     6.59097
      H   98    0.21034      0.00000     0.78835    0.00131     0.78966
      H   99    0.20280      0.00000     0.79554    0.00166     0.79720
      H  100    0.20046      0.00000     0.79780    0.00174     0.79954
      C  101   -0.60084      1.99941     4.59466    0.00677     6.60084
      H  102    0.19240      0.00000     0.80608    0.00152     0.80760
      H  103    0.21115      0.00000     0.78751    0.00133     0.78885
      H  104    0.20700      0.00000     0.79123    0.00177     0.79300
      C  105   -0.20438      1.99940     4.19345    0.01153     6.20438
      H  106    0.19329      0.00000     0.80457    0.00213     0.80671
      C  107   -0.59203      1.99943     4.58602    0.00657     6.59203
      H  108    0.19394      0.00000     0.80478    0.00128     0.80606
      H  109    0.19386      0.00000     0.80438    0.00176     0.80614
      H  110    0.21597      0.00000     0.78272    0.00131     0.78403
      C  111   -0.59109      1.99942     4.58481    0.00685     6.59109
      H  112    0.20818      0.00000     0.79030    0.00152     0.79182
      H  113    0.21175      0.00000     0.78694    0.00130     0.78825
      H  114    0.19680      0.00000     0.80158    0.00162     0.80320
      C  115   -0.59582      1.99943     4.58973    0.00666     6.59582
      H  116    0.20616      0.00000     0.79243    0.00141     0.79384
      H  117    0.20901      0.00000     0.78961    0.00138     0.79099
      H  118    0.19148      0.00000     0.80674    0.00177     0.80852
      C  119   -0.20603      1.99940     4.19515    0.01149     6.20603
      H  120    0.19410      0.00000     0.80377    0.00213     0.80590
      C  121   -0.59039      1.99942     4.58400    0.00697     6.59039
      H  122    0.21502      0.00000     0.78361    0.00136     0.78498
      H  123    0.19184      0.00000     0.80658    0.00158     0.80816
      H  124    0.19544      0.00000     0.80270    0.00185     0.80456
      C  125   -0.59024      1.99942     4.58396    0.00686     6.59024
      H  126    0.19611      0.00000     0.80213    0.00176     0.80389
      H  127    0.20913      0.00000     0.78934    0.00152     0.79087
      H  128    0.21148      0.00000     0.78720    0.00132     0.78852
      C  129   -0.59536      1.99943     4.58930    0.00664     6.59536
      H  130    0.18994      0.00000     0.80829    0.00177     0.81006
      H  131    0.20705      0.00000     0.79154    0.00141     0.79295
      H  132    0.20994      0.00000     0.78870    0.00136     0.79006
      C  133   -0.20549      1.99940     4.19454    0.01155     6.20549
      H  134    0.19428      0.00000     0.80360    0.00212     0.80572
      C  135   -0.59133      1.99943     4.58540    0.00651     6.59133
      H  136    0.19611      0.00000     0.80263    0.00126     0.80389
      H  137    0.19258      0.00000     0.80573    0.00169     0.80742
      H  138    0.21630      0.00000     0.78240    0.00130     0.78370
      C  139   -0.59084      1.99942     4.58453    0.00688     6.59084
      H  140    0.20846      0.00000     0.79002    0.00152     0.79154
      H  141    0.21271      0.00000     0.78599    0.00130     0.78729
      H  142    0.19511      0.00000     0.80311    0.00178     0.80489
      C  143   -0.59581      1.99943     4.58969    0.00669     6.59581
      H  144    0.20644      0.00000     0.79215    0.00141     0.79356
      H  145    0.20965      0.00000     0.78899    0.00136     0.79035
      H  146    0.19168      0.00000     0.80655    0.00177     0.80832
 =======================================================================
   * Total *    1.00000    161.94387   327.02321    1.03292   490.00000

 Normal termination of Gaussian 16 at Tue Nov  5 15:08:54 2024.
