 Gaussian 16, Revision B.01,
 Gaussian 16:  ES64L-G16RevB.01 20-Dec-2017

 ------------------------------------------
 # nmr=giao b3lyp/genecp pop=nbo scfcyc=200
 ------------------------------------------

 -------------
 Ligand 28 SPE
 -------------
 Symbolic Z-matrix:
 Charge =  1 Multiplicity = 1

                         Standard orientation:
 ---------------------------------------------------------------------
 Center     Atomic      Atomic             Coordinates (Angstroms)
 Number     Number       Type             X           Y           Z
 ---------------------------------------------------------------------
      1          6           0        0.206720   -0.251660    1.819150
      2          1           0        1.170880   -0.297950    2.325640
      3          1           0       -0.434060    0.459090    2.341360
      4          6           0       -2.533820   -3.262889   -1.319090
      5          1           0       -2.162461   -4.015169   -0.632750
      6          6           0       -3.428050   -2.352359   -0.815590
      7          1           0       -3.720450   -2.468419    0.222700
      8          6           0       -4.273580   -1.379559   -1.597990
      9          1           0       -5.201640   -1.873019   -1.912810
     10          1           0       -4.578570   -0.582969   -0.915960
     11          6           0       -3.572780   -0.754009   -2.822720
     12          1           0       -4.096670    0.167281   -3.082540
     13          1           0       -3.669820   -1.405499   -3.690790
     14          6           0       -2.109280   -0.425859   -2.588820
     15          1           0       -1.884780    0.628631   -2.482710
     16          6           0       -1.040760   -1.259670   -2.858500
     17          1           0       -0.063480   -0.797550   -2.956400
     18          6           0       -1.103090   -2.679770   -3.361960
     19          1           0       -1.159350   -2.676330   -4.457830
     20          1           0       -0.153040   -3.159060   -3.115940
     21          6           0       -2.261410   -3.524359   -2.786620
     22          1           0       -3.171700   -3.365379   -3.363510
     23          1           0       -2.010111   -4.579299   -2.908130
     24         15           0       -0.691110   -1.890000    1.588590
     25         15           0        0.219410    0.172680    0.006470
     26         45           0       -1.365170   -1.360929   -0.650250
     27          8           0        1.710990   -0.127400   -0.545040
     28          8           0        0.117041    1.798230   -0.101370
     29          6           0        2.921580    0.627570   -0.131910
     30          6           0        3.948410   -0.387971    0.400630
     31          6           0        3.420471    1.403599   -1.345780
     32          1           0        2.619601    1.322310    0.649600
     33          6           0        4.446080   -1.274601   -0.766730
     34          1           0        3.407230   -1.052501    1.085930
     35          6           0        3.871000    0.483149   -2.484130
     36          1           0        2.632701    2.078120   -1.685740
     37          1           0        4.248321    2.038279   -1.016460
     38          6           0        4.929380   -0.541351   -2.037240
     39          1           0        3.601740   -1.904671   -1.061730
     40          1           0        5.217900   -1.959341   -0.413490
     41          1           0        4.255861    1.085559   -3.310880
     42          1           0        2.997200   -0.050580   -2.867870
     43          1           0        4.988700   -1.304521   -2.820330
     44          6           0       -1.134129    2.560270   -0.270360
     45          6           0       -1.353699    3.427221    0.984690
     46          6           0       -0.997939    3.390360   -1.543270
     47          1           0       -1.938879    1.832921   -0.379020
     48          6           0       -0.251259    4.511570    1.053430
     49          1           0       -1.200329    2.771560    1.851240
     50          6           0        0.120041    4.433550   -1.444130
     51          1           0       -0.817849    2.726730   -2.393150
     52          1           0       -1.959839    3.876261   -1.730630
     53          6           0       -0.030548    5.356320   -0.220990
     54          1           0        0.687511    3.990560    1.261720
     55          1           0       -0.422019    5.164970    1.909470
     56          1           0        0.149031    5.026280   -2.361830
     57          1           0        1.077801    3.911150   -1.380930
     58          1           0        0.930712    5.861750   -0.082210
     59          6           0        5.039940    0.295819    1.277810
     60          1           0        5.510061    1.099099    0.704030
     61          6           0        4.437321    0.925589    2.544600
     62          1           0        3.713931    1.714689    2.333980
     63          1           0        3.942190    0.165719    3.158040
     64          1           0        5.222851    1.372579    3.156260
     65          6           0        6.144610   -0.684951    1.692850
     66          1           0        6.722200   -1.050421    0.845600
     67          1           0        6.843040   -0.197731    2.375680
     68          1           0        5.725710   -1.551101    2.214490
     69          6           0        6.332390    0.071929   -1.935430
     70          1           0        7.066180   -0.674001   -1.622900
     71          1           0        6.648370    0.451539   -2.909830
     72          1           0        6.387561    0.903179   -1.231180
     73          6           0       -2.824449    3.926251    1.105910
     74          1           0       -3.088759    4.485651    0.204800
     75          6           0       -3.818029    2.759911    1.231380
     76          1           0       -4.833379    3.140491    1.355460
     77          1           0       -3.828019    2.105651    0.358120
     78          1           0       -3.590139    2.147221    2.108960
     79          6           0       -3.012879    4.865131    2.305250
     80          1           0       -2.697909    4.382251    3.235430
     81          1           0       -2.453668    5.793601    2.203870
     82          1           0       -4.065909    5.131341    2.413690
     83          6           0       -1.063628    6.468210   -0.449200
     84          1           0       -2.058398    6.089161   -0.687770
     85          1           0       -1.156778    7.105770    0.432460
     86          1           0       -0.752408    7.105010   -1.280450
     87          6           0       -1.820230   -2.105519    3.079890
     88          1           0       -1.164710   -2.030460    3.952150
     89          6           0        0.716120   -3.140220    1.724960
     90          1           0        1.492590   -2.654660    1.126200
     91          6           0        1.242530   -3.306310    3.154910
     92          1           0        2.163950   -3.892650    3.136270
     93          1           0        1.475370   -2.352380    3.632010
     94          1           0        0.533630   -3.838380    3.791070
     95          6           0        0.406959   -4.486020    1.060240
     96          1           0        1.297029   -5.118290    1.091130
     97          1           0       -0.392451   -5.028400    1.566860
     98          1           0        0.127579   -4.359150    0.014360
     99          6           0       -2.859980   -0.982459    3.152040
    100          1           0       -2.407010    0.005631    3.235830
    101          1           0       -3.512870   -0.981169    2.277210
    102          1           0       -3.486980   -1.125029    4.034760
    103          6           0       -2.494090   -3.483329    3.085740
    104          1           0       -1.777201   -4.301069    3.145690
    105          1           0       -3.150790   -3.562199    3.954730
    106          1           0       -3.110660   -3.637229    2.197530
 ---------------------------------------------------------------------

 SCF Done:  E(RB3LYP) =  -2317.70856594     A.U. after   16 cycles

      1  C    Isotropic =   127.0580   Anisotropy =    58.8668

      2  H    Isotropic =    28.7218   Anisotropy =     7.6116

      3  H    Isotropic =    28.7593   Anisotropy =     4.3391

      4  C    Isotropic =    73.7494   Anisotropy =   131.3330

      5  H    Isotropic =    26.7186   Anisotropy =     5.8955

      6  C    Isotropic =    70.3852   Anisotropy =   126.9969

      7  H    Isotropic =    25.7726   Anisotropy =     3.7955

      8  C    Isotropic =   147.8151   Anisotropy =    28.7186

      9  H    Isotropic =    29.1165   Anisotropy =    12.5864

     10  H    Isotropic =    29.1316   Anisotropy =     7.1176

     11  C    Isotropic =   154.3985   Anisotropy =    23.2320

     12  H    Isotropic =    29.9126   Anisotropy =    10.4073

     13  H    Isotropic =    29.7760   Anisotropy =     9.6203

     14  C    Isotropic =    84.1936   Anisotropy =   113.9290

     15  H    Isotropic =    27.3104   Anisotropy =     6.9442

     16  C    Isotropic =    76.6161   Anisotropy =   118.3069

     17  H    Isotropic =    26.2717   Anisotropy =     4.2772

     18  C    Isotropic =   147.4363   Anisotropy =    30.1813

     19  H    Isotropic =    29.0514   Anisotropy =    12.3549

     20  H    Isotropic =    29.0831   Anisotropy =     7.3178

     21  C    Isotropic =   154.6631   Anisotropy =    24.1827

     22  H    Isotropic =    29.7814   Anisotropy =     9.6257

     23  H    Isotropic =    29.8847   Anisotropy =    11.5914

     24  P    Isotropic =   299.8161   Anisotropy =    94.1575

     25  P    Isotropic =   171.5311   Anisotropy =   181.7005

     26  Rh   Isotropic =  -310.5917   Anisotropy =   367.2231

     27  O    Isotropic =   184.2380   Anisotropy =   122.0965

     28  O    Isotropic =   191.5198   Anisotropy =    87.2938

     29  C    Isotropic =    98.0782   Anisotropy =    81.9117

     30  C    Isotropic =   129.1581   Anisotropy =    34.4468

     31  C    Isotropic =   156.9177   Anisotropy =    17.9442

     32  H    Isotropic =    27.1486   Anisotropy =     7.8634

     33  C    Isotropic =   154.5610   Anisotropy =    25.1687

     34  H    Isotropic =    30.8638   Anisotropy =     7.7300

     35  C    Isotropic =   155.8912   Anisotropy =    24.7647

     36  H    Isotropic =    30.2360   Anisotropy =    10.5413

     37  H    Isotropic =    29.9892   Anisotropy =     6.6975

     38  C    Isotropic =   152.0395   Anisotropy =     4.8463

     39  H    Isotropic =    29.8871   Anisotropy =     7.0416

     40  H    Isotropic =    30.0979   Anisotropy =     6.0540

     41  H    Isotropic =    30.5021   Anisotropy =     9.6270

     42  H    Isotropic =    29.8287   Anisotropy =     6.7484

     43  H    Isotropic =    29.9132   Anisotropy =     8.9054

     44  C    Isotropic =    99.2846   Anisotropy =    78.4718

     45  C    Isotropic =   130.0392   Anisotropy =    31.0341

     46  C    Isotropic =   156.8696   Anisotropy =    18.2827

     47  H    Isotropic =    27.0742   Anisotropy =     5.9767

     48  C    Isotropic =   154.2958   Anisotropy =    24.1907

     49  H    Isotropic =    30.8372   Anisotropy =     5.9182

     50  C    Isotropic =   156.0044   Anisotropy =    24.4388

     51  H    Isotropic =    30.6563   Anisotropy =     7.3683

     52  H    Isotropic =    30.0488   Anisotropy =     6.1960

     53  C    Isotropic =   152.2610   Anisotropy =     4.6584

     54  H    Isotropic =    29.9713   Anisotropy =     6.7707

     55  H    Isotropic =    30.1018   Anisotropy =     6.4995

     56  H    Isotropic =    30.5505   Anisotropy =     9.7108

     57  H    Isotropic =    29.8731   Anisotropy =     8.7139

     58  H    Isotropic =    29.9588   Anisotropy =     9.0713

     59  C    Isotropic =   148.5606   Anisotropy =    16.5753

     60  H    Isotropic =    30.0954   Anisotropy =     4.8566

     61  C    Isotropic =   160.7215   Anisotropy =    36.3370

     62  H    Isotropic =    30.5992   Anisotropy =     7.0370

     63  H    Isotropic =    31.5925   Anisotropy =     5.7533

     64  H    Isotropic =    30.7285   Anisotropy =    10.9074

     65  C    Isotropic =   161.9737   Anisotropy =    31.6874

     66  H    Isotropic =    30.3213   Anisotropy =     8.1068

     67  H    Isotropic =    30.8312   Anisotropy =    11.2432

     68  H    Isotropic =    31.3958   Anisotropy =     7.4444

     69  C    Isotropic =   163.2443   Anisotropy =    36.1482

     70  H    Isotropic =    30.6744   Anisotropy =     9.5747

     71  H    Isotropic =    30.8558   Anisotropy =    11.8784

     72  H    Isotropic =    30.6019   Anisotropy =     4.5506

     73  C    Isotropic =   148.9237   Anisotropy =    15.6507

     74  H    Isotropic =    30.0421   Anisotropy =     5.2478

     75  C    Isotropic =   160.6867   Anisotropy =    35.7802

     76  H    Isotropic =    30.6523   Anisotropy =     9.9222

     77  H    Isotropic =    30.4508   Anisotropy =     8.4182

     78  H    Isotropic =    31.4482   Anisotropy =     7.8351

     79  C    Isotropic =   161.7403   Anisotropy =    33.1216

     80  H    Isotropic =    31.3465   Anisotropy =     7.7012

     81  H    Isotropic =    30.3070   Anisotropy =     8.4453

     82  H    Isotropic =    30.8421   Anisotropy =    10.9683

     83  C    Isotropic =   163.0761   Anisotropy =    36.3165

     84  H    Isotropic =    30.6352   Anisotropy =     4.4046

     85  H    Isotropic =    30.6947   Anisotropy =     9.5639

     86  H    Isotropic =    30.8845   Anisotropy =    11.9023

     87  C    Isotropic =   149.5162   Anisotropy =    21.1020

     88  H    Isotropic =    29.7541   Anisotropy =     5.7050

     89  C    Isotropic =   143.8167   Anisotropy =    27.6555

     90  H    Isotropic =    29.5291   Anisotropy =     8.8548

     91  C    Isotropic =   168.9266   Anisotropy =    25.5753

     92  H    Isotropic =    30.5318   Anisotropy =    11.0658

     93  H    Isotropic =    30.7053   Anisotropy =     6.9958

     94  H    Isotropic =    30.8783   Anisotropy =     8.4206

     95  C    Isotropic =   161.9422   Anisotropy =    29.9280

     96  H    Isotropic =    30.3853   Anisotropy =    10.7624

     97  H    Isotropic =    30.6945   Anisotropy =     7.0079

     98  H    Isotropic =    30.0346   Anisotropy =     6.9459

     99  C    Isotropic =   163.7790   Anisotropy =    31.0399

    100  H    Isotropic =    30.6864   Anisotropy =     9.0167

    101  H    Isotropic =    30.8651   Anisotropy =     5.4867

    102  H    Isotropic =    30.5576   Anisotropy =    11.2919

    103  C    Isotropic =   165.0041   Anisotropy =    30.1955

    104  H    Isotropic =    30.6678   Anisotropy =     8.0085

    105  H    Isotropic =    30.6010   Anisotropy =    12.3609

    106  H    Isotropic =    31.3046   Anisotropy =     5.0557

 The electronic state is 1-A.
 Alpha  occ. eigenvalues --  -77.29624 -77.23056 -19.24933 -19.24917 -10.32907
 Alpha  occ. eigenvalues --  -10.32401 -10.30425 -10.30215 -10.29796 -10.29694
 Alpha  occ. eigenvalues --  -10.29488 -10.29463 -10.29133 -10.28054 -10.27869
 Alpha  occ. eigenvalues --  -10.27773 -10.27712 -10.27284 -10.27246 -10.27067
 Alpha  occ. eigenvalues --  -10.26788 -10.26625 -10.26388 -10.26204 -10.25925
 Alpha  occ. eigenvalues --  -10.25856 -10.25208 -10.24992 -10.24796 -10.24528
 Alpha  occ. eigenvalues --  -10.24434 -10.24369 -10.24246 -10.24122 -10.24101
 Alpha  occ. eigenvalues --  -10.23507 -10.23294 -10.22921 -10.22732  -6.74644
 Alpha  occ. eigenvalues --   -6.69100  -4.91072  -4.90931  -4.90505  -4.85396
 Alpha  occ. eigenvalues --   -4.85274  -4.85009  -3.32056  -2.09016  -2.08253
 Alpha  occ. eigenvalues --   -2.05471  -1.15679  -1.11945  -0.94939  -0.93256
 Alpha  occ. eigenvalues --   -0.92608  -0.92445  -0.89733  -0.89677  -0.88483
 Alpha  occ. eigenvalues --   -0.88169  -0.87872  -0.86537  -0.84428  -0.84179
 Alpha  occ. eigenvalues --   -0.81965  -0.81623  -0.80827  -0.79821  -0.79595
 Alpha  occ. eigenvalues --   -0.78329  -0.77045  -0.76738  -0.76193  -0.75771
 Alpha  occ. eigenvalues --   -0.74637  -0.72290  -0.71078  -0.70988  -0.70634
 Alpha  occ. eigenvalues --   -0.70034  -0.69431  -0.66759  -0.66304  -0.65579
 Alpha  occ. eigenvalues --   -0.65188  -0.64688  -0.63032  -0.62495  -0.60785
 Alpha  occ. eigenvalues --   -0.60393  -0.59441  -0.59106  -0.58242  -0.58091
 Alpha  occ. eigenvalues --   -0.57584  -0.57287  -0.56945  -0.56635  -0.55894
 Alpha  occ. eigenvalues --   -0.55186  -0.54421  -0.54329  -0.54101  -0.54063
 Alpha  occ. eigenvalues --   -0.53395  -0.53212  -0.53071  -0.53016  -0.52760
 Alpha  occ. eigenvalues --   -0.52425  -0.51886  -0.51390  -0.51218  -0.50592
 Alpha  occ. eigenvalues --   -0.50496  -0.50102  -0.49891  -0.49712  -0.49349
 Alpha  occ. eigenvalues --   -0.49265  -0.48828  -0.48319  -0.48227  -0.47960
 Alpha  occ. eigenvalues --   -0.47644  -0.47330  -0.46872  -0.46669  -0.46613
 Alpha  occ. eigenvalues --   -0.46517  -0.46438  -0.46276  -0.46231  -0.45999
 Alpha  occ. eigenvalues --   -0.45878  -0.45703  -0.45492  -0.45041  -0.44680
 Alpha  occ. eigenvalues --   -0.44316  -0.44270  -0.43950  -0.43719  -0.43528
 Alpha  occ. eigenvalues --   -0.43416  -0.42736  -0.42502  -0.42228  -0.41937
 Alpha  occ. eigenvalues --   -0.41725  -0.41518  -0.41348  -0.41113  -0.41001
 Alpha  occ. eigenvalues --   -0.39835  -0.39685  -0.38878  -0.38830  -0.38058
 Alpha  occ. eigenvalues --   -0.37947  -0.37775  -0.37303  -0.37247  -0.36477
 Alpha  occ. eigenvalues --   -0.35405  -0.35154  -0.34182  -0.31199
 Alpha virt. eigenvalues --   -0.17019  -0.14333  -0.09926  -0.08928  -0.07974
 Alpha virt. eigenvalues --   -0.07886  -0.07500  -0.07146  -0.06705  -0.05878
 Alpha virt. eigenvalues --   -0.05307  -0.04989  -0.04684  -0.04401  -0.04021

 Mulliken charges:
               1
     1  C   -0.583164
     2  H    0.206651
     3  H    0.196746
     4  C   -0.039233
     5  H    0.183867
     6  C   -0.089780
     7  H    0.165035
     8  C   -0.213349
     9  H    0.175406
    10  H    0.130917
    11  C   -0.372096
    12  H    0.169880
    13  H    0.170130
    14  C   -0.037423
    15  H    0.202134
    16  C   -0.100960
    17  H    0.203984
    18  C   -0.229730
    19  H    0.175262
    20  H    0.134773
    21  C   -0.348688
    22  H    0.168081
    23  H    0.170599
    24  P    0.372328
    25  P    0.696141
    26  Rh  -0.490836
    27  O   -0.347721
    28  O   -0.356477
    29  C   -0.049453
    30  C   -0.111059
    31  C   -0.338171
    32  H    0.213120
    33  C   -0.328062
    34  H    0.132805
    35  C   -0.258445
    36  H    0.150355
    37  H    0.150717
    38  C   -0.003923
    39  H    0.139921
    40  H    0.158997
    41  H    0.142765
    42  H    0.126923
    43  H    0.148838
    44  C   -0.132001
    45  C   -0.092566
    46  C   -0.300024
    47  H    0.203184
    48  C   -0.328164
    49  H    0.129515
    50  C   -0.264758
    51  H    0.134271
    52  H    0.156322
    53  C   -0.007969
    54  H    0.142713
    55  H    0.160431
    56  H    0.144307
    57  H    0.139406
    58  H    0.151770
    59  C   -0.070752
    60  H    0.129184
    61  C   -0.398917
    62  H    0.121252
    63  H    0.110358
    64  H    0.146630
    65  C   -0.386184
    66  H    0.140294
    67  H    0.137533
    68  H    0.115269
    69  C   -0.411369
    70  H    0.132089
    71  H    0.134685
    72  H    0.116899
    73  C   -0.074187
    74  H    0.126366
    75  C   -0.401097
    76  H    0.147765
    77  H    0.113724
    78  H    0.115163
    79  C   -0.383381
    80  H    0.117114
    81  H    0.140594
    82  H    0.136321
    83  C   -0.410936
    84  H    0.114848
    85  H    0.133421
    86  H    0.135697
    87  C   -0.166436
    88  H    0.182909
    89  C   -0.172523
    90  H    0.154104
    91  C   -0.376651
    92  H    0.155561
    93  H    0.136256
    94  H    0.142046
    95  C   -0.409296
    96  H    0.155187
    97  H    0.139145
    98  H    0.141186
    99  C   -0.387170
   100  H    0.124867
   101  H    0.128543
   102  H    0.162605
   103  C   -0.400118
   104  H    0.142539
   105  H    0.157897
   106  H    0.136729
 Sum of Mulliken charges =   1.00000

 Dipole moment (field-independent basis, Debye):
    X=             -2.9905    Y=             -3.5274    Z=              1.3113  Tot=              4.8067
 Quadrupole moment (field-independent basis, Debye-Ang):
   XX=           -236.9460   YY=           -237.5919   ZZ=           -249.9506
   XY=              5.1538   XZ=              4.0017   YZ=             -3.4464

 Summary of Natural Population Analysis:

                                       Natural Population
                Natural  -----------------------------------------------
    Atom  No    Charge         Core      Valence    Rydberg      Total
 -----------------------------------------------------------------------
      C    1   -1.05470      1.99943     5.03800    0.01727     7.05470
      H    2    0.25631      0.00000     0.74130    0.00239     0.74369
      H    3    0.25938      0.00000     0.73873    0.00188     0.74062
      C    4   -0.17710      1.99909     4.15800    0.02001     6.17710
      H    5    0.22898      0.00000     0.76937    0.00165     0.77102
      C    6   -0.15841      1.99909     4.13817    0.02115     6.15841
      H    7    0.22266      0.00000     0.77493    0.00242     0.77734
      C    8   -0.42124      1.99935     4.40888    0.01301     6.42124
      H    9    0.23599      0.00000     0.76216    0.00186     0.76401
      H   10    0.21630      0.00000     0.78175    0.00195     0.78370
      C   11   -0.42313      1.99936     4.41176    0.01202     6.42313
      H   12    0.22804      0.00000     0.77053    0.00144     0.77196
      H   13    0.21563      0.00000     0.78244    0.00193     0.78437
      C   14   -0.18634      1.99907     4.16703    0.02024     6.18634
      H   15    0.22256      0.00000     0.77463    0.00282     0.77744
      C   16   -0.15324      1.99908     4.13427    0.01989     6.15324
      H   17    0.23263      0.00000     0.76488    0.00248     0.76737
      C   18   -0.41899      1.99935     4.40696    0.01268     6.41899
      H   19    0.23583      0.00000     0.76237    0.00179     0.76417
      H   20    0.21917      0.00000     0.77916    0.00167     0.78083
      C   21   -0.42634      1.99936     4.41489    0.01209     6.42634
      H   22    0.21608      0.00000     0.78201    0.00190     0.78392
      H   23    0.23002      0.00000     0.76857    0.00141     0.76998
      P   24    1.06670      9.99690     3.89029    0.04610    13.93330
      P   25    1.75700      9.99589     3.15359    0.09352    13.24300
     Rh   26   -0.45484     35.98564     9.44341    0.02579    45.45484
      O   27   -0.79950      1.99981     6.78546    0.01423     8.79950
      O   28   -0.80766      1.99979     6.79370    0.01417     8.80766
      C   29    0.10859      1.99915     3.87062    0.02163     5.89141
      C   30   -0.22098      1.99931     4.20513    0.01653     6.22098
      C   31   -0.41796      1.99935     4.40677    0.01184     6.41796
      H   32    0.18849      0.00000     0.80726    0.00424     0.81151
      C   33   -0.39185      1.99933     4.38115    0.01137     6.39185
      H   34    0.19254      0.00000     0.80422    0.00324     0.80746
      C   35   -0.38839      1.99938     4.37868    0.01034     6.38839
      H   36    0.21711      0.00000     0.78084    0.00205     0.78289
      H   37    0.21090      0.00000     0.78748    0.00162     0.78910
      C   38   -0.20425      1.99940     4.19274    0.01211     6.20425
      H   39    0.20719      0.00000     0.79125    0.00156     0.79281
      H   40    0.21180      0.00000     0.78655    0.00164     0.78820
      H   41    0.21075      0.00000     0.78765    0.00160     0.78925
      H   42    0.20126      0.00000     0.79721    0.00153     0.79874
      H   43    0.20084      0.00000     0.79759    0.00158     0.79916
      C   44    0.11394      1.99916     3.86820    0.01870     5.88606
      C   45   -0.21997      1.99931     4.20459    0.01607     6.21997
      C   46   -0.41604      1.99935     4.40539    0.01130     6.41604
      H   47    0.19217      0.00000     0.80526    0.00256     0.80783
      C   48   -0.39132      1.99933     4.38080    0.01119     6.39132
      H   49    0.19302      0.00000     0.80358    0.00340     0.80698
      C   50   -0.38877      1.99937     4.37880    0.01060     6.38877
      H   51    0.20828      0.00000     0.79017    0.00156     0.79172
      H   52    0.21085      0.00000     0.78755    0.00160     0.78915
      C   53   -0.20472      1.99940     4.19319    0.01212     6.20472
      H   54    0.20831      0.00000     0.79020    0.00148     0.79169
      H   55    0.21292      0.00000     0.78540    0.00168     0.78708
      H   56    0.21149      0.00000     0.78689    0.00162     0.78851
      H   57    0.20297      0.00000     0.79491    0.00211     0.79703
      H   58    0.20274      0.00000     0.79568    0.00158     0.79726
      C   59   -0.20538      1.99940     4.19439    0.01158     6.20538
      H   60    0.19462      0.00000     0.80325    0.00213     0.80538
      C   61   -0.59121      1.99943     4.58523    0.00655     6.59121
      H   62    0.19529      0.00000     0.80342    0.00129     0.80471
      H   63    0.19066      0.00000     0.80756    0.00178     0.80934
      H   64    0.21732      0.00000     0.78138    0.00129     0.78268
      C   65   -0.59114      1.99942     4.58485    0.00687     6.59114
      H   66    0.20920      0.00000     0.78929    0.00151     0.79080
      H   67    0.21284      0.00000     0.78586    0.00130     0.78716
      H   68    0.19551      0.00000     0.80291    0.00158     0.80449
      C   69   -0.59605      1.99943     4.58994    0.00669     6.59605
      H   70    0.20654      0.00000     0.79205    0.00141     0.79346
      H   71    0.20978      0.00000     0.78885    0.00136     0.79022
      H   72    0.19160      0.00000     0.80663    0.00176     0.80840
      C   73   -0.20575      1.99940     4.19487    0.01148     6.20575
      H   74    0.19413      0.00000     0.80373    0.00214     0.80587
      C   75   -0.58891      1.99942     4.58287    0.00662     6.58891
      H   76    0.21583      0.00000     0.78284    0.00133     0.78417
      H   77    0.19216      0.00000     0.80646    0.00138     0.80784
      H   78    0.19263      0.00000     0.80552    0.00185     0.80737
      C   79   -0.59085      1.99942     4.58457    0.00685     6.59085
      H   80    0.19698      0.00000     0.80145    0.00157     0.80302
      H   81    0.20972      0.00000     0.78877    0.00151     0.79028
      H   82    0.21205      0.00000     0.78664    0.00131     0.78795
      C   83   -0.59567      1.99943     4.58959    0.00665     6.59567
      H   84    0.19019      0.00000     0.80805    0.00176     0.80981
      H   85    0.20734      0.00000     0.79126    0.00141     0.79266
      H   86    0.21016      0.00000     0.78848    0.00136     0.78984
      C   87   -0.46802      1.99941     4.45386    0.01475     6.46802
      H   88    0.22461      0.00000     0.77297    0.00242     0.77539
      C   89   -0.45997      1.99941     4.44465    0.01591     6.45997
      H   90    0.22909      0.00000     0.76863    0.00228     0.77091
      C   91   -0.60355      1.99941     4.59583    0.00830     6.60355
      H   92    0.22597      0.00000     0.77251    0.00152     0.77403
      H   93    0.20659      0.00000     0.79161    0.00181     0.79341
      H   94    0.20716      0.00000     0.79125    0.00158     0.79284
      C   95   -0.59324      1.99941     4.58661    0.00723     6.59324
      H   96    0.22205      0.00000     0.77644    0.00151     0.77795
      H   97    0.20336      0.00000     0.79498    0.00167     0.79664
      H   98    0.21442      0.00000     0.78423    0.00135     0.78558
      C   99   -0.59309      1.99941     4.58605    0.00763     6.59309
      H  100    0.20482      0.00000     0.79351    0.00167     0.79518
      H  101    0.20882      0.00000     0.78964    0.00155     0.79118
      H  102    0.22539      0.00000     0.77311    0.00150     0.77461
      C  103   -0.59718      1.99941     4.59030    0.00746     6.59718
      H  104    0.20978      0.00000     0.78846    0.00175     0.79022
      H  105    0.22583      0.00000     0.77267    0.00150     0.77417
      H  106    0.20384      0.00000     0.79469    0.00147     0.79616
 =======================================================================
   * Total *    1.00000    129.95488   235.29573    0.74939   366.00000

 Normal termination of Gaussian 16 at Tue Nov  5 13:59:49 2024.
