 Gaussian 16, Revision B.01,
 Gaussian 16:  ES64L-G16RevB.01 20-Dec-2017

 ------------------------------------------
 # nmr=giao b3lyp/genecp pop=nbo scfcyc=200
 ------------------------------------------

 -------------
 Ligand 29 SPE
 -------------
 Symbolic Z-matrix:
 Charge =  1 Multiplicity = 1

                         Standard orientation:
 ---------------------------------------------------------------------
 Center     Atomic      Atomic             Coordinates (Angstroms)
 Number     Number       Type             X           Y           Z
 ---------------------------------------------------------------------
      1          6           0       -0.182111    0.038960   -1.358790
      2          1           0        0.028360    0.866750   -2.036290
      3          1           0       -0.020292   -0.900680   -1.888800
      4          6           0       -2.895222   -0.962166    2.885860
      5          1           0       -3.608701   -0.307276    2.398620
      6          6           0       -2.630254   -2.159167    2.268460
      7          1           0       -3.174364   -2.378006    1.355710
      8          6           0       -1.891635   -3.337328    2.852110
      9          1           0       -2.592216   -3.964617    3.417620
     10          1           0       -1.544846   -3.955348    2.021120
     11          6           0       -0.686654   -2.966229    3.742350
     12          1           0       -0.023255   -3.830900    3.798620
     13          1           0       -1.013134   -2.775459    4.764300
     14          6           0        0.110237   -1.780760    3.228890
     15          1           0        1.070807   -2.025521    2.792390
     16          6           0       -0.089192   -0.459850    3.580200
     17          1           0        0.732229    0.228579    3.407620
     18          6           0       -1.177031    0.087262    4.469870
     19          1           0       -0.853981    0.036871    5.517320
     20          1           0       -1.284200    1.150532    4.244000
     21          6           0       -2.550532   -0.603567    4.317480
     22          1           0       -2.600023   -1.494437    4.942550
     23          1           0       -3.318181    0.072254    4.698100
     24         15           0       -1.884511    0.008962   -0.555540
     25         15           0        0.751979   -0.013211    0.250390
     26         45           0       -1.004842   -0.710409    1.556200
     27          8           0        1.285371    1.483749    0.550590
     28          8           0        2.151058   -0.821862   -0.010490
     29          6           0        2.295192    2.191588   -0.275500
     30          6           0        1.721873    3.579368   -0.611980
     31          6           0        3.594512    2.256806    0.519990
     32          1           0        2.444921    1.603277   -1.179170
     33          6           0        1.633224    4.422548    0.683330
     34          1           0        0.690473    3.417829   -0.949700
     35          6           0        3.449993    3.075386    1.806510
     36          1           0        3.925890    1.241796    0.744590
     37          1           0        4.358592    2.695225   -0.128760
     38          6           0        2.908084    4.493877    1.552630
     39          1           0        0.850354    3.968339    1.297600
     40          1           0        1.282465    5.428919    0.451860
     41          1           0        4.414863    3.127345    2.317340
     42          1           0        2.768952    2.548237    2.480160
     43          1           0        2.589115    4.894057    2.520780
     44          6           0        2.250336   -2.289942   -0.073140
     45          6           0        2.552426   -2.710573   -1.526360
     46          6           0        3.343046   -2.716454    0.903700
     47          1           0        1.289666   -2.692811    0.251320
     48          6           0        3.978786   -2.246054   -1.909540
     49          1           0        1.866097   -2.146572   -2.169590
     50          6           0        4.728276   -2.204485    0.497910
     51          1           0        3.091296   -2.361483    1.906000
     52          1           0        3.338885   -3.809054    0.954170
     53          6           0        5.116076   -2.616176   -0.933050
     54          1           0        3.945958   -1.154104   -1.965480
     55          1           0        4.223766   -2.585715   -2.916360
     56          1           0        5.474306   -2.566076    1.210030
     57          1           0        4.731908   -1.113915    0.570560
     58          1           0        5.973627   -2.000147   -1.222710
     59          6           0        2.449444    4.233257   -1.824540
     60          1           0        3.520904    4.286666   -1.614330
     61          6           0        2.272403    3.406058   -3.108690
     62          1           0        2.709752    2.408597   -3.043990
     63          1           0        1.211823    3.296709   -3.357680
     64          1           0        2.752394    3.906827   -3.951250
     65          6           0        1.957206    5.662908   -2.086480
     66          1           0        2.192356    6.344498   -1.270770
     67          1           0        2.424396    6.062757   -2.988340
     68          1           0        0.873916    5.683219   -2.241110
     69          6           0        3.990605    5.450326    1.034380
     70          1           0        3.583317    6.448476    0.859810
     71          1           0        4.790075    5.548785    1.772350
     72          1           0        4.449785    5.114745    0.103490
     73          6           0        2.209384   -4.208442   -1.783070
     74          1           0        2.729703   -4.827243   -1.046690
     75          6           0        0.702944   -4.477941   -1.631040
     76          1           0        0.483663   -5.528900   -1.827630
     77          1           0        0.322054   -4.254230   -0.633210
     78          1           0        0.130084   -3.886100   -2.352420
     79          6           0        2.652484   -4.673913   -3.176370
     80          1           0        2.217104   -4.043742   -3.957970
     81          1           0        3.733904   -4.660634   -3.299060
     82          1           0        2.317992   -5.697452   -3.355700
     83          6           0        5.592124   -4.072666   -1.016060
     84          1           0        4.840453   -4.790325   -0.683810
     85          1           0        5.871194   -4.337387   -2.038050
     86          1           0        6.475774   -4.215757   -0.389910
     87          6           0       -2.431329    1.809243   -0.599390
     88          6           0       -2.749368    2.374933   -1.994000
     89          6           0       -3.559439    2.129424    0.398410
     90          1           0       -1.526478    2.308012   -0.230180
     91          6           0       -3.006656    3.887714   -1.923050
     92          1           0       -3.642819    1.886314   -2.391930
     93          1           0       -1.937298    2.169032   -2.695940
     94          6           0       -3.828837    3.640295    0.454770
     95          1           0       -4.477579    1.612065    0.104200
     96          1           0       -3.290779    1.765574    1.392000
     97          6           0       -4.123516    4.221895   -0.930550
     98          1           0       -3.256906    4.260454   -2.919240
     99          1           0       -2.084926    4.397713   -1.621630
    100          1           0       -4.661347    3.836186    1.134870
    101          1           0       -2.953716    4.143254    0.881320
    102          1           0       -4.256315    5.304035   -0.863470
    103          1           0       -5.071347    3.815956   -1.302010
    104          6           0       -2.959952   -1.119626   -1.611480
    105          6           0       -4.441012   -1.086625   -1.189750
    106          6           0       -2.821422   -0.971256   -3.137340
    107          1           0       -2.561233   -2.105367   -1.339900
    108          6           0       -5.239424   -2.178974   -1.915960
    109          1           0       -4.868801   -0.110684   -1.437010
    110          1           0       -4.542682   -1.207274   -0.108060
    111          6           0       -3.619603   -2.069036   -3.857950
    112          1           0       -3.193131    0.005694   -3.453010
    113          1           0       -1.773052   -1.021898   -3.439960
    114          6           0       -5.091973   -2.069744   -3.436300
    115          1           0       -6.291633   -2.112352   -1.629450
    116          1           0       -4.887855   -3.162514   -1.584350
    117          1           0       -3.533283   -1.929956   -4.938200
    118          1           0       -3.174825   -3.045106   -3.633470
    119          1           0       -5.622554   -2.890113   -3.924680
    120          1           0       -5.567942   -1.144663   -3.780700
 ---------------------------------------------------------------------

 SCF Done:  E(RB3LYP) =  -2551.25260767     A.U. after   16 cycles

      1  C    Isotropic =   129.7854   Anisotropy =    57.1512

      2  H    Isotropic =    28.7611   Anisotropy =     6.2257

      3  H    Isotropic =    28.8661   Anisotropy =     6.2765

      4  C    Isotropic =    74.8604   Anisotropy =   128.8436

      5  H    Isotropic =    26.8157   Anisotropy =     5.4142

      6  C    Isotropic =    69.4306   Anisotropy =   127.4820

      7  H    Isotropic =    25.9940   Anisotropy =     3.9153

      8  C    Isotropic =   147.6639   Anisotropy =    29.1091

      9  H    Isotropic =    29.1309   Anisotropy =    12.4815

     10  H    Isotropic =    29.1836   Anisotropy =     6.9764

     11  C    Isotropic =   154.2398   Anisotropy =    23.5159

     12  H    Isotropic =    29.9314   Anisotropy =    10.5745

     13  H    Isotropic =    29.7961   Anisotropy =     9.6938

     14  C    Isotropic =    83.5245   Anisotropy =   115.5957

     15  H    Isotropic =    27.3186   Anisotropy =     7.2999

     16  C    Isotropic =    77.8015   Anisotropy =   117.0077

     17  H    Isotropic =    26.3909   Anisotropy =     4.4872

     18  C    Isotropic =   147.7535   Anisotropy =    29.9172

     19  H    Isotropic =    29.0841   Anisotropy =    12.5152

     20  H    Isotropic =    29.1617   Anisotropy =     7.2690

     21  C    Isotropic =   154.6340   Anisotropy =    24.0261

     22  H    Isotropic =    29.8312   Anisotropy =     9.7025

     23  H    Isotropic =    29.9308   Anisotropy =    11.3627

     24  P    Isotropic =   305.0175   Anisotropy =    79.0080

     25  P    Isotropic =   170.6907   Anisotropy =   180.7853

     26  Rh   Isotropic =  -308.7186   Anisotropy =   347.2416

     27  O    Isotropic =   188.9912   Anisotropy =   120.0084

     28  O    Isotropic =   201.1591   Anisotropy =    80.4105

     29  C    Isotropic =    97.6210   Anisotropy =    81.1735

     30  C    Isotropic =   129.6298   Anisotropy =    33.5754

     31  C    Isotropic =   157.0851   Anisotropy =    18.2154

     32  H    Isotropic =    27.2335   Anisotropy =     7.6818

     33  C    Isotropic =   154.5189   Anisotropy =    25.7776

     34  H    Isotropic =    30.8068   Anisotropy =     7.9027

     35  C    Isotropic =   155.9683   Anisotropy =    24.7301

     36  H    Isotropic =    30.1469   Anisotropy =    10.6138

     37  H    Isotropic =    30.0033   Anisotropy =     6.7050

     38  C    Isotropic =   152.0444   Anisotropy =     4.6564

     39  H    Isotropic =    29.8292   Anisotropy =     6.9365

     40  H    Isotropic =    30.0835   Anisotropy =     5.8082

     41  H    Isotropic =    30.5033   Anisotropy =     9.7646

     42  H    Isotropic =    29.8228   Anisotropy =     6.5046

     43  H    Isotropic =    29.9119   Anisotropy =     8.8975

     44  C    Isotropic =   102.5366   Anisotropy =    74.7270

     45  C    Isotropic =   130.5480   Anisotropy =    31.5427

     46  C    Isotropic =   156.7665   Anisotropy =    19.1973

     47  H    Isotropic =    27.1666   Anisotropy =     5.5789

     48  C    Isotropic =   154.2729   Anisotropy =    23.9058

     49  H    Isotropic =    30.8425   Anisotropy =     6.7921

     50  C    Isotropic =   155.8122   Anisotropy =    23.7448

     51  H    Isotropic =    30.5917   Anisotropy =     8.0467

     52  H    Isotropic =    30.0235   Anisotropy =     6.2360

     53  C    Isotropic =   152.3076   Anisotropy =     4.8438

     54  H    Isotropic =    29.9926   Anisotropy =     7.1689

     55  H    Isotropic =    30.1140   Anisotropy =     6.1847

     56  H    Isotropic =    30.5825   Anisotropy =    10.0109

     57  H    Isotropic =    29.8706   Anisotropy =     7.8429

     58  H    Isotropic =    29.9835   Anisotropy =     9.1592

     59  C    Isotropic =   148.8550   Anisotropy =    16.3016

     60  H    Isotropic =    30.0721   Anisotropy =     5.2543

     61  C    Isotropic =   160.9320   Anisotropy =    35.8728

     62  H    Isotropic =    30.6283   Anisotropy =     6.9994

     63  H    Isotropic =    31.6041   Anisotropy =     5.9030

     64  H    Isotropic =    30.7531   Anisotropy =    10.8545

     65  C    Isotropic =   161.8338   Anisotropy =    31.8692

     66  H    Isotropic =    30.3119   Anisotropy =     8.0766

     67  H    Isotropic =    30.8489   Anisotropy =    11.2583

     68  H    Isotropic =    31.3812   Anisotropy =     7.2139

     69  C    Isotropic =   163.1203   Anisotropy =    36.5185

     70  H    Isotropic =    30.6842   Anisotropy =     9.5122

     71  H    Isotropic =    30.8541   Anisotropy =    12.0436

     72  H    Isotropic =    30.5851   Anisotropy =     4.6209

     73  C    Isotropic =   148.4797   Anisotropy =    15.7326

     74  H    Isotropic =    30.0953   Anisotropy =     5.0669

     75  C    Isotropic =   160.4751   Anisotropy =    37.0015

     76  H    Isotropic =    30.6403   Anisotropy =     9.8321

     77  H    Isotropic =    30.3732   Anisotropy =     8.1020

     78  H    Isotropic =    31.4997   Anisotropy =     7.8342

     79  C    Isotropic =   162.0289   Anisotropy =    31.6619

     80  H    Isotropic =    31.3618   Anisotropy =     7.4559

     81  H    Isotropic =    30.3230   Anisotropy =     8.5588

     82  H    Isotropic =    30.8408   Anisotropy =    10.9192

     83  C    Isotropic =   163.4049   Anisotropy =    35.7693

     84  H    Isotropic =    30.6852   Anisotropy =     4.3374

     85  H    Isotropic =    30.7034   Anisotropy =     9.5863

     86  H    Isotropic =    30.9042   Anisotropy =    12.0227

     87  C    Isotropic =   132.6167   Anisotropy =    33.4738

     88  C    Isotropic =   152.4854   Anisotropy =    15.6727

     89  C    Isotropic =   148.8595   Anisotropy =    15.9345

     90  H    Isotropic =    29.7962   Anisotropy =     6.2726

     91  C    Isotropic =   153.2885   Anisotropy =     6.9740

     92  H    Isotropic =    30.4373   Anisotropy =     7.8502

     93  H    Isotropic =    30.1205   Anisotropy =     3.3652

     94  C    Isotropic =   153.2246   Anisotropy =     7.8447

     95  H    Isotropic =    30.3462   Anisotropy =     5.3284

     96  H    Isotropic =    29.7483   Anisotropy =     8.9760

     97  C    Isotropic =   155.6714   Anisotropy =     2.5769

     98  H    Isotropic =    29.9760   Anisotropy =    10.1688

     99  H    Isotropic =    30.6656   Anisotropy =     8.4279

    100  H    Isotropic =    29.9837   Anisotropy =    10.4036

    101  H    Isotropic =    30.4840   Anisotropy =     6.6405

    102  H    Isotropic =    30.0925   Anisotropy =    11.4389

    103  H    Isotropic =    30.5372   Anisotropy =     9.3314

    104  C    Isotropic =   132.9063   Anisotropy =    32.2396

    105  C    Isotropic =   151.4333   Anisotropy =    11.8967

    106  C    Isotropic =   152.6567   Anisotropy =    13.9022

    107  H    Isotropic =    30.1068   Anisotropy =     5.1664

    108  C    Isotropic =   153.4915   Anisotropy =     8.0107

    109  H    Isotropic =    30.3840   Anisotropy =     6.5736

    110  H    Isotropic =    30.4859   Anisotropy =     6.4324

    111  C    Isotropic =   153.3249   Anisotropy =     8.6514

    112  H    Isotropic =    30.4819   Anisotropy =     6.7318

    113  H    Isotropic =    30.3290   Anisotropy =     6.1663

    114  C    Isotropic =   155.8151   Anisotropy =     2.0029

    115  H    Isotropic =    30.0249   Anisotropy =    10.5941

    116  H    Isotropic =    30.6551   Anisotropy =     7.3731

    117  H    Isotropic =    30.0412   Anisotropy =    10.3374

    118  H    Isotropic =    30.7225   Anisotropy =     7.7354

    119  H    Isotropic =    30.1155   Anisotropy =    11.8441

    120  H    Isotropic =    30.5723   Anisotropy =     8.9892

 The electronic state is 1-A.
 Alpha  occ. eigenvalues --  -77.29254 -77.22645 -19.24666 -19.24646 -10.32724
 Alpha  occ. eigenvalues --  -10.32156 -10.29521 -10.29453 -10.29401 -10.29249
 Alpha  occ. eigenvalues --  -10.29039 -10.29020 -10.28767 -10.27748 -10.27517
 Alpha  occ. eigenvalues --  -10.27432 -10.27391 -10.27221 -10.26864 -10.26844
 Alpha  occ. eigenvalues --  -10.26663 -10.26541 -10.26205 -10.26111 -10.25727
 Alpha  occ. eigenvalues --  -10.25677 -10.25613 -10.25505 -10.25423 -10.25319
 Alpha  occ. eigenvalues --  -10.24963 -10.24917 -10.24861 -10.24815 -10.24605
 Alpha  occ. eigenvalues --  -10.24573 -10.24290 -10.24256 -10.23993 -10.23944
 Alpha  occ. eigenvalues --  -10.23876 -10.23479 -10.23152 -10.22840 -10.22546
 Alpha  occ. eigenvalues --   -6.74273  -6.68665  -4.90705  -4.90565  -4.90122
 Alpha  occ. eigenvalues --   -4.84967  -4.84844  -4.84571  -3.31624  -2.08566
 Alpha  occ. eigenvalues --   -2.07811  -2.05063  -1.15428  -1.11672  -0.94583
 Alpha  occ. eigenvalues --   -0.93994  -0.93016  -0.92904  -0.92384  -0.89310
 Alpha  occ. eigenvalues --   -0.88176  -0.88130  -0.87785  -0.87556  -0.85097
 Alpha  occ. eigenvalues --   -0.84201  -0.84114  -0.83851  -0.83707  -0.83140
 Alpha  occ. eigenvalues --   -0.81839  -0.81401  -0.80458  -0.77971  -0.76973
 Alpha  occ. eigenvalues --   -0.76573  -0.76056  -0.75578  -0.74030  -0.72217
 Alpha  occ. eigenvalues --   -0.70976  -0.70906  -0.70663  -0.70618  -0.70404
 Alpha  occ. eigenvalues --   -0.70387  -0.69149  -0.66599  -0.66044  -0.65926
 Alpha  occ. eigenvalues --   -0.65510  -0.65080  -0.64904  -0.64700  -0.62675
 Alpha  occ. eigenvalues --   -0.62231  -0.60594  -0.60134  -0.59286  -0.58839
 Alpha  occ. eigenvalues --   -0.58297  -0.57987  -0.57509  -0.57235  -0.56347
 Alpha  occ. eigenvalues --   -0.56274  -0.55200  -0.54673  -0.54322  -0.54113
 Alpha  occ. eigenvalues --   -0.54070  -0.53841  -0.53768  -0.53575  -0.53494
 Alpha  occ. eigenvalues --   -0.53020  -0.52898  -0.52775  -0.52663  -0.52377
 Alpha  occ. eigenvalues --   -0.52218  -0.52164  -0.51218  -0.50555  -0.50365
 Alpha  occ. eigenvalues --   -0.50054  -0.49638  -0.49288  -0.49023  -0.48505
 Alpha  occ. eigenvalues --   -0.48230  -0.48140  -0.47912  -0.47767  -0.47640
 Alpha  occ. eigenvalues --   -0.47545  -0.47389  -0.47228  -0.46744  -0.46615
 Alpha  occ. eigenvalues --   -0.46505  -0.46343  -0.46147  -0.46141  -0.46047
 Alpha  occ. eigenvalues --   -0.45631  -0.45276  -0.45199  -0.44684  -0.44572
 Alpha  occ. eigenvalues --   -0.44400  -0.44081  -0.44012  -0.43813  -0.43611
 Alpha  occ. eigenvalues --   -0.43387  -0.43313  -0.43168  -0.42612  -0.42392
 Alpha  occ. eigenvalues --   -0.42162  -0.42070  -0.41763  -0.41612  -0.41363
 Alpha  occ. eigenvalues --   -0.41305  -0.40943  -0.40776  -0.40094  -0.40007
 Alpha  occ. eigenvalues --   -0.39764  -0.39658  -0.39317  -0.38881  -0.38691
 Alpha  occ. eigenvalues --   -0.38575  -0.37895  -0.37798  -0.37531  -0.37125
 Alpha  occ. eigenvalues --   -0.36515  -0.36080  -0.34839  -0.34667  -0.33784
 Alpha  occ. eigenvalues --   -0.30735
 Alpha virt. eigenvalues --   -0.16586  -0.13767  -0.09586  -0.08552  -0.08182
 Alpha virt. eigenvalues --   -0.07591  -0.07314  -0.06891  -0.06625  -0.05834
 Alpha virt. eigenvalues --   -0.05469  -0.04927  -0.04640  -0.04260  -0.04133

 Mulliken charges:
               1
     1  C   -0.573866
     2  H    0.214645
     3  H    0.195285
     4  C   -0.033704
     5  H    0.185778
     6  C   -0.100367
     7  H    0.179572
     8  C   -0.212715
     9  H    0.173820
    10  H    0.127976
    11  C   -0.364045
    12  H    0.167812
    13  H    0.170080
    14  C   -0.040281
    15  H    0.187527
    16  C   -0.088084
    17  H    0.201383
    18  C   -0.221588
    19  H    0.173220
    20  H    0.133131
    21  C   -0.354927
    22  H    0.167454
    23  H    0.168824
    24  P    0.395093
    25  P    0.690768
    26  Rh  -0.520091
    27  O   -0.345552
    28  O   -0.352805
    29  C   -0.044493
    30  C   -0.112012
    31  C   -0.360909
    32  H    0.207809
    33  C   -0.329682
    34  H    0.138043
    35  C   -0.252765
    36  H    0.167498
    37  H    0.149078
    38  C   -0.003189
    39  H    0.141600
    40  H    0.157209
    41  H    0.141686
    42  H    0.127981
    43  H    0.148170
    44  C   -0.136344
    45  C   -0.090903
    46  C   -0.298619
    47  H    0.203533
    48  C   -0.337556
    49  H    0.134526
    50  C   -0.269225
    51  H    0.136989
    52  H    0.152866
    53  C    0.002920
    54  H    0.144428
    55  H    0.160531
    56  H    0.145185
    57  H    0.136288
    58  H    0.151942
    59  C   -0.068520
    60  H    0.128759
    61  C   -0.401668
    62  H    0.121910
    63  H    0.111795
    64  H    0.145723
    65  C   -0.391075
    66  H    0.140123
    67  H    0.137566
    68  H    0.117627
    69  C   -0.410056
    70  H    0.130932
    71  H    0.134181
    72  H    0.116015
    73  C   -0.062864
    74  H    0.127068
    75  C   -0.410514
    76  H    0.147959
    77  H    0.115230
    78  H    0.113488
    79  C   -0.386552
    80  H    0.118108
    81  H    0.142884
    82  H    0.135728
    83  C   -0.415156
    84  H    0.115381
    85  H    0.133718
    86  H    0.135395
    87  C   -0.159387
    88  C   -0.244142
    89  C   -0.274812
    90  H    0.149918
    91  C   -0.260108
    92  H    0.124165
    93  H    0.140477
    94  C   -0.245699
    95  H    0.139678
    96  H    0.127327
    97  C   -0.234011
    98  H    0.148216
    99  H    0.125401
   100  H    0.145098
   101  H    0.122903
   102  H    0.147711
   103  H    0.117102
   104  C   -0.199254
   105  C   -0.300525
   106  C   -0.236291
   107  H    0.158650
   108  C   -0.247662
   109  H    0.139500
   110  H    0.147774
   111  C   -0.242056
   112  H    0.146945
   113  H    0.132123
   114  C   -0.231610
   115  H    0.147906
   116  H    0.119356
   117  H    0.147248
   118  H    0.120802
   119  H    0.149889
   120  H    0.117251
 Sum of Mulliken charges =   1.00000

 Dipole moment (field-independent basis, Debye):
    X=             -3.3387    Y=             -1.7018    Z=              0.6051  Tot=              3.7959
 Quadrupole moment (field-independent basis, Debye-Ang):
   XX=           -268.5275   YY=           -274.8850   ZZ=           -281.8086
   XY=              0.2623   XZ=             -1.2193   YZ=             -5.2536

 Summary of Natural Population Analysis:

                                       Natural Population
                Natural  -----------------------------------------------
    Atom  No    Charge         Core      Valence    Rydberg      Total
 -----------------------------------------------------------------------
      C    1   -1.06041      1.99943     5.04369    0.01729     7.06041
      H    2    0.25714      0.00000     0.74060    0.00226     0.74286
      H    3    0.25890      0.00000     0.73911    0.00200     0.74110
      C    4   -0.18299      1.99908     4.16372    0.02019     6.18299
      H    5    0.22857      0.00000     0.76963    0.00180     0.77143
      C    6   -0.15461      1.99908     4.13430    0.02123     6.15461
      H    7    0.22311      0.00000     0.77452    0.00238     0.77689
      C    8   -0.42055      1.99935     4.40828    0.01292     6.42055
      H    9    0.23463      0.00000     0.76350    0.00187     0.76537
      H   10    0.21492      0.00000     0.78322    0.00186     0.78508
      C   11   -0.42324      1.99936     4.41190    0.01197     6.42324
      H   12    0.22732      0.00000     0.77125    0.00143     0.77268
      H   13    0.21483      0.00000     0.78323    0.00195     0.78517
      C   14   -0.18107      1.99906     4.16189    0.02012     6.18107
      H   15    0.22198      0.00000     0.77496    0.00306     0.77802
      C   16   -0.15661      1.99907     4.13768    0.01986     6.15661
      H   17    0.23224      0.00000     0.76541    0.00235     0.76776
      C   18   -0.42052      1.99935     4.40884    0.01233     6.42052
      H   19    0.23488      0.00000     0.76334    0.00178     0.76512
      H   20    0.22151      0.00000     0.77697    0.00153     0.77849
      C   21   -0.42532      1.99936     4.41399    0.01197     6.42532
      H   22    0.21500      0.00000     0.78308    0.00192     0.78500
      H   23    0.22916      0.00000     0.76943    0.00141     0.77084
      P   24    1.09906      9.99683     3.85596    0.04815    13.90094
      P   25    1.76337      9.99584     3.14708    0.09371    13.23663
     Rh   26   -0.45686     35.98558     9.44527    0.02601    45.45686
      O   27   -0.79880      1.99981     6.78495    0.01405     8.79880
      O   28   -0.80537      1.99979     6.79139    0.01418     8.80537
      C   29    0.10985      1.99915     3.86935    0.02164     5.89015
      C   30   -0.22168      1.99931     4.20573    0.01664     6.22168
      C   31   -0.41973      1.99935     4.40860    0.01177     6.41973
      H   32    0.18628      0.00000     0.80955    0.00417     0.81372
      C   33   -0.39191      1.99933     4.38108    0.01150     6.39191
      H   34    0.19504      0.00000     0.80201    0.00295     0.80496
      C   35   -0.38842      1.99938     4.37873    0.01032     6.38842
      H   36    0.21949      0.00000     0.77839    0.00212     0.78051
      H   37    0.20996      0.00000     0.78842    0.00162     0.79004
      C   38   -0.20417      1.99940     4.19265    0.01211     6.20417
      H   39    0.20840      0.00000     0.79001    0.00159     0.79160
      H   40    0.21092      0.00000     0.78744    0.00164     0.78908
      H   41    0.21025      0.00000     0.78815    0.00160     0.78975
      H   42    0.20169      0.00000     0.79678    0.00153     0.79831
      H   43    0.20056      0.00000     0.79786    0.00158     0.79944
      C   44    0.11000      1.99916     3.87201    0.01882     5.89000
      C   45   -0.22069      1.99931     4.20533    0.01606     6.22069
      C   46   -0.41258      1.99935     4.40184    0.01140     6.41258
      H   47    0.19024      0.00000     0.80739    0.00237     0.80976
      C   48   -0.39128      1.99933     4.38075    0.01120     6.39128
      H   49    0.19359      0.00000     0.80323    0.00318     0.80641
      C   50   -0.38891      1.99937     4.37902    0.01051     6.38891
      H   51    0.20795      0.00000     0.79051    0.00154     0.79205
      H   52    0.20988      0.00000     0.78852    0.00161     0.79012
      C   53   -0.20488      1.99940     4.19338    0.01210     6.20488
      H   54    0.20809      0.00000     0.79043    0.00147     0.79191
      H   55    0.21287      0.00000     0.78546    0.00167     0.78713
      H   56    0.21125      0.00000     0.78714    0.00161     0.78875
      H   57    0.20357      0.00000     0.79428    0.00215     0.79643
      H   58    0.20280      0.00000     0.79561    0.00159     0.79720
      C   59   -0.20526      1.99940     4.19428    0.01158     6.20526
      H   60    0.19462      0.00000     0.80324    0.00213     0.80538
      C   61   -0.59139      1.99943     4.58542    0.00654     6.59139
      H   62    0.19516      0.00000     0.80356    0.00128     0.80484
      H   63    0.19120      0.00000     0.80714    0.00166     0.80880
      H   64    0.21672      0.00000     0.78197    0.00130     0.78328
      C   65   -0.59065      1.99942     4.58438    0.00684     6.59065
      H   66    0.20890      0.00000     0.78958    0.00152     0.79110
      H   67    0.21231      0.00000     0.78640    0.00130     0.78769
      H   68    0.19550      0.00000     0.80297    0.00154     0.80450
      C   69   -0.59581      1.99943     4.58970    0.00668     6.59581
      H   70    0.20611      0.00000     0.79247    0.00141     0.79389
      H   71    0.20947      0.00000     0.78917    0.00137     0.79053
      H   72    0.19132      0.00000     0.80691    0.00177     0.80868
      C   73   -0.20566      1.99940     4.19472    0.01154     6.20566
      H   74    0.19378      0.00000     0.80407    0.00214     0.80622
      C   75   -0.58976      1.99943     4.58376    0.00658     6.58976
      H   76    0.21604      0.00000     0.78264    0.00132     0.78396
      H   77    0.19275      0.00000     0.80583    0.00143     0.80725
      H   78    0.19089      0.00000     0.80733    0.00178     0.80911
      C   79   -0.59164      1.99942     4.58531    0.00690     6.59164
      H   80    0.19712      0.00000     0.80131    0.00157     0.80288
      H   81    0.21052      0.00000     0.78797    0.00150     0.78948
      H   82    0.21180      0.00000     0.78688    0.00132     0.78820
      C   83   -0.59612      1.99943     4.59003    0.00666     6.59612
      H   84    0.19030      0.00000     0.80794    0.00176     0.80970
      H   85    0.20713      0.00000     0.79147    0.00140     0.79287
      H   86    0.21022      0.00000     0.78841    0.00137     0.78978
      C   87   -0.47336      1.99935     4.45516    0.01885     6.47336
      C   88   -0.39496      1.99938     4.38399    0.01160     6.39496
      C   89   -0.38939      1.99937     4.37943    0.01058     6.38939
      H   90    0.22840      0.00000     0.76798    0.00361     0.77160
      C   91   -0.38139      1.99941     4.37182    0.01015     6.38139
      H   92    0.19438      0.00000     0.80317    0.00245     0.80562
      H   93    0.20210      0.00000     0.79539    0.00251     0.79790
      C   94   -0.38379      1.99942     4.37456    0.00981     6.38379
      H   95    0.19428      0.00000     0.80336    0.00235     0.80572
      H   96    0.20960      0.00000     0.78859    0.00181     0.79040
      C   97   -0.38948      1.99942     4.38052    0.00954     6.38948
      H   98    0.21511      0.00000     0.78347    0.00141     0.78489
      H   99    0.18945      0.00000     0.80793    0.00262     0.81055
      H  100    0.21402      0.00000     0.78460    0.00138     0.78598
      H  101    0.19383      0.00000     0.80436    0.00182     0.80617
      H  102    0.21562      0.00000     0.78303    0.00136     0.78438
      H  103    0.19319      0.00000     0.80505    0.00176     0.80681
      C  104   -0.47104      1.99935     4.45475    0.01694     6.47104
      C  105   -0.39276      1.99937     4.38275    0.01065     6.39276
      C  106   -0.39273      1.99937     4.38291    0.01045     6.39273
      H  107    0.22040      0.00000     0.77659    0.00301     0.77960
      C  108   -0.38310      1.99942     4.37399    0.00970     6.38310
      H  109    0.19638      0.00000     0.80115    0.00246     0.80362
      H  110    0.20579      0.00000     0.79241    0.00180     0.79421
      C  111   -0.38253      1.99942     4.37342    0.00970     6.38253
      H  112    0.19957      0.00000     0.79808    0.00234     0.80043
      H  113    0.20171      0.00000     0.79621    0.00208     0.79829
      C  114   -0.38982      1.99942     4.38085    0.00954     6.38982
      H  115    0.21570      0.00000     0.78292    0.00139     0.78430
      H  116    0.19212      0.00000     0.80599    0.00189     0.80788
      H  117    0.21599      0.00000     0.78262    0.00139     0.78401
      H  118    0.19217      0.00000     0.80590    0.00193     0.80783
      H  119    0.21640      0.00000     0.78226    0.00134     0.78360
      H  120    0.19382      0.00000     0.80438    0.00180     0.80618
 =======================================================================
   * Total *    1.00000    141.95090   267.20125    0.84785   410.00000

 Normal termination of Gaussian 16 at Tue Nov  5 14:25:39 2024.
