 Gaussian 16, Revision B.01,
 Gaussian 16:  ES64L-G16RevB.01 20-Dec-2017

 ------------------------------------------
 # nmr=giao b3lyp/genecp pop=nbo scfcyc=200
 ------------------------------------------

 ------------
 Ligand 2 SPE
 ------------
 Symbolic Z-matrix:
 Charge =  1 Multiplicity = 1

                         Standard orientation:
 ---------------------------------------------------------------------
 Center     Atomic      Atomic             Coordinates (Angstroms)
 Number     Number       Type             X           Y           Z
 ---------------------------------------------------------------------
      1          6           0        2.434511    0.010602    0.001921
      2          1           0        3.077284   -0.295384   -0.822919
      3          1           0        3.071709    0.322656    0.828811
      4          6           0        1.525234   -1.539617    2.326111
      5          1           0        2.548886   -1.866121    2.509611
      6          1           0        0.834467   -2.274260    2.737861
      7          1           0        1.354217   -0.592623    2.836881
      8          6           0        1.700701   -2.928771   -0.323889
      9          6           0        0.791114   -4.048829    0.209051
     10          1           0        1.031072   -4.981565   -0.306939
     11          1           0       -0.265861   -3.843094    0.032951
     12          1           0        0.934380   -4.225103    1.276131
     13          6           0        3.169553   -3.269226   -0.029359
     14          1           0        3.351139   -3.442160    1.032091
     15          1           0        3.855421   -2.493112   -0.373639
     16          1           0        3.434941   -4.190072   -0.555139
     17          6           0        1.491905   -2.764656   -1.837499
     18          1           0        1.722782   -3.707381   -2.339219
     19          1           0        2.150603   -2.005542   -2.264639
     20          1           0        0.461611   -2.498851   -2.080019
     21          6           0        1.514468    1.550104   -2.325069
     22          1           0        2.535576    1.884939   -2.507859
     23          1           0        0.818056    2.278510   -2.738359
     24          1           0        1.351915    0.601187   -2.834999
     25          6           0        1.674881    2.943780    0.323511
     26          6           0        3.141150    3.296365    0.030471
     27          1           0        3.398002    4.220129    0.555371
     28          1           0        3.322614    3.469400   -1.030979
     29          1           0        3.833141    2.526568    0.376691
     30          6           0        0.756478    4.055422   -0.211919
     31          1           0        0.987700    4.990736    0.303401
     32          1           0       -0.298967    3.840887   -0.037099
     33          1           0        0.899752    4.231798   -1.278969
     34          6           0        1.465448    2.779675    1.837061
     35          1           0        2.130270    2.026999    2.266111
     36          1           0        0.437221    2.505009    2.078501
     37          1           0        1.687240    3.725049    2.337911
     38          6           0       -2.375456   -1.550553   -0.201539
     39          1           0       -1.848097   -2.431086   -0.549759
     40          6           0       -2.237908   -1.227907    1.132291
     41          1           0       -1.647944   -1.900291    1.746641
     42          6           0       -3.075395   -0.247247    1.914221
     43          1           0       -3.974827   -0.748445    2.293061
     44          1           0       -2.505028    0.046120    2.798281
     45          6           0       -3.476055    1.018603    1.127461
     46          1           0       -3.718516    1.806639    1.842241
     47          1           0       -4.388099    0.841065    0.558561
     48          6           0       -2.388342    1.530307    0.201181
     49          1           0       -1.868121    2.415004    0.549611
     50          6           0       -2.247980    1.209024   -1.132649
     51          1           0       -1.663524    1.886370   -1.746829
     52          6           0       -3.076754    0.221213   -1.914789
     53          1           0       -3.980152    0.714645   -2.294359
     54          1           0       -2.503331   -0.067580   -2.798389
     55          6           0       -3.467184   -1.047807   -1.127989
     56          1           0       -4.380710   -0.877665   -0.559219
     57          1           0       -3.703123   -1.837802   -1.842769
     58         15           0        1.199450   -1.301559    0.520221
     59         15           0        1.188692    1.311331   -0.519269
     60         45           0       -0.716179   -0.003223   -0.000099
 ---------------------------------------------------------------------

 SCF Done:  E(RB3LYP) =  -1540.39580842     A.U. after   14 cycles

      1  C    Isotropic =   141.9152   Anisotropy =    51.5486

      2  H    Isotropic =    29.1616   Anisotropy =     6.2104

      3  H    Isotropic =    29.1612   Anisotropy =     6.1957

      4  C    Isotropic =   172.4595   Anisotropy =    24.6142

      5  H    Isotropic =    30.4357   Anisotropy =    10.4956

      6  H    Isotropic =    30.5716   Anisotropy =     8.7956

      7  H    Isotropic =    30.3921   Anisotropy =     7.4178

      8  C    Isotropic =   141.3264   Anisotropy =    24.3560

      9  C    Isotropic =   158.9342   Anisotropy =    40.2636

     10  H    Isotropic =    30.7746   Anisotropy =    10.8516

     11  H    Isotropic =    31.2463   Anisotropy =     6.8186

     12  H    Isotropic =    30.9120   Anisotropy =     8.3071

     13  C    Isotropic =   160.7893   Anisotropy =    39.8483

     14  H    Isotropic =    30.8375   Anisotropy =     9.0966

     15  H    Isotropic =    31.0547   Anisotropy =     7.8451

     16  H    Isotropic =    30.7946   Anisotropy =    11.1349

     17  C    Isotropic =   156.2358   Anisotropy =    39.8788

     18  H    Isotropic =    30.6804   Anisotropy =    10.6010

     19  H    Isotropic =    30.7786   Anisotropy =     6.4231

     20  H    Isotropic =    30.4637   Anisotropy =     6.7656

     21  C    Isotropic =   172.4716   Anisotropy =    24.6137

     22  H    Isotropic =    30.4371   Anisotropy =    10.4970

     23  H    Isotropic =    30.5720   Anisotropy =     8.7967

     24  H    Isotropic =    30.3900   Anisotropy =     7.4168

     25  C    Isotropic =   141.3239   Anisotropy =    24.3579

     26  C    Isotropic =   160.7883   Anisotropy =    39.8489

     27  H    Isotropic =    30.7943   Anisotropy =    11.1352

     28  H    Isotropic =    30.8381   Anisotropy =     9.0945

     29  H    Isotropic =    31.0554   Anisotropy =     7.8450

     30  C    Isotropic =   158.9347   Anisotropy =    40.2628

     31  H    Isotropic =    30.7744   Anisotropy =    10.8527

     32  H    Isotropic =    31.2470   Anisotropy =     6.8160

     33  H    Isotropic =    30.9123   Anisotropy =     8.3073

     34  C    Isotropic =   156.2399   Anisotropy =    39.8873

     35  H    Isotropic =    30.7792   Anisotropy =     6.4268

     36  H    Isotropic =    30.4649   Anisotropy =     6.7689

     37  H    Isotropic =    30.6807   Anisotropy =    10.6020

     38  C    Isotropic =    78.6228   Anisotropy =   122.1414

     39  H    Isotropic =    26.8367   Anisotropy =     6.2515

     40  C    Isotropic =    78.1762   Anisotropy =   115.3270

     41  H    Isotropic =    26.6828   Anisotropy =     4.2632

     42  C    Isotropic =   147.9382   Anisotropy =    29.6716

     43  H    Isotropic =    29.0861   Anisotropy =    12.5117

     44  H    Isotropic =    29.1425   Anisotropy =     7.5856

     45  C    Isotropic =   153.9479   Anisotropy =    25.4432

     46  H    Isotropic =    29.8212   Anisotropy =    11.4668

     47  H    Isotropic =    29.7625   Anisotropy =     9.3515

     48  C    Isotropic =    78.6064   Anisotropy =   122.1342

     49  H    Isotropic =    26.8352   Anisotropy =     6.2508

     50  C    Isotropic =    78.1806   Anisotropy =   115.3236

     51  H    Isotropic =    26.6825   Anisotropy =     4.2634

     52  C    Isotropic =   147.9417   Anisotropy =    29.6560

     53  H    Isotropic =    29.0857   Anisotropy =    12.5117

     54  H    Isotropic =    29.1433   Anisotropy =     7.5850

     55  C    Isotropic =   153.9524   Anisotropy =    25.4418

     56  H    Isotropic =    29.7652   Anisotropy =     9.3496

     57  H    Isotropic =    29.8220   Anisotropy =    11.4684

     58  P    Isotropic =   319.3690   Anisotropy =   118.7911

     59  P    Isotropic =   319.4620   Anisotropy =   118.8484

     60  Rh   Isotropic =  -318.9521   Anisotropy =   366.9381

 The electronic state is 1-A.
 Alpha  occ. eigenvalues --  -77.23938 -77.23937 -10.31870 -10.31869 -10.31060
 Alpha  occ. eigenvalues --  -10.29946 -10.29946 -10.29815 -10.29814 -10.29623
 Alpha  occ. eigenvalues --  -10.29622 -10.28275 -10.28274 -10.28041 -10.28040
 Alpha  occ. eigenvalues --  -10.27673 -10.27673 -10.27661 -10.27661 -10.27515
 Alpha  occ. eigenvalues --  -10.27515  -6.69984  -6.69983  -4.86284  -4.86282
 Alpha  occ. eigenvalues --   -4.86173  -4.86172  -4.85877  -4.85877  -3.32290
 Alpha  occ. eigenvalues --   -2.09185  -2.08531  -2.05717  -0.95324  -0.94285
 Alpha  occ. eigenvalues --   -0.93655  -0.90049  -0.88805  -0.88559  -0.85237
 Alpha  occ. eigenvalues --   -0.82345  -0.81196  -0.80465  -0.80376  -0.80360
 Alpha  occ. eigenvalues --   -0.80177  -0.78647  -0.72461  -0.71358  -0.70881
 Alpha  occ. eigenvalues --   -0.66753  -0.64572  -0.63903  -0.63380  -0.61023
 Alpha  occ. eigenvalues --   -0.59173  -0.58834  -0.58137  -0.57027  -0.56595
 Alpha  occ. eigenvalues --   -0.55998  -0.55866  -0.55564  -0.55329  -0.54517
 Alpha  occ. eigenvalues --   -0.54404  -0.53397  -0.53317  -0.53291  -0.53162
 Alpha  occ. eigenvalues --   -0.52556  -0.52305  -0.50403  -0.50037  -0.49982
 Alpha  occ. eigenvalues --   -0.49662  -0.49005  -0.48744  -0.48419  -0.48283
 Alpha  occ. eigenvalues --   -0.47209  -0.46788  -0.46395  -0.45813  -0.45704
 Alpha  occ. eigenvalues --   -0.45380  -0.44509  -0.44197  -0.44039  -0.43505
 Alpha  occ. eigenvalues --   -0.42852  -0.42766  -0.41204  -0.37442  -0.37187
 Alpha  occ. eigenvalues --   -0.35883  -0.35407  -0.34535  -0.31510
 Alpha virt. eigenvalues --   -0.17015  -0.14697  -0.10210  -0.09230  -0.09023
 Alpha virt. eigenvalues --   -0.08724  -0.07943  -0.07201  -0.06891  -0.05810
 Alpha virt. eigenvalues --   -0.05759  -0.04768  -0.04634  -0.04315  -0.04179

 Mulliken charges:
               1
     1  C   -0.619239
     2  H    0.210314
     3  H    0.210308
     4  C   -0.471784
     5  H    0.171002
     6  H    0.164677
     7  H    0.166829
     8  C   -0.044332
     9  C   -0.415029
    10  H    0.158371
    11  H    0.143739
    12  H    0.149615
    13  C   -0.370357
    14  H    0.143609
    15  H    0.133746
    16  H    0.154990
    17  C   -0.383641
    18  H    0.161699
    19  H    0.127041
    20  H    0.141919
    21  C   -0.471747
    22  H    0.170971
    23  H    0.164689
    24  H    0.166846
    25  C   -0.044411
    26  C   -0.370323
    27  H    0.154992
    28  H    0.143610
    29  H    0.133768
    30  C   -0.415105
    31  H    0.158371
    32  H    0.143794
    33  H    0.149628
    34  C   -0.383520
    35  H    0.127052
    36  H    0.141853
    37  H    0.161695
    38  C   -0.023829
    39  H    0.166802
    40  C   -0.078239
    41  H    0.171039
    42  C   -0.227346
    43  H    0.175041
    44  H    0.131932
    45  C   -0.343974
    46  H    0.171553
    47  H    0.169845
    48  C   -0.023719
    49  H    0.166717
    50  C   -0.078406
    51  H    0.171053
    52  C   -0.227189
    53  H    0.175065
    54  H    0.131936
    55  C   -0.343991
    56  H    0.169833
    57  H    0.171554
    58  P    0.392587
    59  P    0.392586
    60  Rh  -0.476491
 Sum of Mulliken charges =   1.00000

 Dipole moment (field-independent basis, Debye):
    X=              1.9587    Y=              0.0080    Z=              0.0011  Tot=              1.9588
 Quadrupole moment (field-independent basis, Debye-Ang):
   XX=           -135.3136   YY=           -135.6814   ZZ=           -152.6931
   XY=             -0.0007   XZ=              0.0069   YZ=             -1.2543

 Summary of Natural Population Analysis:

                                       Natural Population
                Natural  -----------------------------------------------
    Atom  No    Charge         Core      Valence    Rydberg      Total
 -----------------------------------------------------------------------
      C    1   -1.00832      1.99943     4.99047    0.01842     7.00832
      H    2    0.25694      0.00000     0.74080    0.00226     0.74306
      H    3    0.25697      0.00000     0.74077    0.00226     0.74303
      C    4   -0.90517      1.99942     4.89533    0.01042     6.90517
      H    5    0.23652      0.00000     0.76136    0.00213     0.76348
      H    6    0.24141      0.00000     0.75730    0.00129     0.75859
      H    7    0.24412      0.00000     0.75449    0.00139     0.75588
      C    8   -0.26398      1.99945     4.24822    0.01631     6.26398
      C    9   -0.60419      1.99936     4.59681    0.00803     6.60419
      H   10    0.22669      0.00000     0.77160    0.00171     0.77331
      H   11    0.20761      0.00000     0.79089    0.00150     0.79239
      H   12    0.21085      0.00000     0.78767    0.00148     0.78915
      C   13   -0.60698      1.99936     4.59892    0.00870     6.60698
      H   14    0.21025      0.00000     0.78814    0.00161     0.78975
      H   15    0.20706      0.00000     0.79130    0.00163     0.79294
      H   16    0.22703      0.00000     0.77130    0.00167     0.77297
      C   17   -0.60225      1.99936     4.59519    0.00770     6.60225
      H   18    0.22517      0.00000     0.77310    0.00173     0.77483
      H   19    0.20217      0.00000     0.79615    0.00168     0.79783
      H   20    0.21709      0.00000     0.78149    0.00142     0.78291
      C   21   -0.90517      1.99942     4.89533    0.01042     6.90517
      H   22    0.23650      0.00000     0.76137    0.00213     0.76350
      H   23    0.24142      0.00000     0.75730    0.00129     0.75858
      H   24    0.24412      0.00000     0.75449    0.00139     0.75588
      C   25   -0.26399      1.99945     4.24823    0.01631     6.26399
      C   26   -0.60699      1.99936     4.59892    0.00870     6.60699
      H   27    0.22703      0.00000     0.77130    0.00167     0.77297
      H   28    0.21025      0.00000     0.78814    0.00161     0.78975
      H   29    0.20707      0.00000     0.79129    0.00163     0.79293
      C   30   -0.60420      1.99936     4.59682    0.00803     6.60420
      H   31    0.22669      0.00000     0.77160    0.00171     0.77331
      H   32    0.20761      0.00000     0.79089    0.00150     0.79239
      H   33    0.21086      0.00000     0.78766    0.00148     0.78914
      C   34   -0.60224      1.99936     4.59518    0.00770     6.60224
      H   35    0.20219      0.00000     0.79613    0.00168     0.79781
      H   36    0.21707      0.00000     0.78151    0.00142     0.78293
      H   37    0.22517      0.00000     0.77310    0.00173     0.77483
      C   38   -0.16950      1.99907     4.15052    0.01992     6.16950
      H   39    0.22048      0.00000     0.77724    0.00228     0.77952
      C   40   -0.16258      1.99908     4.14364    0.01986     6.16258
      H   41    0.22102      0.00000     0.77707    0.00191     0.77898
      C   42   -0.41849      1.99935     4.40633    0.01281     6.41849
      H   43    0.23515      0.00000     0.76304    0.00180     0.76485
      H   44    0.21675      0.00000     0.78170    0.00155     0.78325
      C   45   -0.42443      1.99936     4.41303    0.01204     6.42443
      H   46    0.22980      0.00000     0.76878    0.00142     0.77020
      H   47    0.21603      0.00000     0.78207    0.00190     0.78397
      C   48   -0.16948      1.99907     4.15049    0.01993     6.16948
      H   49    0.22048      0.00000     0.77724    0.00228     0.77952
      C   50   -0.16259      1.99908     4.14366    0.01986     6.16259
      H   51    0.22103      0.00000     0.77706    0.00191     0.77897
      C   52   -0.41849      1.99935     4.40633    0.01281     6.41849
      H   53    0.23516      0.00000     0.76303    0.00180     0.76484
      H   54    0.21676      0.00000     0.78170    0.00155     0.78324
      C   55   -0.42442      1.99936     4.41302    0.01204     6.42442
      H   56    0.21602      0.00000     0.78208    0.00190     0.78398
      H   57    0.22980      0.00000     0.76878    0.00142     0.77020
      P   58    1.10760      9.99680     3.84799    0.04761    13.89240
      P   59    1.10757      9.99680     3.84802    0.04761    13.89243
     Rh   60   -0.39605     35.98574     9.38447    0.02584    45.39605
 =======================================================================
   * Total *    1.00000     93.96637   131.59787    0.43576   226.00000

 Normal termination of Gaussian 16 at Tue Nov  5 12:00:46 2024.
