 Gaussian 16, Revision B.01,
 Gaussian 16:  ES64L-G16RevB.01 20-Dec-2017

 ------------------------------------------
 # nmr=giao b3lyp/genecp pop=nbo scfcyc=200
 ------------------------------------------

 -------------
 Ligand 30 SPE
 -------------
 Symbolic Z-matrix:
 Charge =  1 Multiplicity = 1

                         Standard orientation:
 ---------------------------------------------------------------------
 Center     Atomic      Atomic             Coordinates (Angstroms)
 Number     Number       Type             X           Y           Z
 ---------------------------------------------------------------------
      1          6           0        0.030082   -0.211020   -1.467660
      2          1           0       -0.823276   -0.367550   -2.126550
      3          1           0        0.776525    0.397809   -1.978860
      4          6           0        2.073871   -2.586225    2.566850
      5          1           0        1.728612   -3.450539    2.009330
      6          6           0        3.079662   -1.840703    2.001370
      7          1           0        3.479576   -2.181158    1.051780
      8          6           0        3.892529   -0.760123    2.669680
      9          1           0        4.744905   -1.213292    3.191250
     10          1           0        4.324122   -0.138287    1.882490
     11          6           0        3.101488    0.136738    3.646220
     12          1           0        3.651217    1.070664    3.774390
     13          1           0        3.058484   -0.321123    4.634090
     14          6           0        1.696964    0.467581    3.175170
     15          1           0        1.556732    1.478829    2.812640
     16          6           0        0.554883   -0.244203    3.480860
     17          1           0       -0.395883    0.264505    3.356270
     18          6           0        0.472858   -1.528064    4.268280
     19          1           0        0.415726   -1.296895    5.339390
     20          1           0       -0.476036   -2.008316    4.019530
     21          6           0        1.627491   -2.523220    4.014490
     22          1           0        2.479408   -2.287000    4.651110
     23          1           0        1.294953   -3.517824    4.316100
     24         15           0        0.833501   -1.762720   -0.777120
     25         15           0       -0.290267    0.551366    0.207870
     26         45           0        1.122470   -0.833666    1.390630
     27          8           0       -1.857565    0.364607    0.540660
     28          8           0       -0.166087    2.171778    0.029640
     29          6           0       -2.958092    0.949764   -0.267660
     30          6           0       -3.925928   -0.193208   -0.619810
     31          6           0       -3.605625    2.059776    0.552600
     32          1           0       -2.510227    1.370839   -1.166460
     33          6           0       -4.635112   -0.676666    0.668680
     34          1           0       -3.308828   -1.031230   -0.965080
     35          6           0       -4.263589    1.533078    1.831310
     36          1           0       -2.853214    2.814135    0.788690
     37          1           0       -4.347101    2.551327   -0.084170
     38          6           0       -5.279765    0.409676    1.557320
     39          1           0       -3.872436   -1.176667    1.272540
     40          1           0       -5.369653   -1.444855    0.424630
     41          1           0       -4.747799    2.358112    2.360040
     42          1           0       -3.481864    1.153878    2.495260
     43          1           0       -5.491579   -0.073127    2.517260
     44          6           0        1.111965    2.905353    0.047000
     45          6           0        1.355657    3.505256   -1.352280
     46          6           0        1.016602    3.969092    1.137080
     47          1           0        1.893763    2.187013    0.298120
     48          6           0        0.304114    4.608484   -1.625070
     49          1           0        1.157187    2.706344   -2.077740
     50          6           0       -0.056231    5.020959    0.838510
     51          1           0        0.812167    3.487890    2.096830
     52          1           0        1.999176    4.440214    1.231900
     53          6           0        0.133151    5.688862   -0.535040
     54          1           0       -0.659470    4.101792   -1.729990
     55          1           0        0.497328    5.077936   -2.590110
     56          1           0       -0.056920    5.776329    1.628310
     57          1           0       -1.035855    4.537307    0.869890
     58          1           0       -0.802006    6.207280   -0.770530
     59          6           0       -4.839112    0.171431   -1.828440
     60          1           0       -5.368724    1.103355   -1.612280
     61          6           0       -4.020525    0.392671   -3.111460
     62          1           0       -3.322145    1.228160   -3.039800
     63          1           0       -3.451204   -0.506542   -3.367750
     64          1           0       -4.683058    0.607613   -3.951740
     65          6           0       -5.894359   -0.909612   -2.097880
     66          1           0       -6.610618   -1.008940   -1.283990
     67          1           0       -6.459602   -0.667379   -2.999820
     68          1           0       -5.424517   -1.885246   -2.255150
     69          6           0       -6.623592    0.947529    1.047330
     70          1           0       -7.328472    0.133981    0.863080
     71          1           0       -7.073480    1.606174    1.793890
     72          1           0       -6.533469    1.520061    0.123120
     73          6           0        2.848333    3.892465   -1.572760
     74          1           0        3.161924    4.578608   -0.781350
     75          6           0        3.770617    2.663806   -1.510330
     76          1           0        4.805234    2.957058   -1.696820
     77          1           0        3.753424    2.157486   -0.544000
     78          1           0        3.497376    1.932312   -2.277470
     79          6           0        3.065924    4.603717   -2.915010
     80          1           0        2.703451    3.992103   -3.747030
     81          1           0        2.564312    5.568501   -2.965470
     82          1           0        4.130322    4.782530   -3.078290
     83          6           0        1.223588    6.768585   -0.516680
     84          1           0        2.200792    6.387607   -0.216280
     85          1           0        1.337732    7.229086   -1.500230
     86          1           0        0.955538    7.561612    0.185190
     87          6           0       -0.410142   -3.108725   -0.951730
     88          6           0       -1.179878   -3.478474    0.153480
     89          6           0       -0.616055   -3.745368   -2.180410
     90          6           0       -2.148116   -4.470276    0.031400
     91          1           0       -1.022574   -2.985922    1.105370
     92          6           0       -1.583433   -4.735809   -2.296820
     93          1           0       -0.016998   -3.480340   -3.042710
     94          6           0       -2.349478   -5.099699   -1.191940
     95          1           0       -2.740372   -4.753303    0.892480
     96          1           0       -1.735817   -5.227991   -3.249160
     97          1           0       -3.098729   -5.875748   -1.285470
     98          6           0        2.223617   -2.258423   -1.876650
     99          6           0        2.915852   -3.432685   -1.553970
    100          6           0        2.635458   -1.507648   -2.978620
    101          6           0        3.994557   -3.846851   -2.323910
    102          1           0        2.601929   -4.039238   -0.712340
    103          6           0        3.718243   -1.925925   -3.747780
    104          1           0        2.115767   -0.601464   -3.259580
    105          6           0        4.400047   -3.091937   -3.421650
    106          1           0        4.517518   -4.759895   -2.068670
    107          1           0        4.023886   -1.339071   -4.604790
    108          1           0        5.241241   -3.415066   -4.021530
 ---------------------------------------------------------------------

 SCF Done:  E(RB3LYP) =  -2543.99306417     A.U. after   16 cycles

      1  C    Isotropic =   123.1255   Anisotropy =    58.2688

      2  H    Isotropic =    28.4880   Anisotropy =     7.0845

      3  H    Isotropic =    27.7376   Anisotropy =     5.7288

      4  C    Isotropic =    75.0110   Anisotropy =   128.4434

      5  H    Isotropic =    26.6793   Anisotropy =     6.2989

      6  C    Isotropic =    67.2991   Anisotropy =   132.3021

      7  H    Isotropic =    26.3801   Anisotropy =     4.3702

      8  C    Isotropic =   148.7291   Anisotropy =    27.9896

      9  H    Isotropic =    29.2736   Anisotropy =    12.4962

     10  H    Isotropic =    29.3469   Anisotropy =     6.7452

     11  C    Isotropic =   153.7167   Anisotropy =    24.2116

     12  H    Isotropic =    29.9099   Anisotropy =    10.5252

     13  H    Isotropic =    29.7351   Anisotropy =     9.6242

     14  C    Isotropic =    80.3639   Anisotropy =   119.1685

     15  H    Isotropic =    27.0180   Anisotropy =     6.8721

     16  C    Isotropic =    75.7364   Anisotropy =   119.0808

     17  H    Isotropic =    26.0960   Anisotropy =     4.1226

     18  C    Isotropic =   147.5867   Anisotropy =    30.0075

     19  H    Isotropic =    28.9609   Anisotropy =    12.3645

     20  H    Isotropic =    28.8921   Anisotropy =     7.6790

     21  C    Isotropic =   154.3117   Anisotropy =    24.5827

     22  H    Isotropic =    29.7244   Anisotropy =     9.6879

     23  H    Isotropic =    29.7890   Anisotropy =    11.6128

     24  P    Isotropic =   316.1983   Anisotropy =    87.7240

     25  P    Isotropic =   175.4295   Anisotropy =   171.2568

     26  Rh   Isotropic =  -306.1777   Anisotropy =   367.2508

     27  O    Isotropic =   185.0763   Anisotropy =   125.5670

     28  O    Isotropic =   197.5186   Anisotropy =    86.4738

     29  C    Isotropic =    96.8886   Anisotropy =    82.9292

     30  C    Isotropic =   131.3021   Anisotropy =    34.4740

     31  C    Isotropic =   157.1844   Anisotropy =    18.1547

     32  H    Isotropic =    27.3626   Anisotropy =     7.0890

     33  C    Isotropic =   154.6061   Anisotropy =    25.9973

     34  H    Isotropic =    31.6363   Anisotropy =     9.2905

     35  C    Isotropic =   155.8230   Anisotropy =    24.5129

     36  H    Isotropic =    30.1698   Anisotropy =    10.6707

     37  H    Isotropic =    30.0838   Anisotropy =     6.8600

     38  C    Isotropic =   151.9693   Anisotropy =     5.0447

     39  H    Isotropic =    30.0095   Anisotropy =     7.7031

     40  H    Isotropic =    30.3917   Anisotropy =     5.6168

     41  H    Isotropic =    30.5239   Anisotropy =     9.7239

     42  H    Isotropic =    29.8047   Anisotropy =     6.1576

     43  H    Isotropic =    29.9494   Anisotropy =     8.7326

     44  C    Isotropic =   101.7570   Anisotropy =    75.0744

     45  C    Isotropic =   129.8116   Anisotropy =    31.6314

     46  C    Isotropic =   156.7888   Anisotropy =    18.4932

     47  H    Isotropic =    27.1849   Anisotropy =     5.9779

     48  C    Isotropic =   154.3589   Anisotropy =    23.9800

     49  H    Isotropic =    30.7669   Anisotropy =     6.1079

     50  C    Isotropic =   156.0121   Anisotropy =    24.4669

     51  H    Isotropic =    30.6278   Anisotropy =     8.2267

     52  H    Isotropic =    30.0281   Anisotropy =     6.1274

     53  C    Isotropic =   152.3155   Anisotropy =     4.8582

     54  H    Isotropic =    29.9787   Anisotropy =     6.7951

     55  H    Isotropic =    30.0759   Anisotropy =     6.4615

     56  H    Isotropic =    30.5587   Anisotropy =     9.9275

     57  H    Isotropic =    29.8625   Anisotropy =     7.9674

     58  H    Isotropic =    29.9578   Anisotropy =     9.0780

     59  C    Isotropic =   149.4855   Anisotropy =    16.0899

     60  H    Isotropic =    30.3099   Anisotropy =     5.3807

     61  C    Isotropic =   161.3880   Anisotropy =    35.8884

     62  H    Isotropic =    30.8754   Anisotropy =     6.8041

     63  H    Isotropic =    32.0359   Anisotropy =     5.6650

     64  H    Isotropic =    30.9852   Anisotropy =    11.0485

     65  C    Isotropic =   162.3966   Anisotropy =    31.4686

     66  H    Isotropic =    30.5988   Anisotropy =     7.9121

     67  H    Isotropic =    31.1163   Anisotropy =    11.3103

     68  H    Isotropic =    31.8557   Anisotropy =     6.9791

     69  C    Isotropic =   163.3598   Anisotropy =    36.3224

     70  H    Isotropic =    30.7680   Anisotropy =     9.4721

     71  H    Isotropic =    30.9106   Anisotropy =    12.0354

     72  H    Isotropic =    30.7042   Anisotropy =     4.7113

     73  C    Isotropic =   148.6556   Anisotropy =    15.0665

     74  H    Isotropic =    30.0775   Anisotropy =     5.2665

     75  C    Isotropic =   160.5462   Anisotropy =    36.7020

     76  H    Isotropic =    30.7600   Anisotropy =     9.7092

     77  H    Isotropic =    30.5359   Anisotropy =     7.8122

     78  H    Isotropic =    31.4635   Anisotropy =     8.3990

     79  C    Isotropic =   161.8601   Anisotropy =    32.4086

     80  H    Isotropic =    31.2926   Anisotropy =     7.7250

     81  H    Isotropic =    30.2610   Anisotropy =     8.4726

     82  H    Isotropic =    30.8193   Anisotropy =    10.9612

     83  C    Isotropic =   163.2993   Anisotropy =    35.9756

     84  H    Isotropic =    30.6488   Anisotropy =     4.3509

     85  H    Isotropic =    30.6672   Anisotropy =     9.6502

     86  H    Isotropic =    30.8776   Anisotropy =    11.9911

     87  C    Isotropic =    42.1863   Anisotropy =   173.8373

     88  C    Isotropic =    41.6433   Anisotropy =   181.2233

     89  C    Isotropic =    46.7970   Anisotropy =   189.6993

     90  C    Isotropic =    49.7405   Anisotropy =   188.3475

     91  H    Isotropic =    23.0143   Anisotropy =     8.6194

     92  C    Isotropic =    48.0456   Anisotropy =   191.2543

     93  H    Isotropic =    24.9230   Anisotropy =    11.8850

     94  C    Isotropic =    45.1606   Anisotropy =   198.7597

     95  H    Isotropic =    24.0894   Anisotropy =     6.3284

     96  H    Isotropic =    24.3134   Anisotropy =     5.8203

     97  H    Isotropic =    24.0364   Anisotropy =     3.6292

     98  C    Isotropic =    45.5818   Anisotropy =   174.0320

     99  C    Isotropic =    47.1771   Anisotropy =   186.9916

    100  C    Isotropic =    50.1116   Anisotropy =   187.4596

    101  C    Isotropic =    48.0224   Anisotropy =   191.9835

    102  H    Isotropic =    24.8525   Anisotropy =    11.2521

    103  C    Isotropic =    48.9895   Anisotropy =   190.0460

    104  H    Isotropic =    24.2678   Anisotropy =    10.0918

    105  C    Isotropic =    46.3961   Anisotropy =   196.8875

    106  H    Isotropic =    24.2117   Anisotropy =     6.5136

    107  H    Isotropic =    24.0533   Anisotropy =     6.6411

    108  H    Isotropic =    24.0451   Anisotropy =     3.5903

 The electronic state is 1-A.
 Alpha  occ. eigenvalues --  -77.29450 -77.23995 -19.24728 -19.24713 -10.32755
 Alpha  occ. eigenvalues --  -10.32095 -10.29904 -10.29786 -10.29443 -10.29419
 Alpha  occ. eigenvalues --  -10.29323 -10.29267 -10.29095 -10.28647 -10.28538
 Alpha  occ. eigenvalues --  -10.28164 -10.28153 -10.27792 -10.27777 -10.27773
 Alpha  occ. eigenvalues --  -10.27763 -10.27648 -10.27604 -10.27548 -10.27534
 Alpha  occ. eigenvalues --  -10.27434 -10.27413 -10.26524 -10.26102 -10.25762
 Alpha  occ. eigenvalues --  -10.25712 -10.25501 -10.24861 -10.24844 -10.24445
 Alpha  occ. eigenvalues --  -10.24383 -10.24264 -10.24245 -10.23797 -10.23768
 Alpha  occ. eigenvalues --  -10.23733 -10.23429 -10.22900 -10.22811 -10.22440
 Alpha  occ. eigenvalues --   -6.74467  -6.69966  -4.90892  -4.90761  -4.90325
 Alpha  occ. eigenvalues --   -4.86260  -4.86178  -4.85868  -3.31954  -2.08928
 Alpha  occ. eigenvalues --   -2.08156  -2.05366  -1.15528  -1.11765  -0.96894
 Alpha  occ. eigenvalues --   -0.96129  -0.94736  -0.92996  -0.92254  -0.89501
 Alpha  occ. eigenvalues --   -0.88984  -0.88285  -0.88039  -0.87468  -0.85707
 Alpha  occ. eigenvalues --   -0.85431  -0.85170  -0.84958  -0.84125  -0.83671
 Alpha  occ. eigenvalues --   -0.81807  -0.81218  -0.80624  -0.78127  -0.76905
 Alpha  occ. eigenvalues --   -0.76424  -0.76007  -0.75464  -0.74759  -0.72356
 Alpha  occ. eigenvalues --   -0.71190  -0.71081  -0.70887  -0.70785  -0.70333
 Alpha  occ. eigenvalues --   -0.70275  -0.69130  -0.67045  -0.66493  -0.66093
 Alpha  occ. eigenvalues --   -0.65407  -0.64817  -0.62930  -0.62742  -0.62091
 Alpha  occ. eigenvalues --   -0.61519  -0.60226  -0.60094  -0.59152  -0.58699
 Alpha  occ. eigenvalues --   -0.57990  -0.57420  -0.57182  -0.56499  -0.56406
 Alpha  occ. eigenvalues --   -0.56075  -0.55596  -0.55401  -0.55009  -0.54703
 Alpha  occ. eigenvalues --   -0.54182  -0.53896  -0.53856  -0.53437  -0.52891
 Alpha  occ. eigenvalues --   -0.52870  -0.52831  -0.52778  -0.52565  -0.52147
 Alpha  occ. eigenvalues --   -0.51274  -0.51219  -0.50862  -0.50253  -0.50165
 Alpha  occ. eigenvalues --   -0.49644  -0.49323  -0.49025  -0.48659  -0.48283
 Alpha  occ. eigenvalues --   -0.48083  -0.47805  -0.47687  -0.47462  -0.47246
 Alpha  occ. eigenvalues --   -0.46763  -0.46545  -0.46477  -0.46295  -0.46152
 Alpha  occ. eigenvalues --   -0.45913  -0.45817  -0.45562  -0.45331  -0.44985
 Alpha  occ. eigenvalues --   -0.44814  -0.44576  -0.44322  -0.44012  -0.43938
 Alpha  occ. eigenvalues --   -0.43701  -0.43640  -0.43368  -0.43182  -0.42757
 Alpha  occ. eigenvalues --   -0.42436  -0.42103  -0.41758  -0.41579  -0.41367
 Alpha  occ. eigenvalues --   -0.41118  -0.40702  -0.39706  -0.39540  -0.38766
 Alpha  occ. eigenvalues --   -0.38491  -0.38137  -0.37937  -0.37732  -0.37424
 Alpha  occ. eigenvalues --   -0.37028  -0.36709  -0.36371  -0.36252  -0.35868
 Alpha  occ. eigenvalues --   -0.35495  -0.35252  -0.34665  -0.34135  -0.31016
 Alpha virt. eigenvalues --   -0.16927  -0.14887  -0.13431  -0.12204  -0.11624
 Alpha virt. eigenvalues --   -0.10982  -0.09681  -0.08043  -0.07376  -0.07043
 Alpha virt. eigenvalues --   -0.06887  -0.06545  -0.05851  -0.05068  -0.04785

 Mulliken charges:
               1
     1  C   -0.526061
     2  H    0.231627
     3  H    0.167012
     4  C   -0.037141
     5  H    0.183414
     6  C   -0.076218
     7  H    0.202301
     8  C   -0.220341
     9  H    0.174639
    10  H    0.134193
    11  C   -0.362006
    12  H    0.169888
    13  H    0.169972
    14  C   -0.021274
    15  H    0.190902
    16  C   -0.102097
    17  H    0.199393
    18  C   -0.230220
    19  H    0.175771
    20  H    0.137291
    21  C   -0.353822
    22  H    0.169363
    23  H    0.171517
    24  P    0.331098
    25  P    0.681068
    26  Rh  -0.603482
    27  O   -0.341412
    28  O   -0.348892
    29  C   -0.051733
    30  C   -0.121347
    31  C   -0.365027
    32  H    0.204450
    33  C   -0.335962
    34  H    0.172708
    35  C   -0.248766
    36  H    0.169974
    37  H    0.149803
    38  C   -0.000894
    39  H    0.138217
    40  H    0.156780
    41  H    0.141208
    42  H    0.126220
    43  H    0.146398
    44  C   -0.132419
    45  C   -0.094284
    46  C   -0.300897
    47  H    0.206233
    48  C   -0.334149
    49  H    0.135259
    50  C   -0.268336
    51  H    0.132485
    52  H    0.154349
    53  C    0.000363
    54  H    0.144073
    55  H    0.160376
    56  H    0.145187
    57  H    0.135147
    58  H    0.151900
    59  C   -0.059984
    60  H    0.125871
    61  C   -0.404497
    62  H    0.118459
    63  H    0.115070
    64  H    0.145184
    65  C   -0.390190
    66  H    0.138122
    67  H    0.135370
    68  H    0.120773
    69  C   -0.411024
    70  H    0.130793
    71  H    0.133575
    72  H    0.116647
    73  C   -0.063615
    74  H    0.126063
    75  C   -0.399374
    76  H    0.146364
    77  H    0.116727
    78  H    0.109371
    79  C   -0.385401
    80  H    0.116115
    81  H    0.141965
    82  H    0.136062
    83  C   -0.412623
    84  H    0.114798
    85  H    0.133097
    86  H    0.135298
    87  C   -0.299454
    88  C   -0.002020
    89  C   -0.038624
    90  C   -0.105986
    91  H    0.172551
    92  C   -0.096349
    93  H    0.152417
    94  C   -0.093978
    95  H    0.129962
    96  H    0.135681
    97  H    0.138860
    98  C   -0.134052
    99  C   -0.120031
   100  C   -0.067829
   101  C   -0.086033
   102  H    0.158054
   103  C   -0.097933
   104  H    0.131639
   105  C   -0.099227
   106  H    0.135317
   107  H    0.133171
   108  H    0.141049
 Sum of Mulliken charges =   1.00000

 Dipole moment (field-independent basis, Debye):
    X=              3.2331    Y=             -3.0700    Z=              0.2157  Tot=              4.4637
 Quadrupole moment (field-independent basis, Debye-Ang):
   XX=           -259.9275   YY=           -258.3388   ZZ=           -268.2521
   XY=             -1.4445   XZ=              0.7892   YZ=              1.2142

 Summary of Natural Population Analysis:

                                       Natural Population
                Natural  -----------------------------------------------
    Atom  No    Charge         Core      Valence    Rydberg      Total
 -----------------------------------------------------------------------
      C    1   -1.04561      1.99943     5.02854    0.01764     7.04561
      H    2    0.26499      0.00000     0.73295    0.00207     0.73501
      H    3    0.25683      0.00000     0.74136    0.00181     0.74317
      C    4   -0.17590      1.99907     4.15700    0.01983     6.17590
      H    5    0.22988      0.00000     0.76853    0.00159     0.77012
      C    6   -0.15481      1.99908     4.13509    0.02065     6.15481
      H    7    0.23195      0.00000     0.76563    0.00242     0.76805
      C    8   -0.42103      1.99935     4.40886    0.01283     6.42103
      H    9    0.23561      0.00000     0.76248    0.00191     0.76439
      H   10    0.21768      0.00000     0.78061    0.00171     0.78232
      C   11   -0.42361      1.99936     4.41242    0.01184     6.42361
      H   12    0.22850      0.00000     0.77001    0.00149     0.77150
      H   13    0.21504      0.00000     0.78293    0.00203     0.78496
      C   14   -0.17491      1.99906     4.15573    0.02013     6.17491
      H   15    0.22355      0.00000     0.77351    0.00295     0.77645
      C   16   -0.15445      1.99907     4.13540    0.01999     6.15445
      H   17    0.23349      0.00000     0.76427    0.00224     0.76651
      C   18   -0.42083      1.99935     4.40911    0.01237     6.42083
      H   19    0.23582      0.00000     0.76231    0.00188     0.76418
      H   20    0.22015      0.00000     0.77832    0.00153     0.77985
      C   21   -0.42513      1.99936     4.41392    0.01184     6.42513
      H   22    0.21554      0.00000     0.78251    0.00195     0.78446
      H   23    0.22993      0.00000     0.76860    0.00147     0.77007
      P   24    1.10599      9.99650     3.84683    0.05067    13.89401
      P   25    1.76325      9.99580     3.14745    0.09350    13.23675
     Rh   26   -0.48275     35.98557     9.46607    0.03111    45.48275
      O   27   -0.79541      1.99980     6.78144    0.01416     8.79541
      O   28   -0.80473      1.99979     6.79077    0.01416     8.80473
      C   29    0.11163      1.99915     3.86786    0.02136     5.88837
      C   30   -0.22633      1.99931     4.21019    0.01683     6.22633
      C   31   -0.41953      1.99935     4.40839    0.01179     6.41953
      H   32    0.18510      0.00000     0.81093    0.00397     0.81490
      C   33   -0.39042      1.99933     4.37971    0.01138     6.39042
      H   34    0.20441      0.00000     0.79254    0.00305     0.79559
      C   35   -0.38826      1.99938     4.37855    0.01033     6.38826
      H   36    0.21862      0.00000     0.77924    0.00214     0.78138
      H   37    0.21042      0.00000     0.78796    0.00162     0.78958
      C   38   -0.20434      1.99940     4.19286    0.01208     6.20434
      H   39    0.20821      0.00000     0.79022    0.00157     0.79179
      H   40    0.21117      0.00000     0.78718    0.00165     0.78883
      H   41    0.21002      0.00000     0.78838    0.00160     0.78998
      H   42    0.20116      0.00000     0.79731    0.00153     0.79884
      H   43    0.19971      0.00000     0.79871    0.00158     0.80029
      C   44    0.11011      1.99916     3.87202    0.01871     5.88989
      C   45   -0.21965      1.99931     4.20428    0.01606     6.21965
      C   46   -0.41350      1.99935     4.40285    0.01130     6.41350
      H   47    0.19045      0.00000     0.80710    0.00245     0.80955
      C   48   -0.39167      1.99933     4.38113    0.01121     6.39167
      H   49    0.19289      0.00000     0.80403    0.00308     0.80711
      C   50   -0.38884      1.99937     4.37896    0.01051     6.38884
      H   51    0.20732      0.00000     0.79113    0.00154     0.79268
      H   52    0.21031      0.00000     0.78809    0.00160     0.78969
      C   53   -0.20485      1.99940     4.19333    0.01211     6.20485
      H   54    0.20877      0.00000     0.78975    0.00148     0.79123
      H   55    0.21280      0.00000     0.78553    0.00167     0.78720
      H   56    0.21124      0.00000     0.78715    0.00161     0.78876
      H   57    0.20373      0.00000     0.79411    0.00216     0.79627
      H   58    0.20294      0.00000     0.79547    0.00159     0.79706
      C   59   -0.20397      1.99940     4.19302    0.01155     6.20397
      H   60    0.19303      0.00000     0.80484    0.00213     0.80697
      C   61   -0.59212      1.99943     4.58612    0.00657     6.59212
      H   62    0.19348      0.00000     0.80523    0.00129     0.80652
      H   63    0.19338      0.00000     0.80486    0.00176     0.80662
      H   64    0.21612      0.00000     0.78257    0.00131     0.78388
      C   65   -0.59129      1.99942     4.58500    0.00686     6.59129
      H   66    0.20819      0.00000     0.79029    0.00152     0.79181
      H   67    0.21132      0.00000     0.78737    0.00131     0.78868
      H   68    0.19749      0.00000     0.80091    0.00160     0.80251
      C   69   -0.59593      1.99943     4.58981    0.00669     6.59593
      H   70    0.20606      0.00000     0.79252    0.00142     0.79394
      H   71    0.20898      0.00000     0.78965    0.00138     0.79102
      H   72    0.19156      0.00000     0.80667    0.00177     0.80844
      C   73   -0.20627      1.99940     4.19540    0.01147     6.20627
      H   74    0.19386      0.00000     0.80400    0.00214     0.80614
      C   75   -0.58895      1.99943     4.58295    0.00658     6.58895
      H   76    0.21587      0.00000     0.78280    0.00133     0.78413
      H   77    0.19368      0.00000     0.80496    0.00136     0.80632
      H   78    0.19165      0.00000     0.80657    0.00178     0.80835
      C   79   -0.59109      1.99942     4.58478    0.00688     6.59109
      H   80    0.19643      0.00000     0.80199    0.00158     0.80357
      H   81    0.21002      0.00000     0.78848    0.00151     0.78998
      H   82    0.21184      0.00000     0.78684    0.00132     0.78816
      C   83   -0.59591      1.99943     4.58983    0.00665     6.59591
      H   84    0.19020      0.00000     0.80803    0.00176     0.80980
      H   85    0.20717      0.00000     0.79143    0.00140     0.79283
      H   86    0.21010      0.00000     0.78854    0.00136     0.78990
      C   87   -0.34482      1.99899     4.32123    0.02460     6.34482
      C   88   -0.18213      1.99909     4.16752    0.01552     6.18213
      C   89   -0.18838      1.99909     4.17306    0.01622     6.18838
      C   90   -0.19723      1.99919     4.18329    0.01475     6.19723
      H   91    0.22289      0.00000     0.77503    0.00208     0.77711
      C   92   -0.19229      1.99920     4.17843    0.01466     6.19229
      H   93    0.22030      0.00000     0.77780    0.00191     0.77970
      C   94   -0.17586      1.99921     4.16196    0.01469     6.17586
      H   95    0.22100      0.00000     0.77775    0.00126     0.77900
      H   96    0.22309      0.00000     0.77568    0.00122     0.77691
      H   97    0.22256      0.00000     0.77626    0.00118     0.77744
      C   98   -0.33764      1.99900     4.31533    0.02331     6.33764
      C   99   -0.19714      1.99909     4.18275    0.01531     6.19714
      C  100   -0.19723      1.99909     4.18240    0.01574     6.19723
      C  101   -0.18819      1.99920     4.17442    0.01458     6.18819
      H  102    0.21522      0.00000     0.78285    0.00193     0.78478
      C  103   -0.18903      1.99920     4.17514    0.01469     6.18903
      H  104    0.20769      0.00000     0.79002    0.00229     0.79231
      C  105   -0.18031      1.99920     4.16648    0.01462     6.18031
      H  106    0.22352      0.00000     0.77526    0.00122     0.77648
      H  107    0.22245      0.00000     0.77632    0.00123     0.77755
      H  108    0.22400      0.00000     0.77483    0.00117     0.77600
 =======================================================================
   * Total *    1.00000    141.94736   255.16687    0.88577   398.00000

 Normal termination of Gaussian 16 at Mon Jan  1 07:16:07 2001.
