 Gaussian 16, Revision B.01,
 Gaussian 16:  ES64L-G16RevB.01 20-Dec-2017

 ------------------------------------------
 # nmr=giao b3lyp/genecp pop=nbo scfcyc=200
 ------------------------------------------

 --------------
 Ligand 32a SPE
 --------------
 Symbolic Z-matrix:
 Charge =  1 Multiplicity = 1

                         Standard orientation:
 ---------------------------------------------------------------------
 Center     Atomic      Atomic             Coordinates (Angstroms)
 Number     Number       Type             X           Y           Z
 ---------------------------------------------------------------------
      1         45           0        1.578320   -0.387691   -0.575669
      2         15           0       -0.670059    0.055130    0.288551
      3         15           0        1.723990   -0.377921    1.785091
      4          6           0       -1.960990   -1.371699    0.262031
      5          6           0       -1.277911   -2.627519    0.859411
      6          1           0       -0.364621   -2.852820    0.299321
      7          1           0       -0.992851   -2.446040    1.897881
      8          6           0       -0.045319    0.151750    2.068021
      9          1           0       -0.071369    1.185620    2.407601
     10          1           0       -0.595640   -0.449060    2.791101
     11          6           0       -2.629041   -4.141219   -0.630009
     12          1           0       -3.295012   -5.007729   -0.664719
     13          1           0       -1.743751   -4.398199   -1.220619
     14          6           0       -1.684257    4.682061    0.656081
     15          1           0       -1.104017    4.729940    1.583391
     16          1           0       -2.047157    5.694491    0.458731
     17          6           0        2.845211    0.748509    2.840541
     18          6           0       -2.362970   -1.705659   -1.196519
     19          1           0       -1.471910   -1.946659   -1.779179
     20          1           0       -2.839840   -0.851649   -1.676709
     21          6           0       -2.231491   -3.838669    0.822481
     22          1           0       -1.713902   -4.700359    1.253051
     23          6           0       -0.275268    2.784010   -0.197119
     24          1           0        0.325742    2.814800    0.714411
     25          1           0        0.387552    2.450140   -0.998159
     26          6           0       -2.289209    1.791751   -1.331189
     27          1           0       -1.695609    1.423051   -2.172949
     28          1           0       -3.149019    1.128141   -1.229599
     29          6           0       -3.327831   -2.909598   -1.225269
     30          1           0       -3.603171   -3.105718   -2.264859
     31          6           0       -2.868818    3.717591    0.817431
     32          1           0       -3.500028    4.041552    1.649091
     33          6           0       -1.453809    1.789721   -0.029069
     34          6           0       -4.187710   -2.290298    1.048991
     35          1           0       -5.077670   -2.048048    1.635671
     36          6           0       -0.797177    4.201620   -0.503229
     37          1           0        0.060333    4.870590   -0.616209
     38          6           0       -2.347628    2.296671    1.129941
     39          1           0       -3.196149    1.632481    1.287871
     40          1           0       -1.787528    2.325141    2.068021
     41          6           0        3.735361   -0.128362   -1.166789
     42          1           0        4.161671    0.440708   -0.349149
     43          6           0       -1.611767    4.174201   -1.805839
     44          1           0       -0.980698    3.855320   -2.641779
     45          1           0       -1.970937    5.178341   -2.047199
     46          6           0        3.866561    0.522788   -2.531899
     47          1           0        4.290030   -0.189722   -3.239469
     48          1           0        4.590031    1.336448   -2.459249
     49          6           0       -3.692158    3.691682   -0.480619
     50          1           0       -4.556048    3.028772   -0.369819
     51          1           0       -4.085337    4.689212   -0.694909
     52          6           0        2.363791    0.775849    4.299631
     53          1           0        1.341791    1.147559    4.392821
     54          1           0        3.005771    1.447749    4.875481
     55          1           0        2.417430   -0.204401    4.774631
     56          6           0        1.886840   -2.043791    2.576441
     57          1           0        1.239979   -2.750501    2.063941
     58          1           0        1.619010   -2.012271    3.632631
     59          1           0        2.913309   -2.394241    2.479341
     60          6           0       -2.800268    3.214991   -1.638509
     61          1           0       -3.381818    3.180232   -2.563449
     62          6           0       -4.587691   -2.583928   -0.406469
     63          1           0       -5.285541   -3.424968   -0.441979
     64          1           0       -5.108780   -1.723028   -0.837079
     65          6           0        4.281951    0.200608    2.780171
     66          1           0        4.372110   -0.780592    3.247141
     67          1           0        4.944401    0.878008    3.324521
     68          1           0        4.658771    0.131138    1.758421
     69          6           0       -3.486151   -3.517558    1.650301
     70          1           0       -4.164791   -4.374848    1.652971
     71          1           0       -3.214271   -3.326739    2.693591
     72          6           0       -3.238790   -1.072229    1.078141
     73          1           0       -3.764430   -0.213788    0.658771
     74          1           0       -2.987350   -0.824659    2.113961
     75          6           0        2.347390   -2.063011   -3.145529
     76          1           0        1.888619   -2.938701   -3.607799
     77          1           0        2.957570   -1.601161   -3.921229
     78          6           0        1.245980   -1.109021   -2.725519
     79          1           0        0.253160   -1.538700   -2.686329
     80          6           0        2.815412    2.169199    2.258311
     81          1           0        3.100812    2.187289    1.205551
     82          1           0        3.518252    2.799148    2.809041
     83          1           0        1.831632    2.631209    2.352161
     84          6           0        3.495040   -1.471832   -0.933609
     85          1           0        3.789660   -1.865862    0.033631
     86          6           0        2.538921    1.094639   -3.071259
     87          1           0        2.386892    2.093979   -2.657569
     88          1           0        2.605001    1.228679   -4.158179
     89          6           0        3.231179   -2.533132   -1.972329
     90          1           0        2.744889   -3.373731   -1.472209
     91          1           0        4.182649   -2.923312   -2.355039
     92          6           0        1.325781    0.265429   -2.732799
     93          1           0        0.389831    0.812440   -2.734799
 ---------------------------------------------------------------------

 SCF Done:  E(RB3LYP) =  -2123.02986228     A.U. after   16 cycles

      1  Rh   Isotropic =  -341.6964   Anisotropy =   393.6651

      2  P    Isotropic =   297.1724   Anisotropy =   148.4561

      3  P    Isotropic =   314.7149   Anisotropy =   111.3558

      4  C    Isotropic =   128.6689   Anisotropy =    47.3905

      5  C    Isotropic =   136.9718   Anisotropy =     8.3511

      6  H    Isotropic =    29.6812   Anisotropy =     7.5997

      7  H    Isotropic =    30.2477   Anisotropy =     7.2310

      8  C    Isotropic =   150.2850   Anisotropy =    48.3443

      9  H    Isotropic =    28.9019   Anisotropy =     5.6419

     10  H    Isotropic =    29.4169   Anisotropy =     6.8308

     11  C    Isotropic =   144.6081   Anisotropy =     7.8628

     12  H    Isotropic =    29.9630   Anisotropy =    10.2983

     13  H    Isotropic =    30.1262   Anisotropy =     7.4815

     14  C    Isotropic =   144.4668   Anisotropy =     7.6438

     15  H    Isotropic =    30.1895   Anisotropy =     7.7043

     16  H    Isotropic =    30.0136   Anisotropy =    10.2968

     17  C    Isotropic =   139.8925   Anisotropy =    26.2472

     18  C    Isotropic =   140.0264   Anisotropy =    14.1426

     19  H    Isotropic =    30.1869   Anisotropy =     7.9878

     20  H    Isotropic =    29.6814   Anisotropy =     7.5152

     21  C    Isotropic =   149.4592   Anisotropy =     6.7560

     22  H    Isotropic =    29.8314   Anisotropy =     9.9289

     23  C    Isotropic =   137.4562   Anisotropy =    16.2766

     24  H    Isotropic =    29.9137   Anisotropy =     8.1764

     25  H    Isotropic =    29.4167   Anisotropy =     9.3231

     26  C    Isotropic =   139.5932   Anisotropy =    12.1837

     27  H    Isotropic =    30.0690   Anisotropy =     4.9059

     28  H    Isotropic =    29.6508   Anisotropy =     8.5128

     29  C    Isotropic =   149.8923   Anisotropy =     7.1278

     30  H    Isotropic =    29.9401   Anisotropy =    10.2424

     31  C    Isotropic =   148.7248   Anisotropy =     9.0321

     32  H    Isotropic =    29.9069   Anisotropy =    10.8679

     33  C    Isotropic =   126.8977   Anisotropy =    50.0942

     34  C    Isotropic =   149.5436   Anisotropy =     7.4145

     35  H    Isotropic =    29.9105   Anisotropy =    10.8638

     36  C    Isotropic =   149.4658   Anisotropy =     7.5342

     37  H    Isotropic =    29.8644   Anisotropy =     9.5613

     38  C    Isotropic =   142.0223   Anisotropy =    11.6221

     39  H    Isotropic =    29.7964   Anisotropy =     7.9538

     40  H    Isotropic =    30.1117   Anisotropy =     4.9569

     41  C    Isotropic =    85.3480   Anisotropy =   113.7946

     42  H    Isotropic =    27.1522   Anisotropy =     6.4089

     43  C    Isotropic =   145.1240   Anisotropy =     7.4835

     44  H    Isotropic =    30.0974   Anisotropy =     7.2658

     45  H    Isotropic =    29.9880   Anisotropy =    10.2714

     46  C    Isotropic =   154.2838   Anisotropy =    25.0641

     47  H    Isotropic =    29.8171   Anisotropy =     9.9185

     48  H    Isotropic =    29.8468   Anisotropy =    11.4657

     49  C    Isotropic =   144.6000   Anisotropy =     5.4038

     50  H    Isotropic =    30.1372   Anisotropy =     8.4690

     51  H    Isotropic =    30.0281   Anisotropy =    10.4888

     52  C    Isotropic =   160.1598   Anisotropy =    40.1665

     53  H    Isotropic =    30.9631   Anisotropy =     6.8428

     54  H    Isotropic =    30.8233   Anisotropy =    11.2563

     55  H    Isotropic =    30.7982   Anisotropy =     8.9510

     56  C    Isotropic =   173.2779   Anisotropy =    22.8001

     57  H    Isotropic =    30.1496   Anisotropy =     8.4707

     58  H    Isotropic =    30.5864   Anisotropy =    10.1598

     59  H    Isotropic =    30.6202   Anisotropy =     8.7210

     60  C    Isotropic =   149.9405   Anisotropy =     6.9058

     61  H    Isotropic =    29.8865   Anisotropy =    10.4125

     62  C    Isotropic =   144.8440   Anisotropy =     5.9582

     63  H    Isotropic =    30.0155   Anisotropy =    10.5463

     64  H    Isotropic =    30.1655   Anisotropy =     8.2045

     65  C    Isotropic =   158.2153   Anisotropy =    40.7645

     66  H    Isotropic =    30.9207   Anisotropy =     8.4871

     67  H    Isotropic =    30.9046   Anisotropy =    11.2001

     68  H    Isotropic =    31.2802   Anisotropy =     6.4054

     69  C    Isotropic =   144.6764   Anisotropy =     6.1606

     70  H    Isotropic =    29.9797   Anisotropy =    10.5128

     71  H    Isotropic =    30.2378   Anisotropy =     8.1604

     72  C    Isotropic =   141.2206   Anisotropy =    14.4557

     73  H    Isotropic =    29.7666   Anisotropy =     8.9145

     74  H    Isotropic =    30.2274   Anisotropy =     3.6606

     75  C    Isotropic =   154.2834   Anisotropy =    25.1861

     76  H    Isotropic =    29.8490   Anisotropy =    11.1295

     77  H    Isotropic =    29.8442   Anisotropy =     9.6475

     78  C    Isotropic =    76.2040   Anisotropy =   126.1496

     79  H    Isotropic =    26.5456   Anisotropy =     5.6404

     80  C    Isotropic =   155.0361   Anisotropy =    38.7073

     81  H    Isotropic =    30.4938   Anisotropy =     6.0813

     82  H    Isotropic =    30.7407   Anisotropy =    10.1914

     83  H    Isotropic =    30.5492   Anisotropy =     7.6664

     84  C    Isotropic =    84.0965   Anisotropy =   107.8054

     85  H    Isotropic =    27.0439   Anisotropy =     4.5288

     86  C    Isotropic =   148.0657   Anisotropy =    28.6859

     87  H    Isotropic =    29.0821   Anisotropy =     6.7601

     88  H    Isotropic =    29.1278   Anisotropy =    12.3803

     89  C    Isotropic =   147.1527   Anisotropy =    30.4437

     90  H    Isotropic =    29.1126   Anisotropy =     7.1943

     91  H    Isotropic =    29.0911   Anisotropy =    12.9575

     92  C    Isotropic =    77.5031   Anisotropy =   115.7247

     93  H    Isotropic =    26.1461   Anisotropy =     4.1216

 The electronic state is 1-A.
 Alpha  occ. eigenvalues --  -77.23020 -77.22333 -10.31125 -10.30275 -10.30254
 Alpha  occ. eigenvalues --  -10.30009 -10.29107 -10.29023 -10.28910 -10.28909
 Alpha  occ. eigenvalues --  -10.28666 -10.27569 -10.27541 -10.27321 -10.27321
 Alpha  occ. eigenvalues --  -10.27013 -10.26928 -10.26906 -10.26888 -10.26725
 Alpha  occ. eigenvalues --  -10.26617 -10.26599 -10.26507 -10.26493 -10.26290
 Alpha  occ. eigenvalues --  -10.26129 -10.26072 -10.26064 -10.26062 -10.26044
 Alpha  occ. eigenvalues --  -10.24853 -10.24852 -10.24824 -10.24791 -10.24732
 Alpha  occ. eigenvalues --  -10.24710  -6.69053  -6.68277  -4.85341  -4.85251
 Alpha  occ. eigenvalues --   -4.84952  -4.84585  -4.84451  -4.84185  -3.31296
 Alpha  occ. eigenvalues --   -2.08144  -2.07526  -2.04757  -0.97191  -0.96734
 Alpha  occ. eigenvalues --   -0.94536  -0.93223  -0.89215  -0.89148  -0.88080
 Alpha  occ. eigenvalues --   -0.86743  -0.86645  -0.86422  -0.86308  -0.86240
 Alpha  occ. eigenvalues --   -0.86002  -0.82423  -0.80423  -0.79721  -0.79627
 Alpha  occ. eigenvalues --   -0.77880  -0.76733  -0.76598  -0.76283  -0.76182
 Alpha  occ. eigenvalues --   -0.72930  -0.70611  -0.70391  -0.68078  -0.67880
 Alpha  occ. eigenvalues --   -0.67849  -0.67630  -0.67427  -0.65989  -0.64560
 Alpha  occ. eigenvalues --   -0.63441  -0.62630  -0.61772  -0.61137  -0.60217
 Alpha  occ. eigenvalues --   -0.58009  -0.57308  -0.56525  -0.56320  -0.55800
 Alpha  occ. eigenvalues --   -0.55483  -0.55303  -0.55016  -0.54904  -0.54760
 Alpha  occ. eigenvalues --   -0.54604  -0.54461  -0.53989  -0.53731  -0.53691
 Alpha  occ. eigenvalues --   -0.52851  -0.52720  -0.52587  -0.52001  -0.51288
 Alpha  occ. eigenvalues --   -0.51202  -0.50829  -0.50568  -0.50464  -0.50345
 Alpha  occ. eigenvalues --   -0.49791  -0.49404  -0.49277  -0.48998  -0.48747
 Alpha  occ. eigenvalues --   -0.48591  -0.48232  -0.48127  -0.47804  -0.47570
 Alpha  occ. eigenvalues --   -0.46773  -0.46392  -0.46055  -0.45385  -0.45030
 Alpha  occ. eigenvalues --   -0.44376  -0.43675  -0.43500  -0.43294  -0.43190
 Alpha  occ. eigenvalues --   -0.42969  -0.42765  -0.42652  -0.42458  -0.42433
 Alpha  occ. eigenvalues --   -0.42356  -0.42122  -0.42092  -0.41609  -0.41383
 Alpha  occ. eigenvalues --   -0.41069  -0.39087  -0.37987  -0.37780  -0.37696
 Alpha  occ. eigenvalues --   -0.37614  -0.36416  -0.36257  -0.35778  -0.34553
 Alpha  occ. eigenvalues --   -0.34308  -0.33560  -0.30521
 Alpha virt. eigenvalues --   -0.15913  -0.14003  -0.09561  -0.08698  -0.08450
 Alpha virt. eigenvalues --   -0.07914  -0.07539  -0.06796  -0.06571  -0.05583
 Alpha virt. eigenvalues --   -0.04978  -0.04739  -0.04656  -0.04269  -0.04183

 Mulliken charges:
               1
     1  Rh  -0.459222
     2  P    0.478192
     3  P    0.393419
     4  C    0.030808
     5  C   -0.486538
     6  H    0.177032
     7  H    0.148407
     8  C   -0.628429
     9  H    0.190056
    10  H    0.206783
    11  C   -0.376143
    12  H    0.156950
    13  H    0.131922
    14  C   -0.375271
    15  H    0.131611
    16  H    0.156808
    17  C   -0.026863
    18  C   -0.401750
    19  H    0.115197
    20  H    0.176501
    21  C    0.045167
    22  H    0.183581
    23  C   -0.379594
    24  H    0.133708
    25  H    0.145706
    26  C   -0.433871
    27  H    0.162211
    28  H    0.154353
    29  C    0.010594
    30  H    0.186512
    31  C    0.033487
    32  H    0.187618
    33  C   -0.049841
    34  C    0.014661
    35  H    0.188309
    36  C    0.031257
    37  H    0.184868
    38  C   -0.370770
    39  H    0.174700
    40  H    0.136172
    41  C   -0.019649
    42  H    0.165237
    43  C   -0.375867
    44  H    0.133012
    45  H    0.157669
    46  C   -0.355074
    47  H    0.169503
    48  H    0.167415
    49  C   -0.379937
    50  H    0.136329
    51  H    0.156070
    52  C   -0.380175
    53  H    0.136387
    54  H    0.152928
    55  H    0.142987
    56  C   -0.496716
    57  H    0.186889
    58  H    0.167320
    59  H    0.163860
    60  C    0.011427
    61  H    0.188517
    62  C   -0.377947
    63  H    0.155852
    64  H    0.137302
    65  C   -0.419033
    66  H    0.151293
    67  H    0.155636
    68  H    0.147481
    69  C   -0.378709
    70  H    0.157986
    71  H    0.132224
    72  C   -0.370623
    73  H    0.146801
    74  H    0.149873
    75  C   -0.344887
    76  H    0.166805
    77  H    0.169249
    78  C   -0.030212
    79  H    0.208677
    80  C   -0.395558
    81  H    0.137844
    82  H    0.160602
    83  H    0.130981
    84  C   -0.079640
    85  H    0.173174
    86  C   -0.226579
    87  H    0.131092
    88  H    0.171203
    89  C   -0.227801
    90  H    0.132570
    91  H    0.169009
    92  C   -0.123325
    93  H    0.182231
 Sum of Mulliken charges =   1.00000

 Dipole moment (field-independent basis, Debye):
    X=              2.4346    Y=             -0.5166    Z=              1.6226  Tot=              2.9710
 Quadrupole moment (field-independent basis, Debye-Ang):
   XX=           -214.5542   YY=           -227.7430   ZZ=           -227.1035
   XY=             -0.9543   XZ=              2.3183   YZ=              0.4809

 Summary of Natural Population Analysis:

                                       Natural Population
                Natural  -----------------------------------------------
    Atom  No    Charge         Core      Valence    Rydberg      Total
 -----------------------------------------------------------------------
     Rh    1   -0.33858     35.98594     9.32768    0.02496    45.33858
      P    2    1.09785      9.99686     3.85672    0.04857    13.90215
      P    3    1.10588      9.99685     3.85028    0.04699    13.89412
      C    4   -0.24033      1.99932     4.21674    0.02427     6.24033
      C    5   -0.41295      1.99931     4.39941    0.01423     6.41295
      H    6    0.21336      0.00000     0.78447    0.00216     0.78664
      H    7    0.19523      0.00000     0.80177    0.00300     0.80477
      C    8   -1.01720      1.99939     4.99885    0.01895     7.01720
      H    9    0.25575      0.00000     0.74169    0.00256     0.74425
      H   10    0.25295      0.00000     0.74457    0.00248     0.74705
      C   11   -0.39099      1.99936     4.38144    0.01019     6.39099
      H   12    0.21218      0.00000     0.78609    0.00173     0.78782
      H   13    0.20005      0.00000     0.79840    0.00155     0.79995
      C   14   -0.39124      1.99936     4.38162    0.01026     6.39124
      H   15    0.19924      0.00000     0.79916    0.00160     0.80076
      H   16    0.21230      0.00000     0.78596    0.00174     0.78770
      C   17   -0.26213      1.99944     4.24618    0.01651     6.26213
      C   18   -0.40815      1.99929     4.39671    0.01215     6.40815
      H   19    0.20027      0.00000     0.79752    0.00220     0.79973
      H   20    0.20730      0.00000     0.79053    0.00217     0.79270
      C   21   -0.20355      1.99938     4.19163    0.01255     6.20355
      H   22    0.21116      0.00000     0.78724    0.00160     0.78884
      C   23   -0.40958      1.99931     4.39638    0.01389     6.40958
      H   24    0.19740      0.00000     0.79953    0.00307     0.80260
      H   25    0.21238      0.00000     0.78485    0.00278     0.78762
      C   26   -0.41133      1.99929     4.39940    0.01264     6.41133
      H   27    0.20160      0.00000     0.79639    0.00202     0.79840
      H   28    0.20252      0.00000     0.79492    0.00257     0.79748
      C   29   -0.20650      1.99938     4.19412    0.01299     6.20650
      H   30    0.21739      0.00000     0.78090    0.00171     0.78261
      C   31   -0.20516      1.99938     4.19277    0.01301     6.20516
      H   32    0.21787      0.00000     0.78043    0.00170     0.78213
      C   33   -0.23268      1.99933     4.20999    0.02337     6.23268
      C   34   -0.20640      1.99938     4.19409    0.01292     6.20640
      H   35    0.21814      0.00000     0.78017    0.00169     0.78186
      C   36   -0.20454      1.99938     4.19267    0.01249     6.20454
      H   37    0.21128      0.00000     0.78713    0.00159     0.78872
      C   38   -0.41379      1.99929     4.40129    0.01321     6.41379
      H   39    0.20828      0.00000     0.78954    0.00218     0.79172
      H   40    0.19538      0.00000     0.80222    0.00240     0.80462
      C   41   -0.18129      1.99909     4.16257    0.01963     6.18129
      H   42    0.21811      0.00000     0.77960    0.00230     0.78189
      C   43   -0.39093      1.99936     4.38139    0.01019     6.39093
      H   44    0.19968      0.00000     0.79875    0.00157     0.80032
      H   45    0.21236      0.00000     0.78592    0.00172     0.78764
      C   46   -0.42174      1.99935     4.41041    0.01198     6.42174
      H   47    0.21574      0.00000     0.78237    0.00189     0.78426
      H   48    0.22757      0.00000     0.77096    0.00147     0.77243
      C   49   -0.39193      1.99936     4.38241    0.01016     6.39193
      H   50    0.20213      0.00000     0.79628    0.00159     0.79787
      H   51    0.21237      0.00000     0.78589    0.00174     0.78763
      C   52   -0.60689      1.99936     4.59872    0.00881     6.60689
      H   53    0.20698      0.00000     0.79139    0.00163     0.79302
      H   54    0.22525      0.00000     0.77305    0.00171     0.77475
      H   55    0.20907      0.00000     0.78927    0.00166     0.79093
      C   56   -0.90671      1.99941     4.89675    0.01055     6.90671
      H   57    0.24579      0.00000     0.75298    0.00124     0.75421
      H   58    0.23419      0.00000     0.76358    0.00223     0.76581
      H   59    0.23968      0.00000     0.75896    0.00136     0.76032
      C   60   -0.20722      1.99938     4.19481    0.01303     6.20722
      H   61    0.21776      0.00000     0.78054    0.00170     0.78224
      C   62   -0.39175      1.99936     4.38226    0.01013     6.39175
      H   63    0.21228      0.00000     0.78599    0.00173     0.78772
      H   64    0.20210      0.00000     0.79631    0.00159     0.79790
      C   65   -0.60376      1.99936     4.59631    0.00810     6.60376
      H   66    0.21015      0.00000     0.78835    0.00150     0.78985
      H   67    0.22505      0.00000     0.77319    0.00176     0.77495
      H   68    0.20800      0.00000     0.79043    0.00157     0.79200
      C   69   -0.39148      1.99936     4.38187    0.01025     6.39148
      H   70    0.21284      0.00000     0.78544    0.00172     0.78716
      H   71    0.20040      0.00000     0.79801    0.00158     0.79960
      C   72   -0.41371      1.99929     4.40085    0.01357     6.41371
      H   73    0.20221      0.00000     0.79526    0.00253     0.79779
      H   74    0.20073      0.00000     0.79691    0.00236     0.79927
      C   75   -0.42357      1.99935     4.41231    0.01190     6.42357
      H   76    0.22798      0.00000     0.77060    0.00142     0.77202
      H   77    0.21571      0.00000     0.78241    0.00188     0.78429
      C   78   -0.17179      1.99908     4.15316    0.01955     6.17179
      H   79    0.22081      0.00000     0.77691    0.00228     0.77919
      C   80   -0.59868      1.99936     4.59139    0.00793     6.59868
      H   81    0.21698      0.00000     0.78152    0.00150     0.78302
      H   82    0.22208      0.00000     0.77611    0.00181     0.77792
      H   83    0.20247      0.00000     0.79586    0.00166     0.79753
      C   84   -0.16756      1.99910     4.14900    0.01946     6.16756
      H   85    0.21795      0.00000     0.78005    0.00199     0.78205
      C   86   -0.41701      1.99934     4.40506    0.01261     6.41701
      H   87    0.21511      0.00000     0.78314    0.00175     0.78489
      H   88    0.23302      0.00000     0.76512    0.00185     0.76698
      C   89   -0.41454      1.99935     4.40270    0.01249     6.41454
      H   90    0.21597      0.00000     0.78238    0.00165     0.78403
      H   91    0.23224      0.00000     0.76596    0.00180     0.76776
      C   92   -0.17197      1.99909     4.15297    0.01991     6.17197
      H   93    0.22110      0.00000     0.77649    0.00240     0.77890
 =======================================================================
   * Total *    1.00000    123.95660   209.35237    0.69103   334.00000

 Normal termination of Gaussian 16 at Tue Nov  5 15:46:49 2024.
