 Gaussian 16, Revision B.01,
 Gaussian 16:  ES64L-G16RevB.01 20-Dec-2017

 ------------------------------------------
 # nmr=giao b3lyp/genecp pop=nbo scfcyc=200
 ------------------------------------------

 -------------
 Ligand 34 SPE
 -------------
 Symbolic Z-matrix:
 Charge =  1 Multiplicity = 1

                         Standard orientation:
 ---------------------------------------------------------------------
 Center     Atomic      Atomic             Coordinates (Angstroms)
 Number     Number       Type             X           Y           Z
 ---------------------------------------------------------------------
      1         15           0       -0.346339   -0.107780   -0.215270
      2         15           0        2.129581   -0.865090   -0.532960
      3          8           0       -1.404119    0.100210   -1.462350
      4          8           0       -1.359759   -0.501030    1.017780
      5          8           0        3.013201   -1.953780    0.330340
      6          8           0        2.778211   -1.152410   -2.006840
      7          7           0        0.537241   -1.467150   -0.749520
      8          6           0       -2.477079    0.983449   -1.253480
      9          6           0       -2.417159    2.223119   -1.914000
     10          1           0       -1.580269    2.426860   -2.569000
     11          6           0       -3.427410    3.127059   -1.729670
     12          1           0       -3.408310    4.079339   -2.245790
     13          6           0       -4.499310    2.843589   -0.848290
     14          6           0       -5.509120    3.804389   -0.592170
     15          1           0       -5.465000    4.754599   -1.111170
     16          6           0       -6.514260    3.547699    0.302980
     17          1           0       -7.277880    4.290589    0.495190
     18          6           0       -6.545299    2.315769    0.988130
     19          1           0       -7.326939    2.126809    1.713250
     20          6           0       -5.594339    1.355579    0.749230
     21          1           0       -5.634159    0.420009    1.288110
     22          6           0       -4.552499    1.575019   -0.187190
     23          6           0       -3.535169    0.596969   -0.458590
     24          6           0       -3.580499   -0.781131    0.100390
     25          6           0       -4.694029   -1.662301   -0.127120
     26          6           0       -5.756649   -1.340301   -1.009030
     27          1           0       -5.738859   -0.400191   -1.540890
     28          6           0       -6.800409   -2.209061   -1.207750
     29          1           0       -7.595379   -1.942721   -1.893010
     30          6           0       -6.846869   -3.447121   -0.535080
     31          1           0       -7.681668   -4.117251   -0.696050
     32          6           0       -5.825818   -3.803091    0.306370
     33          1           0       -5.839808   -4.760621    0.813410
     34          6           0       -4.723329   -2.938671    0.519460
     35          6           0       -3.637229   -3.329091    1.339800
     36          1           0       -3.674148   -4.288261    1.841840
     37          6           0       -2.542969   -2.521111    1.479820
     38          1           0       -1.694129   -2.814930    2.082680
     39          6           0       -2.521739   -1.272161    0.834360
     40          6           0        3.190651   -1.911590    1.717550
     41          6           0        2.111801   -1.948370    2.591960
     42          1           0        1.099791   -1.981510    2.213120
     43          6           0        2.355051   -1.958370    3.963480
     44          1           0        1.519301   -1.991530    4.651090
     45          6           0        4.727311   -1.914899    3.558290
     46          1           0        5.744441   -1.912349    3.929110
     47          6           0        4.498321   -1.897089    2.186760
     48          1           0        5.318151   -1.881099    1.480710
     49          6           0        4.076841   -0.762470   -2.376560
     50          6           0        4.222281    0.384380   -3.145850
     51          1           0        3.348431    0.965930   -3.409960
     52          6           0        5.492761    0.746381   -3.583340
     53          1           0        5.616311    1.633771   -4.191170
     54          6           0        6.427971   -1.189219   -2.495830
     55          1           0        7.281931   -1.809549   -2.254820
     56          6           0        5.162851   -1.564169   -2.052430
     57          1           0        5.013301   -2.466559   -1.476140
     58          6           0        0.016121   -2.714480   -1.403590
     59          1           0       -1.019699   -2.785080   -1.067520
     60          6           0        0.763072   -3.949990   -0.906660
     61          1           0        0.730312   -4.031790    0.180140
     62          1           0        1.807242   -3.941280   -1.221120
     63          1           0        0.295092   -4.840810   -1.328000
     64          6           0        0.023341   -2.596920   -2.927950
     65          1           0       -0.522929   -1.712630   -3.254210
     66          1           0       -0.462079   -3.475050   -3.358270
     67          1           0        1.041031   -2.543390   -3.313480
     68         45           0        1.468301    1.171890    0.315730
     69          6           0        3.355091    1.975270    1.396990
     70          6           0        3.359091    2.442040    0.104440
     71          6           0        0.586440    3.272780    0.666690
     72          6           0        0.500291    2.554370    1.838040
     73          1           0        3.908011    1.063300    1.593100
     74          6           0        2.941900    2.761360    2.625750
     75          1           0        3.946851    1.888470   -0.621000
     76          6           0        2.875570    3.786160   -0.378310
     77          6           0        1.625460    4.330840    0.346930
     78          1           0       -0.290390    3.269530    0.027900
     79          1           0       -0.444119    2.063080    2.049290
     80          6           0        1.454591    2.593880    3.004300
     81          1           0        3.184040    3.814190    2.485080
     82          1           0        3.547851    2.421680    3.466950
     83          1           0        3.692190    4.515040   -0.303510
     84          1           0        2.657950    3.695220   -1.444660
     85          1           0        1.161530    5.083400   -0.292600
     86          1           0        1.911960    4.850160    1.260760
     87          1           0        1.155870    3.396360    3.690350
     88          1           0        1.331471    1.663560    3.562140
     89          6           0        6.596171   -0.036539   -3.257090
     90          1           0        7.581871    0.244251   -3.604780
     91          6           0        3.657811   -1.942670    4.449540
     92          1           0        3.840051   -1.961140    5.516190
 ---------------------------------------------------------------------

 SCF Done:  E(RB3LYP) =  -2812.87712735     A.U. after   20 cycles

      1  P    Isotropic =   156.3359   Anisotropy =   189.7585

      2  P    Isotropic =   164.5103   Anisotropy =   202.2592

      3  O    Isotropic =   139.1659   Anisotropy =    73.4557

      4  O    Isotropic =   133.9339   Anisotropy =    59.6698

      5  O    Isotropic =   127.3956   Anisotropy =   104.7983

      6  O    Isotropic =   136.2322   Anisotropy =    84.5914

      7  N    Isotropic =    47.2350   Anisotropy =    76.5576

      8  C    Isotropic =    29.5303   Anisotropy =   104.1523

      9  C    Isotropic =    61.0838   Anisotropy =   146.5305

     10  H    Isotropic =    24.1964   Anisotropy =     7.6303

     11  C    Isotropic =    46.9728   Anisotropy =   164.3322

     12  H    Isotropic =    23.6178   Anisotropy =     7.5554

     13  C    Isotropic =    45.5543   Anisotropy =   212.9193

     14  C    Isotropic =    50.7183   Anisotropy =   165.1359

     15  H    Isotropic =    23.6810   Anisotropy =     7.6311

     16  C    Isotropic =    51.5165   Anisotropy =   187.0190

     17  H    Isotropic =    24.0212   Anisotropy =     4.3693

     18  C    Isotropic =    50.3404   Anisotropy =   187.6854

     19  H    Isotropic =    24.2474   Anisotropy =     7.8066

     20  C    Isotropic =    51.6679   Anisotropy =   180.0048

     21  H    Isotropic =    24.4844   Anisotropy =    14.5859

     22  C    Isotropic =    44.4129   Anisotropy =   203.6418

     23  C    Isotropic =    52.6577   Anisotropy =   139.5522

     24  C    Isotropic =    54.7141   Anisotropy =   138.6761

     25  C    Isotropic =    44.6898   Anisotropy =   202.7932

     26  C    Isotropic =    51.6484   Anisotropy =   179.1561

     27  H    Isotropic =    24.5040   Anisotropy =    14.9574

     28  C    Isotropic =    50.1836   Anisotropy =   187.5583

     29  H    Isotropic =    24.2296   Anisotropy =     7.9744

     30  C    Isotropic =    51.4320   Anisotropy =   186.6104

     31  H    Isotropic =    24.0032   Anisotropy =     4.3313

     32  C    Isotropic =    50.3754   Anisotropy =   164.8235

     33  H    Isotropic =    23.6242   Anisotropy =     7.7250

     34  C    Isotropic =    45.6488   Anisotropy =   212.9655

     35  C    Isotropic =    46.6058   Anisotropy =   164.5114

     36  H    Isotropic =    23.5252   Anisotropy =     7.8530

     37  C    Isotropic =    62.2154   Anisotropy =   144.0125

     38  H    Isotropic =    24.0493   Anisotropy =     7.9846

     39  C    Isotropic =    26.6127   Anisotropy =   107.8651

     40  C    Isotropic =    24.0479   Anisotropy =   117.0454

     41  C    Isotropic =    59.3382   Anisotropy =   159.2269

     42  H    Isotropic =    23.9192   Anisotropy =     6.3088

     43  C    Isotropic =    49.0585   Anisotropy =   186.8713

     44  H    Isotropic =    24.0256   Anisotropy =     7.0265

     45  C    Isotropic =    47.1681   Anisotropy =   189.9185

     46  H    Isotropic =    24.2176   Anisotropy =     5.0209

     47  C    Isotropic =    58.0644   Anisotropy =   156.7989

     48  H    Isotropic =    24.6473   Anisotropy =     8.1529

     49  C    Isotropic =    24.9207   Anisotropy =   111.2581

     50  C    Isotropic =    57.6528   Anisotropy =   154.4938

     51  H    Isotropic =    24.3183   Anisotropy =     7.9413

     52  C    Isotropic =    48.2819   Anisotropy =   187.2787

     53  H    Isotropic =    24.1451   Anisotropy =     6.2749

     54  C    Isotropic =    47.8836   Anisotropy =   188.0179

     55  H    Isotropic =    24.1077   Anisotropy =     5.8412

     56  C    Isotropic =    56.2608   Anisotropy =   161.1602

     57  H    Isotropic =    24.0265   Anisotropy =    10.0544

     58  C    Isotropic =   120.9773   Anisotropy =    54.8845

     59  H    Isotropic =    28.7202   Anisotropy =     9.8555

     60  C    Isotropic =   161.1796   Anisotropy =    31.4937

     61  H    Isotropic =    30.1791   Anisotropy =     4.5799

     62  H    Isotropic =    30.0657   Anisotropy =     5.6656

     63  H    Isotropic =    30.8413   Anisotropy =    10.8915

     64  C    Isotropic =   158.5531   Anisotropy =    37.6856

     65  H    Isotropic =    30.0789   Anisotropy =     4.2469

     66  H    Isotropic =    31.1578   Anisotropy =    10.7032

     67  H    Isotropic =    30.0239   Anisotropy =     5.5302

     68  Rh   Isotropic =  -274.8359   Anisotropy =   336.9494

     69  C    Isotropic =    72.2885   Anisotropy =   134.7336

     70  C    Isotropic =    73.2283   Anisotropy =   124.8878

     71  C    Isotropic =    75.4081   Anisotropy =   127.7486

     72  C    Isotropic =    70.7327   Anisotropy =   128.6998

     73  H    Isotropic =    27.8235   Anisotropy =     6.6560

     74  C    Isotropic =   154.8964   Anisotropy =    24.1492

     75  H    Isotropic =    26.5838   Anisotropy =     6.8765

     76  C    Isotropic =   148.5854   Anisotropy =    29.5828

     77  C    Isotropic =   154.7861   Anisotropy =    24.2503

     78  H    Isotropic =    27.1516   Anisotropy =     9.5303

     79  H    Isotropic =    26.4819   Anisotropy =     3.0792

     80  C    Isotropic =   148.8998   Anisotropy =    29.1682

     81  H    Isotropic =    30.2826   Anisotropy =     9.5969

     82  H    Isotropic =    30.7781   Anisotropy =    10.3528

     83  H    Isotropic =    29.4276   Anisotropy =    12.4585

     84  H    Isotropic =    29.2909   Anisotropy =     7.1455

     85  H    Isotropic =    30.1018   Anisotropy =    11.4225

     86  H    Isotropic =    30.0700   Anisotropy =     9.2742

     87  H    Isotropic =    29.6951   Anisotropy =    12.0463

     88  H    Isotropic =    29.8423   Anisotropy =     7.1533

     89  C    Isotropic =    50.4369   Anisotropy =   190.1048

     90  H    Isotropic =    24.2273   Anisotropy =     3.8094

     91  C    Isotropic =    51.7720   Anisotropy =   189.2378

     92  H    Isotropic =    24.2940   Anisotropy =     4.0537

 The electronic state is 1-A.
 Alpha  occ. eigenvalues --  -77.32947 -77.32731 -19.27454 -19.27411 -19.27357
 Alpha  occ. eigenvalues --  -19.27213 -14.45362 -10.34023 -10.33762 -10.33746
 Alpha  occ. eigenvalues --  -10.33647 -10.31622 -10.29927 -10.29891 -10.29815
 Alpha  occ. eigenvalues --  -10.29655 -10.28873 -10.28782 -10.28238 -10.28047
 Alpha  occ. eigenvalues --  -10.28023 -10.27979 -10.27905 -10.27884 -10.27611
 Alpha  occ. eigenvalues --  -10.27448 -10.27373 -10.27311 -10.27278 -10.27266
 Alpha  occ. eigenvalues --  -10.27237 -10.27237 -10.27209 -10.27142 -10.27072
 Alpha  occ. eigenvalues --  -10.27068 -10.27012 -10.26917 -10.26715 -10.26445
 Alpha  occ. eigenvalues --  -10.25885 -10.25737 -10.25707 -10.25672 -10.25580
 Alpha  occ. eigenvalues --  -10.25575 -10.25510 -10.25391 -10.25224 -10.24356
 Alpha  occ. eigenvalues --   -6.77707  -6.77534  -4.94058  -4.94056  -4.93925
 Alpha  occ. eigenvalues --   -4.93872  -4.93602  -4.93399  -3.33181  -2.10350
 Alpha  occ. eigenvalues --   -2.09464  -2.06361  -1.19501  -1.18931  -1.15358
 Alpha  occ. eigenvalues --   -1.15169  -1.03299  -0.97906  -0.96344  -0.95724
 Alpha  occ. eigenvalues --   -0.95291  -0.95195  -0.92142  -0.91171  -0.90012
 Alpha  occ. eigenvalues --   -0.89150  -0.88691  -0.88469  -0.85655  -0.85155
 Alpha  occ. eigenvalues --   -0.85078  -0.84749  -0.84049  -0.83784  -0.83152
 Alpha  occ. eigenvalues --   -0.82393  -0.81074  -0.80268  -0.78551  -0.78147
 Alpha  occ. eigenvalues --   -0.77620  -0.76164  -0.72897  -0.72100  -0.71763
 Alpha  occ. eigenvalues --   -0.71567  -0.71259  -0.70933  -0.70849  -0.70706
 Alpha  occ. eigenvalues --   -0.69986  -0.68439  -0.66799  -0.66679  -0.66449
 Alpha  occ. eigenvalues --   -0.64623  -0.64566  -0.63127  -0.62725  -0.61975
 Alpha  occ. eigenvalues --   -0.61421  -0.61128  -0.60636  -0.60108  -0.59419
 Alpha  occ. eigenvalues --   -0.59195  -0.58510  -0.58139  -0.57438  -0.57173
 Alpha  occ. eigenvalues --   -0.56892  -0.56803  -0.56288  -0.56030  -0.55255
 Alpha  occ. eigenvalues --   -0.54567  -0.54304  -0.54203  -0.54090  -0.53864
 Alpha  occ. eigenvalues --   -0.53805  -0.53259  -0.53243  -0.53004  -0.52884
 Alpha  occ. eigenvalues --   -0.52655  -0.52521  -0.52127  -0.51581  -0.51442
 Alpha  occ. eigenvalues --   -0.51254  -0.50820  -0.50702  -0.50190  -0.49261
 Alpha  occ. eigenvalues --   -0.48557  -0.48513  -0.48324  -0.48243  -0.48166
 Alpha  occ. eigenvalues --   -0.47539  -0.47264  -0.47224  -0.46900  -0.46663
 Alpha  occ. eigenvalues --   -0.46515  -0.46053  -0.45921  -0.45423  -0.45410
 Alpha  occ. eigenvalues --   -0.45227  -0.44946  -0.44411  -0.44075  -0.43848
 Alpha  occ. eigenvalues --   -0.43739  -0.43732  -0.43379  -0.43258  -0.43023
 Alpha  occ. eigenvalues --   -0.42676  -0.41867  -0.41756  -0.41247  -0.40965
 Alpha  occ. eigenvalues --   -0.39559  -0.38616  -0.38530  -0.38113  -0.37134
 Alpha  occ. eigenvalues --   -0.36920  -0.35863  -0.35697  -0.35352  -0.35271
 Alpha  occ. eigenvalues --   -0.34245  -0.34197  -0.33663  -0.33289  -0.32041
 Alpha  occ. eigenvalues --   -0.31163  -0.30319
 Alpha virt. eigenvalues --   -0.17135  -0.15463  -0.14588  -0.13014  -0.11458
 Alpha virt. eigenvalues --   -0.11006  -0.10875  -0.10670  -0.10533  -0.10364
 Alpha virt. eigenvalues --   -0.10055  -0.08909  -0.07479  -0.07141  -0.06409

 Mulliken charges:
               1
     1  P    0.783566
     2  P    0.667004
     3  O   -0.306533
     4  O   -0.318261
     5  O   -0.330727
     6  O   -0.320601
     7  N   -0.432486
     8  C    0.103842
     9  C   -0.225235
    10  H    0.134937
    11  C   -0.130105
    12  H    0.119370
    13  C    0.024847
    14  C   -0.140717
    15  H    0.116935
    16  C   -0.083112
    17  H    0.125396
    18  C   -0.070826
    19  H    0.124168
    20  C   -0.111870
    21  H    0.154548
    22  C    0.013376
    23  C   -0.006858
    24  C    0.034833
    25  C   -0.002966
    26  C   -0.113987
    27  H    0.155731
    28  C   -0.071546
    29  H    0.123653
    30  C   -0.082377
    31  H    0.125371
    32  C   -0.142456
    33  H    0.118223
    34  C    0.034449
    35  C   -0.162400
    36  H    0.121781
    37  C   -0.145627
    38  H    0.127857
    39  C    0.096776
    40  C    0.102976
    41  C   -0.077481
    42  H    0.157934
    43  C   -0.178592
    44  H    0.131531
    45  C   -0.116576
    46  H    0.135910
    47  C   -0.142384
    48  H    0.144447
    49  C    0.094520
    50  C   -0.175771
    51  H    0.141474
    52  C   -0.091718
    53  H    0.133157
    54  C   -0.099003
    55  H    0.136044
    56  C   -0.120594
    57  H    0.150983
    58  C    0.045459
    59  H    0.163412
    60  C   -0.375854
    61  H    0.132857
    62  H    0.145488
    63  H    0.149087
    64  C   -0.372847
    65  H    0.143945
    66  H    0.142090
    67  H    0.140112
    68  Rh  -0.632411
    69  C   -0.003829
    70  C   -0.115234
    71  C   -0.033018
    72  C   -0.093154
    73  H    0.211185
    74  C   -0.356976
    75  H    0.234332
    76  C   -0.231120
    77  C   -0.350565
    78  H    0.227263
    79  H    0.198249
    80  C   -0.224115
    81  H    0.167208
    82  H    0.173767
    83  H    0.178152
    84  H    0.136935
    85  H    0.172121
    86  H    0.168422
    87  H    0.177924
    88  H    0.146480
    89  C   -0.096715
    90  H    0.136798
    91  C   -0.077344
    92  H    0.137066
 Sum of Mulliken charges =   1.00000

 Dipole moment (field-independent basis, Debye):
    X=              2.9493    Y=              2.6525    Z=              1.6680  Tot=              4.3031
 Quadrupole moment (field-independent basis, Debye-Ang):
   XX=           -220.4534   YY=           -268.1296   ZZ=           -294.1334
   XY=              8.0652   XZ=              2.1583   YZ=             -6.8153

 Summary of Natural Population Analysis:

                                       Natural Population
                Natural  -----------------------------------------------
    Atom  No    Charge         Core      Valence    Rydberg      Total
 -----------------------------------------------------------------------
      P    1    1.87055      9.99540     3.03311    0.10094    13.12945
      P    2    1.86485      9.99551     3.04031    0.09933    13.13515
      O    3   -0.74178      1.99979     6.72824    0.01375     8.74178
      O    4   -0.75235      1.99979     6.73897    0.01358     8.75235
      O    5   -0.75009      1.99977     6.73508    0.01525     8.75009
      O    6   -0.74767      1.99977     6.73248    0.01541     8.74767
      N    7   -1.04650      1.99958     6.02349    0.02343     8.04650
      C    8    0.25288      1.99861     3.72591    0.02259     5.74712
      C    9   -0.24833      1.99906     4.23409    0.01518     6.24833
      H   10    0.22717      0.00000     0.77118    0.00165     0.77283
      C   11   -0.14859      1.99914     4.13566    0.01379     6.14859
      H   12    0.21813      0.00000     0.78048    0.00139     0.78187
      C   13   -0.06449      1.99910     4.04943    0.01596     6.06449
      C   14   -0.17070      1.99914     4.15759    0.01397     6.17070
      H   15    0.21390      0.00000     0.78464    0.00145     0.78610
      C   16   -0.19414      1.99920     4.18015    0.01480     6.19414
      H   17    0.22020      0.00000     0.77862    0.00118     0.77980
      C   18   -0.18408      1.99920     4.17009    0.01479     6.18408
      H   19    0.21917      0.00000     0.77964    0.00119     0.78083
      C   20   -0.18803      1.99913     4.17481    0.01409     6.18803
      H   21    0.22194      0.00000     0.77635    0.00172     0.77806
      C   22   -0.03235      1.99904     4.01682    0.01650     6.03235
      C   23   -0.06030      1.99887     4.04214    0.01929     6.06030
      C   24   -0.06819      1.99887     4.04947    0.01986     6.06819
      C   25   -0.03067      1.99904     4.01487    0.01676     6.03067
      C   26   -0.18909      1.99913     4.17603    0.01393     6.18909
      H   27    0.22118      0.00000     0.77706    0.00176     0.77882
      C   28   -0.18318      1.99920     4.16918    0.01480     6.18318
      H   29    0.21907      0.00000     0.77975    0.00118     0.78093
      C   30   -0.19442      1.99920     4.18041    0.01482     6.19442
      H   31    0.22034      0.00000     0.77851    0.00115     0.77966
      C   32   -0.17011      1.99915     4.15674    0.01423     6.17011
      H   33    0.21429      0.00000     0.78409    0.00162     0.78571
      C   34   -0.06522      1.99909     4.05016    0.01597     6.06522
      C   35   -0.14609      1.99915     4.13281    0.01414     6.14609
      H   36    0.21908      0.00000     0.77937    0.00154     0.78092
      C   37   -0.24771      1.99906     4.23314    0.01551     6.24771
      H   38    0.22290      0.00000     0.77542    0.00168     0.77710
      C   39    0.25948      1.99860     3.71840    0.02352     5.74052
      C   40    0.25505      1.99867     3.72342    0.02285     5.74495
      C   41   -0.25566      1.99905     4.24210    0.01451     6.25566
      H   42    0.22174      0.00000     0.77609    0.00217     0.77826
      C   43   -0.18502      1.99921     4.17081    0.01499     6.18502
      H   44    0.21921      0.00000     0.77959    0.00121     0.78079
      C   45   -0.18226      1.99922     4.16836    0.01468     6.18226
      H   46    0.22228      0.00000     0.77656    0.00116     0.77772
      C   47   -0.24241      1.99906     4.22823    0.01512     6.24241
      H   48    0.22608      0.00000     0.77199    0.00193     0.77392
      C   49    0.24072      1.99867     3.73807    0.02255     5.75928
      C   50   -0.24660      1.99906     4.23254    0.01500     6.24660
      H   51    0.22384      0.00000     0.77443    0.00174     0.77616
      C   52   -0.18715      1.99921     4.17323    0.01470     6.18715
      H   53    0.22043      0.00000     0.77839    0.00117     0.77957
      C   54   -0.18404      1.99922     4.17003    0.01480     6.18404
      H   55    0.22134      0.00000     0.77750    0.00116     0.77866
      C   56   -0.24117      1.99905     4.22775    0.01437     6.24117
      H   57    0.23128      0.00000     0.76694    0.00179     0.76872
      C   58   -0.03775      1.99938     4.01738    0.02100     6.03775
      H   59    0.21017      0.00000     0.78711    0.00272     0.78983
      C   60   -0.60176      1.99942     4.59431    0.00803     6.60176
      H   61    0.21076      0.00000     0.78794    0.00129     0.78924
      H   62    0.21377      0.00000     0.78467    0.00156     0.78623
      H   63    0.22344      0.00000     0.77552    0.00104     0.77656
      C   64   -0.60449      1.99941     4.59740    0.00768     6.60449
      H   65    0.22081      0.00000     0.77796    0.00123     0.77919
      H   66    0.21683      0.00000     0.78215    0.00102     0.78317
      H   67    0.21799      0.00000     0.78064    0.00137     0.78201
     Rh   68   -0.54765     35.98377     9.53421    0.02967    45.54765
      C   69   -0.15770      1.99909     4.13858    0.02003     6.15770
      C   70   -0.16277      1.99910     4.14281    0.02086     6.16277
      C   71   -0.17330      1.99906     4.15411    0.02012     6.17330
      C   72   -0.14465      1.99907     4.12515    0.02043     6.14465
      H   73    0.23551      0.00000     0.76211    0.00239     0.76449
      C   74   -0.42507      1.99936     4.41340    0.01231     6.42507
      H   75    0.23814      0.00000     0.75962    0.00224     0.76186
      C   76   -0.42359      1.99935     4.41137    0.01287     6.42359
      C   77   -0.42467      1.99936     4.41371    0.01160     6.42467
      H   78    0.23467      0.00000     0.76286    0.00247     0.76533
      H   79    0.23888      0.00000     0.75936    0.00177     0.76112
      C   80   -0.42467      1.99935     4.41286    0.01245     6.42467
      H   81    0.21214      0.00000     0.78566    0.00220     0.78786
      H   82    0.23323      0.00000     0.76531    0.00146     0.76677
      H   83    0.23776      0.00000     0.76046    0.00178     0.76224
      H   84    0.22127      0.00000     0.77731    0.00142     0.77873
      H   85    0.23075      0.00000     0.76780    0.00145     0.76925
      H   86    0.21604      0.00000     0.78210    0.00186     0.78396
      H   87    0.23738      0.00000     0.76080    0.00182     0.76262
      H   88    0.22679      0.00000     0.77170    0.00151     0.77321
      C   89   -0.20271      1.99921     4.18871    0.01479     6.20271
      H   90    0.22233      0.00000     0.77653    0.00115     0.77767
      C   91   -0.20877      1.99921     4.19469    0.01487     6.20877
      H   92    0.22222      0.00000     0.77663    0.00116     0.77778
 =======================================================================
   * Total *    1.00000    151.93516   259.00362    1.06123   412.00000

 Normal termination of Gaussian 16 at Tue Nov  5 15:47:52 2024.
