 Gaussian 16, Revision B.01,
 Gaussian 16:  ES64L-G16RevB.01 20-Dec-2017

 ------------------------------------------
 # nmr=giao b3lyp/genecp pop=nbo scfcyc=200
 ------------------------------------------

 -------------
 Ligand 35 SPE
 -------------
 Symbolic Z-matrix:
 Charge =  1 Multiplicity = 1

                         Standard orientation:
 ---------------------------------------------------------------------
 Center     Atomic      Atomic             Coordinates (Angstroms)
 Number     Number       Type             X           Y           Z
 ---------------------------------------------------------------------
      1         15           0       -0.569979   -0.014321   -0.279300
      2         15           0        1.916741   -0.650271   -0.750720
      3          8           0       -1.615209    0.508179   -1.443210
      4          8           0       -1.597419   -0.719011    0.794090
      5          8           0        2.794481   -1.921721   -0.185680
      6          8           0        2.582761   -0.540671   -2.239440
      7          7           0        0.330091   -1.182151   -1.137310
      8          6           0       -2.695359    1.303139   -1.025300
      9          6           0       -2.634709    2.672719   -1.337470
     10          1           0       -1.790579    3.042709   -1.904460
     11          6           0       -3.652449    3.494499   -0.936860
     12          1           0       -3.632399    4.548769   -1.185300
     13          6           0       -4.733809    2.987589   -0.175360
     14          6           0       -5.752549    3.845360    0.309260
     15          1           0       -5.707469    4.898409    0.057680
     16          6           0       -6.767469    3.360900    1.092040
     17          1           0       -7.537879    4.025740    1.461380
     18          6           0       -6.799919    1.992490    1.430310
     19          1           0       -7.589619    1.618370    2.069760
     20          6           0       -5.840269    1.130640    0.961610
     21          1           0       -5.881349    0.086530    1.236250
     22          6           0       -4.787839    1.590079    0.129830
     23          6           0       -3.761179    0.719739   -0.373740
     24          6           0       -3.804469   -0.756651   -0.194840
     25          6           0       -4.908999   -1.551251   -0.660300
     26          6           0       -5.962569   -1.013230   -1.442070
     27          1           0       -5.944249    0.033310   -1.709290
     28          6           0       -6.997779   -1.803070   -1.875800
     29          1           0       -7.785739   -1.369290   -2.478650
     30          6           0       -7.044249   -3.174190   -1.551230
     31          1           0       -7.872279   -3.781630   -1.893690
     32          6           0       -6.031489   -3.734560   -0.817980
     33          1           0       -6.045309   -4.791470   -0.579400
     34          6           0       -4.937769   -2.952401   -0.370620
     35          6           0       -3.859369   -3.540171    0.334130
     36          1           0       -3.895979   -4.597431    0.567130
     37          6           0       -2.772519   -2.793321    0.695720
     38          1           0       -1.929129   -3.231761    1.212220
     39          6           0       -2.751389   -1.418881    0.399700
     40          6           0        2.955971   -2.234091    1.170090
     41          6           0        1.873821   -2.518481    1.990520
     42          1           0        0.864681   -2.471931    1.604890
     43          6           0        2.104291   -2.877161    3.316280
     44          1           0        1.256691   -3.100201    3.953780
     45          6           0        3.396901   -2.969621    3.834210
     46          6           0        4.465061   -2.679071    2.979490
     47          1           0        5.480751   -2.744661    3.351880
     48          6           0        4.254411   -2.312751    1.656050
     49          1           0        5.085561   -2.094731    0.998050
     50          6           0        3.886611   -0.066141   -2.472790
     51          6           0        4.043591    1.235039   -2.926960
     52          1           0        3.174251    1.866949   -3.056500
     53          6           0        5.319161    1.694829   -3.237660
     54          1           0        5.439691    2.707519   -3.604060
     55          6           0        6.440111    0.871429   -3.107320
     56          6           0        6.242631   -0.438321   -2.661300
     57          1           0        7.092361   -1.105121   -2.572380
     58          6           0        4.975491   -0.916891   -2.346560
     59          1           0        4.828191   -1.937751   -2.022170
     60          6           0       -0.172919   -2.218761   -2.099900
     61          1           0       -1.212459   -2.378871   -1.808890
     62          6           0        0.577291   -3.537851   -1.930320
     63          1           0        0.531981   -3.898861   -0.902460
     64          1           0        1.625181   -3.443151   -2.216960
     65          1           0        0.121401   -4.290721   -2.574930
     66          6           0       -0.146979   -1.709731   -3.541420
     67          1           0       -0.696799   -0.773921   -3.635330
     68          1           0       -0.618869   -2.448711   -4.191990
     69          1           0        0.875201   -1.552481   -3.884350
     70         45           0        1.226561    1.093409    0.590340
     71          6           0        3.097341    1.601449    1.858820
     72          6           0        3.104931    2.388359    0.732120
     73          6           0        0.321291    3.022439    1.466830
     74          6           0        0.235481    2.023229    2.410300
     75          1           0        3.655751    0.672989    1.815900
     76          6           0        2.669561    2.038889    3.245870
     77          1           0        3.700811    2.046459   -0.108210
     78          6           0        2.612331    3.808649    0.612610
     79          6           0        1.351241    4.136029    1.442270
     80          1           0       -0.552049    3.178759    0.842620
     81          1           0       -0.705069    1.485959    2.478340
     82          6           0        1.181751    1.766729    3.555430
     83          1           0        2.901761    3.094179    3.384940
     84          1           0        3.273961    1.497669    3.975270
     85          1           0        3.421201    4.498679    0.883500
     86          1           0        2.403961    3.997909   -0.442600
     87          1           0        0.883951    5.024799    1.015270
     88          1           0        1.625741    4.403189    2.462200
     89          1           0        0.870621    2.361449    4.423450
     90          1           0        1.064751    0.722509    3.851600
     91          6           0        7.821571    1.380589   -3.427340
     92          1           0        8.326111    1.737428   -2.524700
     93          1           0        8.444321    0.595978   -3.859150
     94          1           0        7.786301    2.211089   -4.132960
     95          6           0        3.639141   -3.404891    5.256270
     96          1           0        3.850511   -4.476871    5.304220
     97          1           0        4.494331   -2.886431    5.692520
     98          1           0        2.769411   -3.214951    5.886090
 ---------------------------------------------------------------------

 SCF Done:  E(RB3LYP) =  -2891.53888629     A.U. after   20 cycles

      1  P    Isotropic =   156.0114   Anisotropy =   189.7136

      2  P    Isotropic =   164.8343   Anisotropy =   200.3759

      3  O    Isotropic =   139.1175   Anisotropy =    73.7677

      4  O    Isotropic =   133.9816   Anisotropy =    59.3144

      5  O    Isotropic =   130.3174   Anisotropy =   108.2833

      6  O    Isotropic =   139.1498   Anisotropy =    85.2449

      7  N    Isotropic =    47.2547   Anisotropy =    75.9335

      8  C    Isotropic =    30.1019   Anisotropy =   105.0818

      9  C    Isotropic =    61.1487   Anisotropy =   146.8134

     10  H    Isotropic =    24.2088   Anisotropy =     7.5973

     11  C    Isotropic =    47.2224   Anisotropy =   164.4624

     12  H    Isotropic =    23.6489   Anisotropy =     7.5562

     13  C    Isotropic =    45.9161   Anisotropy =   213.6918

     14  C    Isotropic =    50.2059   Anisotropy =   163.5209

     15  H    Isotropic =    23.7065   Anisotropy =     7.6266

     16  C    Isotropic =    51.2556   Anisotropy =   185.7131

     17  H    Isotropic =    24.0536   Anisotropy =     4.3247

     18  C    Isotropic =    50.4086   Anisotropy =   187.2882

     19  H    Isotropic =    24.2635   Anisotropy =     7.7558

     20  C    Isotropic =    51.1567   Anisotropy =   178.4677

     21  H    Isotropic =    24.4604   Anisotropy =    14.5373

     22  C    Isotropic =    44.9869   Anisotropy =   203.9118

     23  C    Isotropic =    53.2185   Anisotropy =   139.5738

     24  C    Isotropic =    55.1034   Anisotropy =   138.3998

     25  C    Isotropic =    45.2127   Anisotropy =   203.1668

     26  C    Isotropic =    51.2523   Anisotropy =   178.0075

     27  H    Isotropic =    24.4863   Anisotropy =    14.9675

     28  C    Isotropic =    50.2737   Anisotropy =   187.3220

     29  H    Isotropic =    24.2479   Anisotropy =     7.9475

     30  C    Isotropic =    51.3207   Anisotropy =   185.7269

     31  H    Isotropic =    24.0182   Anisotropy =     4.3079

     32  C    Isotropic =    50.2232   Anisotropy =   164.0404

     33  H    Isotropic =    23.6375   Anisotropy =     7.7233

     34  C    Isotropic =    45.9459   Anisotropy =   212.7689

     35  C    Isotropic =    46.7770   Anisotropy =   164.3691

     36  H    Isotropic =    23.5392   Anisotropy =     7.8725

     37  C    Isotropic =    62.1832   Anisotropy =   144.1541

     38  H    Isotropic =    24.0628   Anisotropy =     7.9313

     39  C    Isotropic =    26.6110   Anisotropy =   107.4779

     40  C    Isotropic =    26.7708   Anisotropy =   112.6370

     41  C    Isotropic =    59.6768   Anisotropy =   156.5745

     42  H    Isotropic =    24.0689   Anisotropy =     6.3504

     43  C    Isotropic =    48.9868   Anisotropy =   164.0642

     44  H    Isotropic =    24.2597   Anisotropy =     8.6480

     45  C    Isotropic =    38.1444   Anisotropy =   203.2474

     46  C    Isotropic =    47.0476   Anisotropy =   170.9207

     47  H    Isotropic =    24.4131   Anisotropy =     6.6987

     48  C    Isotropic =    58.3065   Anisotropy =   153.9024

     49  H    Isotropic =    24.7630   Anisotropy =     7.8727

     50  C    Isotropic =    27.2648   Anisotropy =   106.4027

     51  C    Isotropic =    58.0061   Anisotropy =   151.9062

     52  H    Isotropic =    24.4562   Anisotropy =     7.8990

     53  C    Isotropic =    48.0466   Anisotropy =   165.0415

     54  H    Isotropic =    24.3741   Anisotropy =     7.7272

     55  C    Isotropic =    37.0487   Anisotropy =   204.6051

     56  C    Isotropic =    47.7205   Anisotropy =   168.6981

     57  H    Isotropic =    24.3052   Anisotropy =     7.4525

     58  C    Isotropic =    56.6154   Anisotropy =   158.6248

     59  H    Isotropic =    24.1634   Anisotropy =     9.9313

     60  C    Isotropic =   121.1768   Anisotropy =    54.6795

     61  H    Isotropic =    28.7413   Anisotropy =     9.8242

     62  C    Isotropic =   161.1497   Anisotropy =    31.3211

     63  H    Isotropic =    30.1917   Anisotropy =     4.6086

     64  H    Isotropic =    30.0864   Anisotropy =     5.5671

     65  H    Isotropic =    30.8677   Anisotropy =    10.8682

     66  C    Isotropic =   158.5930   Anisotropy =    37.7593

     67  H    Isotropic =    30.0986   Anisotropy =     4.2322

     68  H    Isotropic =    31.1853   Anisotropy =    10.7248

     69  H    Isotropic =    30.0391   Anisotropy =     5.5585

     70  Rh   Isotropic =  -275.0505   Anisotropy =   336.3088

     71  C    Isotropic =    72.7094   Anisotropy =   134.3527

     72  C    Isotropic =    73.5027   Anisotropy =   124.6458

     73  C    Isotropic =    76.0201   Anisotropy =   126.9244

     74  C    Isotropic =    71.0806   Anisotropy =   128.0198

     75  H    Isotropic =    27.7818   Anisotropy =     6.7829

     76  C    Isotropic =   154.8107   Anisotropy =    24.1015

     77  H    Isotropic =    26.5428   Anisotropy =     7.1473

     78  C    Isotropic =   148.5026   Anisotropy =    29.6234

     79  C    Isotropic =   154.7431   Anisotropy =    24.1891

     80  H    Isotropic =    27.2047   Anisotropy =     9.6697

     81  H    Isotropic =    26.5130   Anisotropy =     3.1432

     82  C    Isotropic =   148.9080   Anisotropy =    29.2100

     83  H    Isotropic =    30.2839   Anisotropy =     9.4854

     84  H    Isotropic =    30.7701   Anisotropy =    10.2851

     85  H    Isotropic =    29.4271   Anisotropy =    12.3892

     86  H    Isotropic =    29.2877   Anisotropy =     7.1293

     87  H    Isotropic =    30.1066   Anisotropy =    11.4259

     88  H    Isotropic =    30.0783   Anisotropy =     9.2265

     89  H    Isotropic =    29.7102   Anisotropy =    11.9392

     90  H    Isotropic =    29.8458   Anisotropy =     7.3705

     91  C    Isotropic =   162.3902   Anisotropy =    42.4168

     92  H    Isotropic =    29.3088   Anisotropy =     8.3669

     93  H    Isotropic =    29.4260   Anisotropy =     8.8231

     94  H    Isotropic =    29.5743   Anisotropy =     8.2793

     95  C    Isotropic =   162.6164   Anisotropy =    42.1321

     96  H    Isotropic =    29.1706   Anisotropy =    10.0589

     97  H    Isotropic =    29.5390   Anisotropy =     8.2750

     98  H    Isotropic =    29.6550   Anisotropy =     6.9804

 The electronic state is 1-A.
 Alpha  occ. eigenvalues --  -77.32582 -77.32481 -19.27233 -19.27189 -19.26963
 Alpha  occ. eigenvalues --  -19.26832 -14.45081 -10.33595 -10.33577 -10.33350
 Alpha  occ. eigenvalues --  -10.32956 -10.31391 -10.29706 -10.29661 -10.29578
 Alpha  occ. eigenvalues --  -10.29424 -10.28711 -10.28621 -10.28043 -10.27883
 Alpha  occ. eigenvalues --  -10.27863 -10.27792 -10.27762 -10.27708 -10.27311
 Alpha  occ. eigenvalues --  -10.27268 -10.27172 -10.27130 -10.27128 -10.27060
 Alpha  occ. eigenvalues --  -10.26990 -10.26969 -10.26920 -10.26886 -10.26770
 Alpha  occ. eigenvalues --  -10.26661 -10.26613 -10.26564 -10.26279 -10.26190
 Alpha  occ. eigenvalues --  -10.25762 -10.25611 -10.25582 -10.25546 -10.25458
 Alpha  occ. eigenvalues --  -10.25447 -10.25382 -10.25268 -10.25002 -10.24653
 Alpha  occ. eigenvalues --  -10.24269 -10.24142  -6.77347  -6.77285  -4.93698
 Alpha  occ. eigenvalues --   -4.93694  -4.93677  -4.93622  -4.93244  -4.93150
 Alpha  occ. eigenvalues --   -3.32922  -2.10087  -2.09204  -2.06107  -1.19268
 Alpha  occ. eigenvalues --   -1.18521  -1.14962  -1.14903  -1.03017  -0.97753
 Alpha  occ. eigenvalues --   -0.96202  -0.95534  -0.95108  -0.94988  -0.91996
 Alpha  occ. eigenvalues --   -0.91027  -0.89793  -0.89003  -0.88496  -0.88319
 Alpha  occ. eigenvalues --   -0.86767  -0.85953  -0.85015  -0.84604  -0.84231
 Alpha  occ. eigenvalues --   -0.83802  -0.83008  -0.82267  -0.80873  -0.80128
 Alpha  occ. eigenvalues --   -0.79690  -0.78347  -0.77714  -0.77185  -0.76694
 Alpha  occ. eigenvalues --   -0.74064  -0.72706  -0.71925  -0.71301  -0.71061
 Alpha  occ. eigenvalues --   -0.71012  -0.70700  -0.70432  -0.69775  -0.68760
 Alpha  occ. eigenvalues --   -0.67927  -0.66632  -0.66246  -0.66086  -0.64437
 Alpha  occ. eigenvalues --   -0.64152  -0.62917  -0.62422  -0.61806  -0.61217
 Alpha  occ. eigenvalues --   -0.60591  -0.60428  -0.59635  -0.58450  -0.58204
 Alpha  occ. eigenvalues --   -0.58028  -0.57334  -0.57186  -0.56919  -0.56638
 Alpha  occ. eigenvalues --   -0.56240  -0.55964  -0.55718  -0.55095  -0.54283
 Alpha  occ. eigenvalues --   -0.54093  -0.53990  -0.53882  -0.53623  -0.53148
 Alpha  occ. eigenvalues --   -0.53016  -0.52840  -0.52738  -0.52607  -0.52075
 Alpha  occ. eigenvalues --   -0.52021  -0.51611  -0.51431  -0.51250  -0.51067
 Alpha  occ. eigenvalues --   -0.50662  -0.50552  -0.50239  -0.49973  -0.49871
 Alpha  occ. eigenvalues --   -0.48967  -0.48573  -0.48379  -0.48276  -0.48159
 Alpha  occ. eigenvalues --   -0.48120  -0.47776  -0.47364  -0.47271  -0.46993
 Alpha  occ. eigenvalues --   -0.46468  -0.45762  -0.45642  -0.45237  -0.45220
 Alpha  occ. eigenvalues --   -0.45126  -0.44692  -0.44632  -0.44476  -0.43987
 Alpha  occ. eigenvalues --   -0.43948  -0.43709  -0.43582  -0.43529  -0.43234
 Alpha  occ. eigenvalues --   -0.43072  -0.42948  -0.42576  -0.42349  -0.41631
 Alpha  occ. eigenvalues --   -0.41504  -0.41087  -0.40760  -0.39277  -0.38452
 Alpha  occ. eigenvalues --   -0.38270  -0.37861  -0.36923  -0.36635  -0.35557
 Alpha  occ. eigenvalues --   -0.35315  -0.35012  -0.34814  -0.33524  -0.33145
 Alpha  occ. eigenvalues --   -0.32985  -0.32907  -0.31773  -0.31025  -0.30175
 Alpha virt. eigenvalues --   -0.16885  -0.15175  -0.14439  -0.12874  -0.11144
 Alpha virt. eigenvalues --   -0.10826  -0.10554  -0.10321  -0.10155  -0.10006
 Alpha virt. eigenvalues --   -0.09636  -0.08568  -0.07341  -0.06971  -0.06230

 Mulliken charges:
               1
     1  P    0.784924
     2  P    0.669478
     3  O   -0.307035
     4  O   -0.318569
     5  O   -0.332333
     6  O   -0.319470
     7  N   -0.432995
     8  C    0.103506
     9  C   -0.225666
    10  H    0.134771
    11  C   -0.129313
    12  H    0.118939
    13  C    0.024449
    14  C   -0.141052
    15  H    0.116539
    16  C   -0.083162
    17  H    0.124945
    18  C   -0.071140
    19  H    0.123724
    20  C   -0.111499
    21  H    0.154407
    22  C    0.013961
    23  C   -0.007123
    24  C    0.034121
    25  C   -0.002210
    26  C   -0.114197
    27  H    0.155568
    28  C   -0.071540
    29  H    0.123284
    30  C   -0.082624
    31  H    0.124912
    32  C   -0.142579
    33  H    0.117805
    34  C    0.034394
    35  C   -0.162228
    36  H    0.121203
    37  C   -0.144949
    38  H    0.128180
    39  C    0.095686
    40  C    0.096702
    41  C   -0.049267
    42  H    0.151252
    43  C   -0.211233
    44  H    0.125306
    45  C    0.113151
    46  C   -0.144486
    47  H    0.129272
    48  C   -0.125531
    49  H    0.138971
    50  C    0.083767
    51  C   -0.160657
    52  H    0.135906
    53  C   -0.113757
    54  H    0.126178
    55  C    0.091844
    56  C   -0.123635
    57  H    0.129510
    58  C   -0.100243
    59  H    0.146602
    60  C    0.045760
    61  H    0.162601
    62  C   -0.375412
    63  H    0.132473
    64  H    0.145770
    65  H    0.148066
    66  C   -0.373044
    67  H    0.143469
    68  H    0.141157
    69  H    0.140683
    70  Rh  -0.633510
    71  C   -0.007156
    72  C   -0.117036
    73  C   -0.034870
    74  C   -0.092862
    75  H    0.213870
    76  C   -0.357585
    77  H    0.237170
    78  C   -0.230492
    79  C   -0.350597
    80  H    0.227826
    81  H    0.197335
    82  C   -0.223482
    83  H    0.166665
    84  H    0.172305
    85  H    0.176721
    86  H    0.136879
    87  H    0.171398
    88  H    0.167708
    89  H    0.176747
    90  H    0.146299
    91  C   -0.433447
    92  H    0.148968
    93  H    0.142936
    94  H    0.140282
    95  C   -0.428741
    96  H    0.157475
    97  H    0.137832
    98  H    0.135074
 Sum of Mulliken charges =   1.00000

 Dipole moment (field-independent basis, Debye):
    X=              2.8156    Y=              2.1407    Z=              2.5254  Tot=              4.3460
 Quadrupole moment (field-independent basis, Debye-Ang):
   XX=           -227.6374   YY=           -278.1867   ZZ=           -304.2945
   XY=              7.2469   XZ=              4.3256   YZ=             -2.6470

 Summary of Natural Population Analysis:

                                       Natural Population
                Natural  -----------------------------------------------
    Atom  No    Charge         Core      Valence    Rydberg      Total
 -----------------------------------------------------------------------
      P    1    1.86988      9.99540     3.03390    0.10082    13.13012
      P    2    1.86688      9.99552     3.03805    0.09954    13.13312
      O    3   -0.74161      1.99979     6.72807    0.01375     8.74161
      O    4   -0.75209      1.99979     6.73876    0.01354     8.75209
      O    5   -0.75057      1.99977     6.73562    0.01518     8.75057
      O    6   -0.74801      1.99977     6.73290    0.01534     8.74801
      N    7   -1.04652      1.99958     6.02349    0.02345     8.04652
      C    8    0.25340      1.99862     3.72538    0.02261     5.74660
      C    9   -0.24801      1.99906     4.23377    0.01518     6.24801
      H   10    0.22722      0.00000     0.77115    0.00163     0.77278
      C   11   -0.14900      1.99914     4.13607    0.01379     6.14900
      H   12    0.21791      0.00000     0.78070    0.00139     0.78209
      C   13   -0.06457      1.99910     4.04951    0.01596     6.06457
      C   14   -0.17081      1.99914     4.15769    0.01397     6.17081
      H   15    0.21371      0.00000     0.78483    0.00145     0.78629
      C   16   -0.19453      1.99920     4.18053    0.01480     6.19453
      H   17    0.21997      0.00000     0.77885    0.00118     0.78003
      C   18   -0.18444      1.99920     4.17045    0.01479     6.18444
      H   19    0.21895      0.00000     0.77986    0.00119     0.78105
      C   20   -0.18799      1.99913     4.17476    0.01409     6.18799
      H   21    0.22189      0.00000     0.77639    0.00172     0.77811
      C   22   -0.03236      1.99904     4.01683    0.01649     6.03236
      C   23   -0.06034      1.99887     4.04218    0.01929     6.06034
      C   24   -0.06822      1.99887     4.04950    0.01985     6.06822
      C   25   -0.03070      1.99904     4.01489    0.01676     6.03070
      C   26   -0.18903      1.99913     4.17596    0.01394     6.18903
      H   27    0.22114      0.00000     0.77710    0.00176     0.77886
      C   28   -0.18354      1.99920     4.16954    0.01480     6.18354
      H   29    0.21888      0.00000     0.77994    0.00118     0.78112
      C   30   -0.19478      1.99920     4.18076    0.01483     6.19478
      H   31    0.22010      0.00000     0.77875    0.00115     0.77990
      C   32   -0.17026      1.99915     4.15688    0.01423     6.17026
      H   33    0.21407      0.00000     0.78430    0.00162     0.78593
      C   34   -0.06529      1.99909     4.05021    0.01598     6.06529
      C   35   -0.14650      1.99915     4.13322    0.01414     6.14650
      H   36    0.21880      0.00000     0.77966    0.00154     0.78120
      C   37   -0.24735      1.99906     4.23278    0.01551     6.24735
      H   38    0.22299      0.00000     0.77533    0.00168     0.77701
      C   39    0.26007      1.99860     3.71781    0.02352     5.73993
      C   40    0.24417      1.99865     3.73438    0.02279     5.75583
      C   41   -0.24679      1.99905     4.23344    0.01430     6.24679
      H   42    0.22059      0.00000     0.77721    0.00220     0.77941
      C   43   -0.18716      1.99912     4.17417    0.01386     6.18716
      H   44    0.21387      0.00000     0.78471    0.00142     0.78613
      C   45   -0.01505      1.99914     4.00175    0.01417     6.01505
      C   46   -0.18402      1.99912     4.17138    0.01351     6.18402
      H   47    0.21665      0.00000     0.78201    0.00134     0.78335
      C   48   -0.23585      1.99906     4.22170    0.01509     6.23585
      H   49    0.22679      0.00000     0.77153    0.00168     0.77321
      C   50    0.22964      1.99865     3.74940    0.02231     5.77036
      C   51   -0.23889      1.99906     4.22497    0.01486     6.23889
      H   52    0.22282      0.00000     0.77548    0.00170     0.77718
      C   53   -0.18913      1.99912     4.17642    0.01359     6.18913
      H   54    0.21495      0.00000     0.78368    0.00138     0.78505
      C   55   -0.00951      1.99914     3.99626    0.01411     6.00951
      C   56   -0.18580      1.99912     4.17304    0.01363     6.18580
      H   57    0.21574      0.00000     0.78291    0.00135     0.78426
      C   58   -0.23378      1.99905     4.22024    0.01449     6.23378
      H   59    0.23028      0.00000     0.76783    0.00189     0.76972
      C   60   -0.03767      1.99938     4.01731    0.02098     6.03767
      H   61    0.20968      0.00000     0.78760    0.00273     0.79032
      C   62   -0.60161      1.99942     4.59417    0.00803     6.60161
      H   63    0.21072      0.00000     0.78799    0.00130     0.78928
      H   64    0.21405      0.00000     0.78438    0.00157     0.78595
      H   65    0.22275      0.00000     0.77620    0.00105     0.77725
      C   66   -0.60446      1.99941     4.59737    0.00767     6.60446
      H   67    0.22059      0.00000     0.77818    0.00122     0.77941
      H   68    0.21626      0.00000     0.78271    0.00103     0.78374
      H   69    0.21836      0.00000     0.78027    0.00137     0.78164
     Rh   70   -0.54650     35.98377     9.53395    0.02877    45.54650
      C   71   -0.15891      1.99909     4.13981    0.02001     6.15891
      C   72   -0.16304      1.99910     4.14309    0.02085     6.16304
      C   73   -0.17433      1.99906     4.15510    0.02016     6.17433
      C   74   -0.14486      1.99907     4.12547    0.02032     6.14486
      H   75    0.23612      0.00000     0.76149    0.00239     0.76388
      C   76   -0.42473      1.99936     4.41303    0.01234     6.42473
      H   77    0.23860      0.00000     0.75906    0.00234     0.76140
      C   78   -0.42350      1.99935     4.41128    0.01287     6.42350
      C   79   -0.42442      1.99936     4.41346    0.01160     6.42442
      H   80    0.23456      0.00000     0.76298    0.00246     0.76544
      H   81    0.23867      0.00000     0.75955    0.00178     0.76133
      C   82   -0.42317      1.99935     4.41110    0.01272     6.42317
      H   83    0.21161      0.00000     0.78617    0.00223     0.78839
      H   84    0.23240      0.00000     0.76613    0.00147     0.76760
      H   85    0.23694      0.00000     0.76126    0.00180     0.76306
      H   86    0.22130      0.00000     0.77729    0.00141     0.77870
      H   87    0.23031      0.00000     0.76823    0.00146     0.76969
      H   88    0.21561      0.00000     0.78252    0.00187     0.78439
      H   89    0.23662      0.00000     0.76153    0.00185     0.76338
      H   90    0.22355      0.00000     0.77466    0.00179     0.77645
      C   91   -0.61512      1.99941     4.60851    0.00720     6.61512
      H   92    0.22119      0.00000     0.77743    0.00138     0.77881
      H   93    0.22079      0.00000     0.77797    0.00125     0.77921
      H   94    0.21824      0.00000     0.78053    0.00124     0.78176
      C   95   -0.61511      1.99941     4.60852    0.00719     6.61511
      H   96    0.22597      0.00000     0.77263    0.00140     0.77403
      H   97    0.21812      0.00000     0.78062    0.00126     0.78188
      H   98    0.21554      0.00000     0.78322    0.00124     0.78446
 =======================================================================
   * Total *    1.00000    155.93343   270.99162    1.07495   428.00000

 Normal termination of Gaussian 16 at Tue Nov  5 15:47:12 2024.
