 Gaussian 16, Revision B.01,
 Gaussian 16:  ES64L-G16RevB.01 20-Dec-2017

 ------------------------------------------
 # nmr=giao b3lyp/genecp pop=nbo scfcyc=200
 ------------------------------------------

 --------------
 Ligand 37c SPE
 --------------
 Symbolic Z-matrix:
 Charge =  1 Multiplicity = 1

                         Standard orientation:
 ---------------------------------------------------------------------
 Center     Atomic      Atomic             Coordinates (Angstroms)
 Number     Number       Type             X           Y           Z
 ---------------------------------------------------------------------
      1         15           0        1.169750   -0.405020   -0.198049
      2         15           0       -1.332370   -0.294540   -0.931529
      3          8           0        2.161650   -1.681300   -0.528089
      4          8           0        2.247100    0.834660   -0.113559
      5          8           0       -2.182240    0.963310   -1.562999
      6          8           0       -2.059100   -1.510000   -1.747069
      7          7           0        0.239250   -0.325460   -1.625219
      8          6           0        3.254220   -1.883750    0.330821
      9          6           0        3.172530   -2.971900    1.217531
     10          1           0        2.302260   -3.613770    1.178091
     11          6           0        4.202090   -3.202400    2.088411
     12          1           0        4.165410   -4.047470    2.765271
     13          6           0        5.318250   -2.331630    2.134961
     14          6           0        6.352250   -2.518230    3.086011
     15          1           0        6.290490   -3.364160    3.760431
     16          6           0        7.402700   -1.641960    3.165021
     17          1           0        8.184660   -1.790820    3.898751
     18          6           0        7.457240   -0.532770    2.296271
     19          1           0        8.275860    0.171200    2.378671
     20          6           0        6.482970   -0.333370    1.350531
     21          1           0        6.541720    0.525450    0.697641
     22          6           0        5.393080   -1.231330    1.222371
     23          6           0        4.350560   -1.051620    0.249811
     24          6           0        4.409490   -0.001500   -0.802489
     25          6           0        5.497390    0.082340   -1.739279
     26          6           0        6.513830   -0.902900   -1.821399
     27          1           0        6.478320   -1.758140   -1.162379
     28          6           0        7.534050   -0.794260   -2.732989
     29          1           0        8.293400   -1.564710   -2.780789
     30          6           0        7.601690    0.305440   -3.612509
     31          1           0        8.417770    0.380850   -4.319789
     32          6           0        6.623950    1.264720   -3.578929
     33          1           0        6.653550    2.104020   -4.263679
     34          6           0        5.545930    1.173720   -2.663659
     35          6           0        4.501530    2.129940   -2.667849
     36          1           0        4.553630    2.964100   -3.356989
     37          6           0        3.427150    1.993190   -1.833159
     38          1           0        2.608470    2.700290   -1.840889
     39          6           0        3.386290    0.913330   -0.933469
     40          6           0       -2.283590    2.230020   -0.973569
     41          6           0       -1.172190    3.020330   -0.733779
     42          1           0       -0.179960    2.658810   -0.966959
     43          6           0       -1.344630    4.298820   -0.203269
     44          1           0       -0.461740    4.897180   -0.029589
     45          6           0       -2.609570    4.813890    0.085421
     46          6           0       -3.709350    3.983320   -0.175269
     47          1           0       -4.712400    4.337440    0.024401
     48          6           0       -3.558470    2.706450   -0.696509
     49          1           0       -4.419060    2.082250   -0.899799
     50          6           0       -3.373640   -1.941060   -1.489659
     51          6           0       -3.559980   -3.092280   -0.744029
     52          1           0       -2.702720   -3.617000   -0.341569
     53          6           0       -4.851740   -3.574970   -0.544339
     54          1           0       -4.972490   -4.479260    0.034561
     55          6           0       -5.967870   -2.931010   -1.084389
     56          6           0       -5.733470   -1.775160   -1.842109
     57          1           0       -6.564950   -1.249880   -2.293989
     58          6           0       -4.454460   -1.277620   -2.053819
     59          1           0       -4.292070   -0.394750   -2.656669
     60          6           0       -7.455350   -4.716400   -0.028589
     61          1           0       -7.057870   -4.546050    0.974571
     62          1           0       -6.904550   -5.542750   -0.482789
     63          1           0       -8.492050   -5.038440    0.082041
     64          6           0        0.704130   -0.460700   -3.046249
     65          1           0        1.754380   -0.165430   -3.018909
     66          6           0       -0.038630    0.508460   -3.963169
     67          1           0        0.046040    1.538410   -3.615509
     68          1           0       -1.096780    0.256380   -4.040509
     69          1           0        0.392440    0.451160   -4.963709
     70          6           0        0.620710   -1.908300   -3.531389
     71          1           0        1.166670   -2.575520   -2.865369
     72          1           0        1.065700   -1.980430   -4.525789
     73          1           0       -0.414420   -2.242880   -3.592529
     74          6           0       -7.402850   -3.445920   -0.892169
     75          6           0       -8.016720   -3.773480   -2.271169
     76          1           0       -8.058950   -2.895940   -2.918109
     77          1           0       -7.436620   -4.542120   -2.785909
     78          1           0       -9.036900   -4.144130   -2.149659
     79          6           0       -8.250480   -2.356240   -0.200029
     80          1           0       -7.841560   -2.105090    0.781291
     81          1           0       -8.297130   -1.439410   -0.789759
     82          1           0       -9.274080   -2.709800   -0.058409
     83          6           0       -2.829320    6.226340    0.649311
     84          6           0       -3.561930    6.131050    2.005381
     85          1           0       -3.728890    7.129970    2.414041
     86          1           0       -4.535170    5.646870    1.911191
     87          1           0       -2.972390    5.565350    2.730721
     88          6           0       -3.690090    7.042220   -0.340299
     89          1           0       -4.669220    6.588160   -0.499909
     90          1           0       -3.852290    8.051000    0.045611
     91          1           0       -3.197300    7.126510   -1.311029
     92          6           0       -1.506930    6.978290    0.869271
     93          1           0       -0.858410    6.466220    1.583851
     94          1           0       -0.954120    7.114090   -0.062649
     95          1           0       -1.715110    7.971010    1.271611
     96         45           0       -0.591690   -0.341880    1.251251
     97          6           0       -2.411520    0.400560    2.478301
     98          6           0       -2.464510   -0.970560    2.401711
     99          6           0        0.345880   -0.874380    3.287501
    100          6           0        0.470430    0.481340    3.081101
    101          1           0       -2.971040    0.957910    1.735331
    102          6           0       -1.928160    1.207030    3.667521
    103          1           0       -3.092740   -1.400360    1.627831
    104          6           0       -1.977910   -1.957950    3.432551
    105          6           0       -0.685690   -1.548000    4.172631
    106          1           0        1.193360   -1.489890    3.005051
    107          1           0        1.413680    0.836270    2.678271
    108          6           0       -0.429070    1.570720    3.607071
    109          1           0       -2.154820    0.672480    4.589331
    110          1           0       -2.502480    2.133790    3.706461
    111          1           0       -2.776100   -2.146730    4.161311
    112          1           0       -1.810930   -2.910120    2.924341
    113          1           0       -0.236850   -2.447190    4.597661
    114          1           0       -0.920140   -0.902410    5.018361
    115          1           0       -0.083340    1.878390    4.601961
    116          1           0       -0.300020    2.442640    2.962881
 ---------------------------------------------------------------------

 SCF Done:  E(RB3LYP) =  -3127.49186229     A.U. after   20 cycles

      1  P    Isotropic =   155.7030   Anisotropy =   190.2703

      2  P    Isotropic =   165.1988   Anisotropy =   200.1361

      3  O    Isotropic =   138.9391   Anisotropy =    74.5236

      4  O    Isotropic =   134.2761   Anisotropy =    60.1955

      5  O    Isotropic =   130.7940   Anisotropy =   106.9681

      6  O    Isotropic =   139.6200   Anisotropy =    84.5733

      7  N    Isotropic =    47.3616   Anisotropy =    75.7434

      8  C    Isotropic =    29.5555   Anisotropy =   104.8781

      9  C    Isotropic =    60.9689   Anisotropy =   146.7643

     10  H    Isotropic =    24.2026   Anisotropy =     7.6576

     11  C    Isotropic =    47.1165   Anisotropy =   164.1526

     12  H    Isotropic =    23.6490   Anisotropy =     7.6430

     13  C    Isotropic =    45.8605   Anisotropy =   213.9846

     14  C    Isotropic =    50.6321   Anisotropy =   165.1431

     15  H    Isotropic =    23.6619   Anisotropy =     7.7774

     16  C    Isotropic =    51.7435   Anisotropy =   187.6047

     17  H    Isotropic =    24.0252   Anisotropy =     4.3992

     18  C    Isotropic =    50.4438   Anisotropy =   187.6661

     19  H    Isotropic =    24.2499   Anisotropy =     7.8475

     20  C    Isotropic =    51.7813   Anisotropy =   180.4000

     21  H    Isotropic =    24.4699   Anisotropy =    14.5214

     22  C    Isotropic =    44.3114   Anisotropy =   202.3991

     23  C    Isotropic =    53.1046   Anisotropy =   139.7645

     24  C    Isotropic =    55.5600   Anisotropy =   139.2161

     25  C    Isotropic =    45.2855   Anisotropy =   204.0071

     26  C    Isotropic =    50.6258   Anisotropy =   176.7969

     27  H    Isotropic =    24.5158   Anisotropy =    15.0376

     28  C    Isotropic =    50.1332   Anisotropy =   186.8068

     29  H    Isotropic =    24.2558   Anisotropy =     7.9810

     30  C    Isotropic =    50.9217   Anisotropy =   184.4386

     31  H    Isotropic =    24.0533   Anisotropy =     4.3078

     32  C    Isotropic =    49.6474   Anisotropy =   162.3574

     33  H    Isotropic =    23.6749   Anisotropy =     7.8071

     34  C    Isotropic =    45.7564   Anisotropy =   212.5523

     35  C    Isotropic =    47.0347   Anisotropy =   164.7680

     36  H    Isotropic =    23.5479   Anisotropy =     8.0486

     37  C    Isotropic =    62.2401   Anisotropy =   144.6365

     38  H    Isotropic =    24.0315   Anisotropy =     7.8757

     39  C    Isotropic =    26.9121   Anisotropy =   108.8940

     40  C    Isotropic =    26.8897   Anisotropy =   110.4926

     41  C    Isotropic =    60.2912   Anisotropy =   154.7008

     42  H    Isotropic =    24.0873   Anisotropy =     6.8885

     43  C    Isotropic =    53.1249   Anisotropy =   175.1133

     44  H    Isotropic =    24.1358   Anisotropy =    12.6786

     45  C    Isotropic =    24.2661   Anisotropy =   208.9569

     46  C    Isotropic =    48.0612   Anisotropy =   183.9427

     47  H    Isotropic =    24.1844   Anisotropy =    10.4635

     48  C    Isotropic =    58.7993   Anisotropy =   152.1979

     49  H    Isotropic =    24.7602   Anisotropy =     7.8492

     50  C    Isotropic =    27.6529   Anisotropy =   104.2586

     51  C    Isotropic =    58.6928   Anisotropy =   150.0206

     52  H    Isotropic =    24.4577   Anisotropy =     8.1758

     53  C    Isotropic =    52.1775   Anisotropy =   175.5929

     54  H    Isotropic =    24.2416   Anisotropy =    11.9427

     55  C    Isotropic =    23.3962   Anisotropy =   210.8415

     56  C    Isotropic =    48.8321   Anisotropy =   182.4955

     57  H    Isotropic =    24.0733   Anisotropy =    11.0534

     58  C    Isotropic =    57.1924   Anisotropy =   157.2384

     59  H    Isotropic =    24.1440   Anisotropy =    10.0965

     60  C    Isotropic =   155.2107   Anisotropy =    36.3864

     61  H    Isotropic =    30.4852   Anisotropy =     7.5306

     62  H    Isotropic =    30.3427   Anisotropy =     8.2011

     63  H    Isotropic =    30.6696   Anisotropy =     9.0614

     64  C    Isotropic =   121.1985   Anisotropy =    54.4415

     65  H    Isotropic =    28.7274   Anisotropy =     9.8459

     66  C    Isotropic =   161.1736   Anisotropy =    31.1322

     67  H    Isotropic =    30.1723   Anisotropy =     4.6378

     68  H    Isotropic =    30.0733   Anisotropy =     5.4815

     69  H    Isotropic =    30.8643   Anisotropy =    10.8424

     70  C    Isotropic =   158.5733   Anisotropy =    37.7448

     71  H    Isotropic =    30.0807   Anisotropy =     4.2085

     72  H    Isotropic =    31.1795   Anisotropy =    10.7512

     73  H    Isotropic =    30.0136   Anisotropy =     5.6519

     74  C    Isotropic =   144.6908   Anisotropy =    14.0215

     75  C    Isotropic =   150.5842   Anisotropy =    46.5760

     76  H    Isotropic =    30.3565   Anisotropy =     7.3551

     77  H    Isotropic =    30.7380   Anisotropy =     8.2897

     78  H    Isotropic =    30.6284   Anisotropy =    10.1281

     79  C    Isotropic =   150.5499   Anisotropy =    45.4716

     80  H    Isotropic =    30.9065   Anisotropy =     6.7807

     81  H    Isotropic =    30.3636   Anisotropy =     7.1170

     82  H    Isotropic =    30.6245   Anisotropy =     9.6040

     83  C    Isotropic =   144.4903   Anisotropy =    14.0522

     84  C    Isotropic =   150.5521   Anisotropy =    45.4601

     85  H    Isotropic =    30.6420   Anisotropy =     9.7772

     86  H    Isotropic =    30.4217   Anisotropy =     6.8827

     87  H    Isotropic =    31.0154   Anisotropy =     6.6805

     88  C    Isotropic =   150.5619   Anisotropy =    46.9491

     89  H    Isotropic =    30.3592   Anisotropy =     7.7827

     90  H    Isotropic =    30.6135   Anisotropy =    10.3784

     91  H    Isotropic =    30.7265   Anisotropy =     8.3281

     92  C    Isotropic =   155.1151   Anisotropy =    35.8714

     93  H    Isotropic =    30.4991   Anisotropy =     7.1107

     94  H    Isotropic =    30.3214   Anisotropy =     7.9116

     95  H    Isotropic =    30.6205   Anisotropy =     9.0850

     96  Rh   Isotropic =  -274.9924   Anisotropy =   334.9367

     97  C    Isotropic =    72.8046   Anisotropy =   133.6909

     98  C    Isotropic =    73.3807   Anisotropy =   124.4379

     99  C    Isotropic =    76.2411   Anisotropy =   126.4480

    100  C    Isotropic =    71.2638   Anisotropy =   127.8070

    101  H    Isotropic =    27.7636   Anisotropy =     6.8588

    102  C    Isotropic =   154.9279   Anisotropy =    23.5625

    103  H    Isotropic =    26.5217   Anisotropy =     7.8395

    104  C    Isotropic =   148.4694   Anisotropy =    29.7030

    105  C    Isotropic =   154.7266   Anisotropy =    24.0530

    106  H    Isotropic =    27.2124   Anisotropy =     9.8757

    107  H    Isotropic =    26.5118   Anisotropy =     3.2285

    108  C    Isotropic =   148.9994   Anisotropy =    29.1052

    109  H    Isotropic =    30.2825   Anisotropy =     9.3025

    110  H    Isotropic =    30.7740   Anisotropy =    10.3829

    111  H    Isotropic =    29.4184   Anisotropy =    12.2047

    112  H    Isotropic =    29.2634   Anisotropy =     7.1019

    113  H    Isotropic =    30.0990   Anisotropy =    11.5488

    114  H    Isotropic =    30.0615   Anisotropy =     9.1608

    115  H    Isotropic =    29.7105   Anisotropy =    11.7713

    116  H    Isotropic =    29.8612   Anisotropy =     7.9787

 The electronic state is 1-A.
 Alpha  occ. eigenvalues --  -77.32425 -77.32354 -19.27116 -19.27071 -19.26783
 Alpha  occ. eigenvalues --  -19.26646 -14.44941 -10.33504 -10.33487 -10.33060
 Alpha  occ. eigenvalues --  -10.32663 -10.31272 -10.29586 -10.29532 -10.29445
 Alpha  occ. eigenvalues --  -10.29303 -10.28625 -10.28534 -10.27932 -10.27807
 Alpha  occ. eigenvalues --  -10.27760 -10.27685 -10.27685 -10.27599 -10.27236
 Alpha  occ. eigenvalues --  -10.27052 -10.27050 -10.26978 -10.26907 -10.26838
 Alpha  occ. eigenvalues --  -10.26821 -10.26696 -10.26667 -10.26580 -10.26415
 Alpha  occ. eigenvalues --  -10.26367 -10.26297 -10.26288 -10.26281 -10.26270
 Alpha  occ. eigenvalues --  -10.25899 -10.25883 -10.25694 -10.25542 -10.25514
 Alpha  occ. eigenvalues --  -10.25476 -10.25390 -10.25377 -10.25312 -10.25201
 Alpha  occ. eigenvalues --  -10.24889 -10.24030 -10.23201 -10.23059 -10.22838
 Alpha  occ. eigenvalues --  -10.22742 -10.22637 -10.22471  -6.77187  -6.77157
 Alpha  occ. eigenvalues --   -4.93550  -4.93538  -4.93534  -4.93495  -4.93085
 Alpha  occ. eigenvalues --   -4.93022  -3.32785  -2.09950  -2.09067  -2.05970
 Alpha  occ. eigenvalues --   -1.19153  -1.18341  -1.14850  -1.14708  -1.02875
 Alpha  occ. eigenvalues --   -0.97670  -0.96125  -0.95420  -0.95005  -0.94870
 Alpha  occ. eigenvalues --   -0.91919  -0.90949  -0.89826  -0.89667  -0.89318
 Alpha  occ. eigenvalues --   -0.88923  -0.88387  -0.87960  -0.84939  -0.84368
 Alpha  occ. eigenvalues --   -0.84090  -0.83942  -0.83089  -0.82922  -0.82174
 Alpha  occ. eigenvalues --   -0.81885  -0.80754  -0.80039  -0.78235  -0.77724
 Alpha  occ. eigenvalues --   -0.77154  -0.76199  -0.75805  -0.75792  -0.75582
 Alpha  occ. eigenvalues --   -0.75386  -0.72646  -0.71854  -0.71224  -0.70950
 Alpha  occ. eigenvalues --   -0.70842  -0.70603  -0.70277  -0.69915  -0.69756
 Alpha  occ. eigenvalues --   -0.68252  -0.66602  -0.66492  -0.66124  -0.64353
 Alpha  occ. eigenvalues --   -0.64040  -0.63532  -0.63082  -0.62798  -0.62251
 Alpha  occ. eigenvalues --   -0.61716  -0.61130  -0.60406  -0.60303  -0.59462
 Alpha  occ. eigenvalues --   -0.58340  -0.58051  -0.57458  -0.57056  -0.56819
 Alpha  occ. eigenvalues --   -0.56572  -0.56492  -0.55857  -0.55786  -0.55263
 Alpha  occ. eigenvalues --   -0.54999  -0.54189  -0.54015  -0.53923  -0.53837
 Alpha  occ. eigenvalues --   -0.53690  -0.53495  -0.53170  -0.52940  -0.52851
 Alpha  occ. eigenvalues --   -0.52651  -0.52452  -0.51840  -0.51490  -0.51379
 Alpha  occ. eigenvalues --   -0.51362  -0.51222  -0.51083  -0.51016  -0.50604
 Alpha  occ. eigenvalues --   -0.50481  -0.50286  -0.49944  -0.49747  -0.49221
 Alpha  occ. eigenvalues --   -0.48738  -0.48430  -0.48291  -0.48202  -0.48060
 Alpha  occ. eigenvalues --   -0.47862  -0.47626  -0.47315  -0.47055  -0.47012
 Alpha  occ. eigenvalues --   -0.46701  -0.46494  -0.46362  -0.46120  -0.45209
 Alpha  occ. eigenvalues --   -0.45145  -0.45115  -0.45072  -0.44695  -0.44624
 Alpha  occ. eigenvalues --   -0.44098  -0.43930  -0.43887  -0.43710  -0.43511
 Alpha  occ. eigenvalues --   -0.43486  -0.43447  -0.43220  -0.43041  -0.42981
 Alpha  occ. eigenvalues --   -0.42667  -0.42348  -0.41569  -0.41517  -0.41010
 Alpha  occ. eigenvalues --   -0.40786  -0.40746  -0.40612  -0.40380  -0.40290
 Alpha  occ. eigenvalues --   -0.39805  -0.39399  -0.39019  -0.38363  -0.38142
 Alpha  occ. eigenvalues --   -0.37732  -0.36836  -0.36492  -0.35409  -0.35046
 Alpha  occ. eigenvalues --   -0.34782  -0.34452  -0.33445  -0.33065  -0.32741
 Alpha  occ. eigenvalues --   -0.32640  -0.31631  -0.30949  -0.30097
 Alpha virt. eigenvalues --   -0.16746  -0.15026  -0.14359  -0.12796  -0.10876
 Alpha virt. eigenvalues --   -0.10644  -0.10314  -0.10091  -0.10001  -0.09781
 Alpha virt. eigenvalues --   -0.09351  -0.08335  -0.07278  -0.06959  -0.06242

 Mulliken charges:
               1
     1  P    0.787387
     2  P    0.673260
     3  O   -0.307527
     4  O   -0.318189
     5  O   -0.334786
     6  O   -0.320920
     7  N   -0.434168
     8  C    0.102837
     9  C   -0.225638
    10  H    0.134693
    11  C   -0.129077
    12  H    0.118736
    13  C    0.024667
    14  C   -0.141307
    15  H    0.116326
    16  C   -0.083209
    17  H    0.124716
    18  C   -0.071136
    19  H    0.123513
    20  C   -0.111603
    21  H    0.154351
    22  C    0.014172
    23  C   -0.006895
    24  C    0.034237
    25  C   -0.002476
    26  C   -0.114247
    27  H    0.155541
    28  C   -0.071625
    29  H    0.123076
    30  C   -0.082677
    31  H    0.124661
    32  C   -0.142734
    33  H    0.117561
    34  C    0.035018
    35  C   -0.162865
    36  H    0.120895
    37  C   -0.143198
    38  H    0.128656
    39  C    0.093357
    40  C    0.114537
    41  C   -0.028774
    42  H    0.145445
    43  C   -0.208663
    44  H    0.140596
    45  C    0.051912
    46  C   -0.205748
    47  H    0.127377
    48  C   -0.124786
    49  H    0.137030
    50  C    0.097546
    51  C   -0.152026
    52  H    0.130277
    53  C   -0.101983
    54  H    0.139859
    55  C    0.031360
    56  C   -0.184117
    57  H    0.127779
    58  C   -0.094403
    59  H    0.144618
    60  C   -0.431178
    61  H    0.129414
    62  H    0.138605
    63  H    0.144921
    64  C    0.046390
    65  H    0.162209
    66  C   -0.376313
    67  H    0.132911
    68  H    0.145952
    69  H    0.147681
    70  C   -0.373169
    71  H    0.143567
    72  H    0.140760
    73  H    0.140531
    74  C    0.043693
    75  C   -0.358325
    76  H    0.125470
    77  H    0.129816
    78  H    0.135985
    79  C   -0.360288
    80  H    0.119456
    81  H    0.123704
    82  H    0.137786
    83  C    0.045374
    84  C   -0.364288
    85  H    0.139913
    86  H    0.126325
    87  H    0.116446
    88  C   -0.356945
    89  H    0.126243
    90  H    0.136559
    91  H    0.129160
    92  C   -0.430737
    93  H    0.128069
    94  H    0.137924
    95  H    0.146201
    96  Rh  -0.634599
    97  C   -0.009146
    98  C   -0.117092
    99  C   -0.035420
   100  C   -0.093036
   101  H    0.215818
   102  C   -0.364535
   103  H    0.239232
   104  C   -0.231654
   105  C   -0.350428
   106  H    0.228279
   107  H    0.196778
   108  C   -0.224267
   109  H    0.167071
   110  H    0.176658
   111  H    0.176202
   112  H    0.137207
   113  H    0.171191
   114  H    0.167448
   115  H    0.176221
   116  H    0.147031
 Sum of Mulliken charges =   1.00000

 Dipole moment (field-independent basis, Debye):
    X=             -0.3668    Y=              0.1529    Z=              3.2557  Tot=              3.2798
 Quadrupole moment (field-independent basis, Debye-Ang):
   XX=           -264.7650   YY=           -325.9971   ZZ=           -330.8797
   XY=             -0.0636   XZ=             -7.6294   YZ=            -12.3178

 Summary of Natural Population Analysis:

                                       Natural Population
                Natural  -----------------------------------------------
    Atom  No    Charge         Core      Valence    Rydberg      Total
 -----------------------------------------------------------------------
      P    1    1.87007      9.99539     3.03373    0.10081    13.12993
      P    2    1.86811      9.99552     3.03683    0.09954    13.13189
      O    3   -0.74164      1.99979     6.72810    0.01375     8.74164
      O    4   -0.75180      1.99979     6.73848    0.01353     8.75180
      O    5   -0.75085      1.99977     6.73588    0.01520     8.75085
      O    6   -0.74831      1.99977     6.73323    0.01531     8.74831
      N    7   -1.04632      1.99958     6.02329    0.02345     8.04632
      C    8    0.25371      1.99862     3.72505    0.02262     5.74629
      C    9   -0.24788      1.99906     4.23365    0.01518     6.24788
      H   10    0.22725      0.00000     0.77112    0.00163     0.77275
      C   11   -0.14919      1.99914     4.13626    0.01378     6.14919
      H   12    0.21780      0.00000     0.78081    0.00139     0.78220
      C   13   -0.06460      1.99910     4.04954    0.01596     6.06460
      C   14   -0.17087      1.99914     4.15775    0.01398     6.17087
      H   15    0.21362      0.00000     0.78492    0.00145     0.78638
      C   16   -0.19472      1.99920     4.18071    0.01481     6.19472
      H   17    0.21985      0.00000     0.77897    0.00118     0.78015
      C   18   -0.18464      1.99920     4.17063    0.01480     6.18464
      H   19    0.21884      0.00000     0.77997    0.00119     0.78116
      C   20   -0.18796      1.99913     4.17473    0.01409     6.18796
      H   21    0.22187      0.00000     0.77641    0.00172     0.77813
      C   22   -0.03237      1.99904     4.01684    0.01649     6.03237
      C   23   -0.06038      1.99887     4.04222    0.01929     6.06038
      C   24   -0.06823      1.99887     4.04951    0.01985     6.06823
      C   25   -0.03068      1.99904     4.01488    0.01676     6.03068
      C   26   -0.18900      1.99913     4.17593    0.01394     6.18900
      H   27    0.22112      0.00000     0.77712    0.00176     0.77888
      C   28   -0.18373      1.99920     4.16972    0.01480     6.18373
      H   29    0.21877      0.00000     0.78005    0.00118     0.78123
      C   30   -0.19498      1.99920     4.18095    0.01483     6.19498
      H   31    0.21997      0.00000     0.77888    0.00115     0.78003
      C   32   -0.17032      1.99915     4.15694    0.01424     6.17032
      H   33    0.21395      0.00000     0.78442    0.00162     0.78605
      C   34   -0.06531      1.99909     4.05024    0.01598     6.06531
      C   35   -0.14671      1.99915     4.13343    0.01414     6.14671
      H   36    0.21864      0.00000     0.77981    0.00155     0.78136
      C   37   -0.24712      1.99906     4.23256    0.01551     6.24712
      H   38    0.22309      0.00000     0.77524    0.00167     0.77691
      C   39    0.26036      1.99860     3.71752    0.02352     5.73964
      C   40    0.24612      1.99863     3.73256    0.02269     5.75388
      C   41   -0.24678      1.99904     4.23343    0.01430     6.24678
      H   42    0.21918      0.00000     0.77865    0.00216     0.78082
      C   43   -0.19598      1.99911     4.18281    0.01406     6.19598
      H   44    0.21881      0.00000     0.77963    0.00156     0.78119
      C   45    0.00139      1.99905     3.97950    0.02006     5.99861
      C   46   -0.18439      1.99911     4.17183    0.01345     6.18439
      H   47    0.21541      0.00000     0.78296    0.00163     0.78459
      C   48   -0.23771      1.99906     4.22350    0.01516     6.23771
      H   49    0.22424      0.00000     0.77377    0.00200     0.77576
      C   50    0.23160      1.99863     3.74739    0.02238     5.76840
      C   51   -0.23910      1.99905     4.22519    0.01486     6.23910
      H   52    0.22155      0.00000     0.77678    0.00167     0.77845
      C   53   -0.19833      1.99911     4.18532    0.01390     6.19833
      H   54    0.21980      0.00000     0.77871    0.00149     0.78020
      C   55    0.00701      1.99905     3.97404    0.01989     5.99299
      C   56   -0.18591      1.99911     4.17318    0.01362     6.18591
      H   57    0.21332      0.00000     0.78483    0.00185     0.78668
      C   58   -0.23595      1.99905     4.22263    0.01427     6.23595
      H   59    0.22966      0.00000     0.76855    0.00179     0.77034
      C   60   -0.59622      1.99940     4.58833    0.00849     6.59622
      H   61    0.20265      0.00000     0.79589    0.00146     0.79735
      H   62    0.20663      0.00000     0.79195    0.00142     0.79337
      H   63    0.21528      0.00000     0.78342    0.00130     0.78472
      C   64   -0.03763      1.99938     4.01728    0.02097     6.03763
      H   65    0.20942      0.00000     0.78786    0.00272     0.79058
      C   66   -0.60164      1.99942     4.59419    0.00803     6.60164
      H   67    0.21081      0.00000     0.78789    0.00131     0.78919
      H   68    0.21420      0.00000     0.78424    0.00156     0.78580
      H   69    0.22246      0.00000     0.77649    0.00105     0.77754
      C   70   -0.60450      1.99941     4.59742    0.00767     6.60450
      H   71    0.22063      0.00000     0.77814    0.00123     0.77937
      H   72    0.21596      0.00000     0.78301    0.00103     0.78404
      H   73    0.21846      0.00000     0.78016    0.00137     0.78154
      C   74   -0.05897      1.99939     4.04698    0.01261     6.05897
      C   75   -0.58294      1.99938     4.57575    0.00780     6.58294
      H   76    0.20205      0.00000     0.79670    0.00125     0.79795
      H   77    0.20915      0.00000     0.78956    0.00129     0.79085
      H   78    0.20915      0.00000     0.78947    0.00137     0.79085
      C   79   -0.58248      1.99939     4.57533    0.00776     6.58248
      H   80    0.20385      0.00000     0.79480    0.00135     0.79615
      H   81    0.20104      0.00000     0.79770    0.00126     0.79896
      H   82    0.20991      0.00000     0.78870    0.00139     0.79009
      C   83   -0.05858      1.99939     4.04660    0.01259     6.05858
      C   84   -0.58237      1.99939     4.57515    0.00784     6.58237
      H   85    0.21069      0.00000     0.78792    0.00138     0.78931
      H   86    0.20162      0.00000     0.79699    0.00139     0.79838
      H   87    0.20103      0.00000     0.79751    0.00146     0.79897
      C   88   -0.58305      1.99938     4.57583    0.00783     6.58305
      H   89    0.20227      0.00000     0.79637    0.00136     0.79773
      H   90    0.20941      0.00000     0.78922    0.00137     0.79059
      H   91    0.20901      0.00000     0.78970    0.00129     0.79099
      C   92   -0.59598      1.99940     4.58809    0.00849     6.59598
      H   93    0.20196      0.00000     0.79658    0.00146     0.79804
      H   94    0.20641      0.00000     0.79216    0.00143     0.79359
      H   95    0.21564      0.00000     0.78306    0.00130     0.78436
     Rh   96   -0.54630     35.98376     9.53392    0.02861    45.54630
      C   97   -0.15949      1.99909     4.14039    0.02001     6.15949
      C   98   -0.16289      1.99910     4.14293    0.02086     6.16289
      C   99   -0.17460      1.99906     4.15538    0.02015     6.17460
      C  100   -0.14519      1.99907     4.12580    0.02032     6.14519
      H  101    0.23638      0.00000     0.76123    0.00239     0.76362
      C  102   -0.42474      1.99936     4.41303    0.01235     6.42474
      H  103    0.23909      0.00000     0.75857    0.00234     0.76091
      C  104   -0.42346      1.99935     4.41125    0.01286     6.42346
      C  105   -0.42433      1.99936     4.41337    0.01160     6.42433
      H  106    0.23449      0.00000     0.76306    0.00244     0.76551
      H  107    0.23860      0.00000     0.75962    0.00178     0.76140
      C  108   -0.42317      1.99935     4.41108    0.01275     6.42317
      H  109    0.21140      0.00000     0.78636    0.00223     0.78860
      H  110    0.23231      0.00000     0.76613    0.00156     0.76769
      H  111    0.23664      0.00000     0.76156    0.00180     0.76336
      H  112    0.22131      0.00000     0.77728    0.00141     0.77869
      H  113    0.23009      0.00000     0.76845    0.00146     0.76991
      H  114    0.21543      0.00000     0.78271    0.00187     0.78457
      H  115    0.23627      0.00000     0.76187    0.00185     0.76373
      H  116    0.22348      0.00000     0.77465    0.00187     0.77652
 =======================================================================
   * Total *    1.00000    167.92943   306.90672    1.16385   476.00000

 Normal termination of Gaussian 16 at Wed Nov  6 00:54:00 2024.
