 Gaussian 16, Revision B.01,
 Gaussian 16:  ES64L-G16RevB.01 20-Dec-2017

 ------------------------------------------
 # nmr=giao b3lyp/genecp pop=nbo scfcyc=200
 ------------------------------------------

 -------------
 Ligand 40 SPE
 -------------
 Symbolic Z-matrix:
 Charge =  1 Multiplicity = 1

                         Standard orientation:
 ---------------------------------------------------------------------
 Center     Atomic      Atomic             Coordinates (Angstroms)
 Number     Number       Type             X           Y           Z
 ---------------------------------------------------------------------
      1         15           0        1.310700   -0.373219    0.038151
      2         15           0       -1.310710   -0.373170   -0.038649
      3          8           0        2.269430   -0.128359    1.340661
      4          8           0        2.251300    0.189461   -1.192649
      5          8           0       -2.269580   -0.128250   -1.341039
      6          8           0       -2.251110    0.189600    1.192271
      7          7           0        0.000009    0.743340   -0.000399
      8          6           0        3.148459    0.965421    1.457701
      9          6           0        2.877319    1.862941    2.503601
     10          1           0        2.030489    1.673761    3.149021
     11          6           0        3.690379    2.947271    2.679361
     12          1           0        3.502609    3.643341    3.487731
     13          6           0        4.766679    3.195461    1.793321
     14          6           0        5.565429    4.358761    1.921961
     15          1           0        5.359099    5.041371    2.737871
     16          6           0        6.567309    4.628252    1.026901
     17          1           0        7.167869    5.522952    1.131021
     18          6           0        6.804879    3.743602   -0.044619
     19          1           0        7.579229    3.972802   -0.766049
     20          6           0        6.062379    2.598061   -0.187009
     21          1           0        6.257979    1.938572   -1.020029
     22          6           0        5.034209    2.272231    0.733571
     23          6           0        4.231549    1.085031    0.613831
     24          6           0        4.521080    0.034891   -0.399699
     25          6           0        5.792090   -0.631699   -0.480609
     26          6           0        6.809710   -0.456588    0.491121
     27          1           0        6.632610    0.199682    1.330821
     28          6           0        8.009290   -1.114928    0.386651
     29          1           0        8.767560   -0.970128    1.145951
     30          6           0        8.264680   -1.981118   -0.696189
     31          1           0        9.220160   -2.484738   -0.769739
     32          6           0        7.296410   -2.192938   -1.642259
     33          1           0        7.474710   -2.870568   -2.468889
     34          6           0        6.038600   -1.545909   -1.554219
     35          6           0        5.014840   -1.807269   -2.497489
     36          1           0        5.217840   -2.480019   -3.321999
     37          6           0        3.778360   -1.238159   -2.360409
     38          1           0        2.975630   -1.439209   -3.057729
     39          6           0        3.546750   -0.347409   -1.297379
     40          6           0       -3.148671    0.965500   -1.457889
     41          6           0       -2.877651    1.863100   -2.503749
     42          1           0       -2.030881    1.674000   -3.149259
     43          6           0       -3.690751    2.947430   -2.679339
     44          1           0       -3.503081    3.643570   -3.487679
     45          6           0       -4.766981    3.195520   -1.793179
     46          6           0       -5.565781    4.358809   -1.921669
     47          1           0       -5.359551    5.041480   -2.737549
     48          6           0       -6.567581    4.628199   -1.026489
     49          1           0       -7.168181    5.522889   -1.130489
     50          6           0       -6.805011    3.743469    0.045001
     51          1           0       -7.579291    3.972589    0.766521
     52          6           0       -6.062461    2.597949    0.187241
     53          1           0       -6.257941    1.938399    1.020241
     54          6           0       -5.034371    2.272210   -0.733469
     55          6           0       -4.231651    1.085040   -0.613879
     56          6           0       -4.520990    0.034880    0.399681
     57          6           0       -5.791960   -0.631761    0.480791
     58          6           0       -6.809730   -0.456731   -0.490789
     59          1           0       -6.632780    0.199529   -1.330529
     60          6           0       -8.009270   -1.115111   -0.386129
     61          1           0       -8.767660   -0.970371   -1.145319
     62          6           0       -8.264460   -1.981291    0.696771
     63          1           0       -9.219910   -2.484941    0.770481
     64          6           0       -7.296040   -2.193041    1.642721
     65          1           0       -7.474200   -2.870641    2.469391
     66          6           0       -6.038270   -1.545961    1.554481
     67          6           0       -5.014380   -1.807220    2.497611
     68          1           0       -5.217220   -2.479940    3.322181
     69          6           0       -3.777930   -1.238060    2.360341
     70          1           0       -2.975100   -1.439040    3.057561
     71          6           0       -3.546510   -0.347350    1.297231
     72         45           0       -0.000030   -2.249850   -0.000169
     73          6           0        1.491370   -3.940779   -0.494909
     74          6           0        1.427740   -3.792669    0.871461
     75          6           0       -1.491490   -3.940650    0.494961
     76          6           0       -1.427860   -3.792840   -0.871439
     77          1           0        2.287850   -3.410439   -1.005569
     78          6           0        0.795120   -5.015269   -1.308299
     79          1           0        2.190680   -3.178469    1.339531
     80          6           0        0.594980   -4.598139    1.836261
     81          6           0       -0.795250   -5.014980    1.308581
     82          1           0       -2.287950   -3.410180    1.005521
     83          1           0       -2.190790   -3.178720   -1.339629
     84          6           0       -0.595120   -4.598540   -1.836059
     85          1           0        0.722001   -5.930059   -0.721259
     86          1           0        1.425980   -5.258139   -2.164839
     87          1           0        1.156011   -5.489699    2.143221
     88          1           0        0.470310   -4.000799    2.741821
     89          1           0       -1.426120   -5.257680    2.165171
     90          1           0       -0.722139   -5.929890    0.721731
     91          1           0       -1.156159   -5.490170   -2.142809
     92          1           0       -0.470450   -4.001400   -2.741749
     93          6           0        0.000089    2.185280   -0.000219
     94          6           0        0.562799    2.877641   -1.071749
     95          6           0       -0.562611    2.877500    1.071391
     96          6           0        0.567489    4.267311   -1.062199
     97          1           0        0.998069    2.329851   -1.895729
     98          6           0       -0.567181    4.267170    1.062081
     99          1           0       -0.997971    2.329610    1.895261
    100          6           0        0.000189    4.964110    0.000011
    101          1           0        1.011479    4.805321   -1.890209
    102          1           0       -1.011161    4.805060    1.890181
    103          1           0        0.000229    6.046730    0.000101
 ---------------------------------------------------------------------

 SCF Done:  E(RB3LYP) =  -3232.18653566     A.U. after   24 cycles

      1  P    Isotropic =   160.5301   Anisotropy =   200.3111

      2  P    Isotropic =   160.5361   Anisotropy =   200.3333

      3  O    Isotropic =   137.3651   Anisotropy =    58.7024

      4  O    Isotropic =   134.8247   Anisotropy =    73.1406

      5  O    Isotropic =   137.3694   Anisotropy =    58.6999

      6  O    Isotropic =   134.8208   Anisotropy =    73.1417

      7  N    Isotropic =    49.3046   Anisotropy =    68.0731

      8  C    Isotropic =    26.8359   Anisotropy =   106.8646

      9  C    Isotropic =    60.7942   Anisotropy =   150.7384

     10  H    Isotropic =    24.6436   Anisotropy =     7.5659

     11  C    Isotropic =    47.3756   Anisotropy =   166.2820

     12  H    Isotropic =    24.1724   Anisotropy =     7.6635

     13  C    Isotropic =    46.1219   Anisotropy =   214.7324

     14  C    Isotropic =    50.6789   Anisotropy =   164.8352

     15  H    Isotropic =    23.9972   Anisotropy =     7.8042

     16  C    Isotropic =    52.0537   Anisotropy =   185.4765

     17  H    Isotropic =    24.2094   Anisotropy =     4.1575

     18  C    Isotropic =    50.9998   Anisotropy =   186.5141

     19  H    Isotropic =    24.4002   Anisotropy =     7.8553

     20  C    Isotropic =    52.0129   Anisotropy =   178.7149

     21  H    Isotropic =    24.6939   Anisotropy =    14.8742

     22  C    Isotropic =    45.3595   Anisotropy =   204.8012

     23  C    Isotropic =    55.6159   Anisotropy =   137.7083

     24  C    Isotropic =    52.2842   Anisotropy =   141.0485

     25  C    Isotropic =    44.3827   Anisotropy =   203.2716

     26  C    Isotropic =    51.4860   Anisotropy =   180.5042

     27  H    Isotropic =    24.5582   Anisotropy =    15.0066

     28  C    Isotropic =    50.5051   Anisotropy =   187.3736

     29  H    Isotropic =    24.3098   Anisotropy =     7.8613

     30  C    Isotropic =    51.5100   Anisotropy =   186.8402

     31  H    Isotropic =    24.0417   Anisotropy =     4.2654

     32  C    Isotropic =    50.6063   Anisotropy =   164.2609

     33  H    Isotropic =    23.6851   Anisotropy =     7.7682

     34  C    Isotropic =    45.9470   Anisotropy =   214.4624

     35  C    Isotropic =    47.2024   Anisotropy =   163.8306

     36  H    Isotropic =    23.6159   Anisotropy =     7.6701

     37  C    Isotropic =    61.0033   Anisotropy =   146.8472

     38  H    Isotropic =    24.0941   Anisotropy =     7.6101

     39  C    Isotropic =    30.0179   Anisotropy =   102.8270

     40  C    Isotropic =    26.8356   Anisotropy =   106.8620

     41  C    Isotropic =    60.7938   Anisotropy =   150.7373

     42  H    Isotropic =    24.6437   Anisotropy =     7.5663

     43  C    Isotropic =    47.3731   Anisotropy =   166.2821

     44  H    Isotropic =    24.1723   Anisotropy =     7.6632

     45  C    Isotropic =    46.1214   Anisotropy =   214.7337

     46  C    Isotropic =    50.6797   Anisotropy =   164.8399

     47  H    Isotropic =    23.9971   Anisotropy =     7.8042

     48  C    Isotropic =    52.0548   Anisotropy =   185.4807

     49  H    Isotropic =    24.2092   Anisotropy =     4.1575

     50  C    Isotropic =    51.0012   Anisotropy =   186.5145

     51  H    Isotropic =    24.4003   Anisotropy =     7.8559

     52  C    Isotropic =    52.0149   Anisotropy =   178.7195

     53  H    Isotropic =    24.6940   Anisotropy =    14.8751

     54  C    Isotropic =    45.3576   Anisotropy =   204.7974

     55  C    Isotropic =    55.6167   Anisotropy =   137.7038

     56  C    Isotropic =    52.2824   Anisotropy =   141.0520

     57  C    Isotropic =    44.3823   Anisotropy =   203.2761

     58  C    Isotropic =    51.4859   Anisotropy =   180.5020

     59  H    Isotropic =    24.5578   Anisotropy =    15.0059

     60  C    Isotropic =    50.5047   Anisotropy =   187.3739

     61  H    Isotropic =    24.3096   Anisotropy =     7.8607

     62  C    Isotropic =    51.5068   Anisotropy =   186.8406

     63  H    Isotropic =    24.0416   Anisotropy =     4.2655

     64  C    Isotropic =    50.6048   Anisotropy =   164.2620

     65  H    Isotropic =    23.6852   Anisotropy =     7.7685

     66  C    Isotropic =    45.9466   Anisotropy =   214.4623

     67  C    Isotropic =    47.2035   Anisotropy =   163.8311

     68  H    Isotropic =    23.6158   Anisotropy =     7.6708

     69  C    Isotropic =    61.0023   Anisotropy =   146.8501

     70  H    Isotropic =    24.0940   Anisotropy =     7.6097

     71  C    Isotropic =    30.0177   Anisotropy =   102.8281

     72  Rh   Isotropic =  -269.5646   Anisotropy =   318.4024

     73  C    Isotropic =    74.8200   Anisotropy =   128.7260

     74  C    Isotropic =    70.2257   Anisotropy =   128.9969

     75  C    Isotropic =    74.8136   Anisotropy =   128.7347

     76  C    Isotropic =    70.2262   Anisotropy =   128.9959

     77  H    Isotropic =    26.9429   Anisotropy =    10.4546

     78  C    Isotropic =   154.2793   Anisotropy =    24.5176

     79  H    Isotropic =    26.2426   Anisotropy =     3.2313

     80  C    Isotropic =   148.1903   Anisotropy =    30.3146

     81  C    Isotropic =   154.2788   Anisotropy =    24.5165

     82  H    Isotropic =    26.9426   Anisotropy =    10.4562

     83  H    Isotropic =    26.2429   Anisotropy =     3.2306

     84  C    Isotropic =   148.1915   Anisotropy =    30.3126

     85  H    Isotropic =    29.8508   Anisotropy =     9.2655

     86  H    Isotropic =    29.9560   Anisotropy =    11.5552

     87  H    Isotropic =    29.2948   Anisotropy =    12.2168

     88  H    Isotropic =    29.1397   Anisotropy =     7.3426

     89  H    Isotropic =    29.9558   Anisotropy =    11.5548

     90  H    Isotropic =    29.8508   Anisotropy =     9.2655

     91  H    Isotropic =    29.2947   Anisotropy =    12.2171

     92  H    Isotropic =    29.1398   Anisotropy =     7.3436

     93  C    Isotropic =    40.9930   Anisotropy =   132.3827

     94  C    Isotropic =    50.5126   Anisotropy =   174.5011

     95  C    Isotropic =    50.5142   Anisotropy =   174.5027

     96  C    Isotropic =    50.3086   Anisotropy =   191.9426

     97  H    Isotropic =    24.3997   Anisotropy =     8.3783

     98  C    Isotropic =    50.3104   Anisotropy =   191.9397

     99  H    Isotropic =    24.3993   Anisotropy =     8.3791

    100  C    Isotropic =    49.3956   Anisotropy =   197.5734

    101  H    Isotropic =    24.9956   Anisotropy =     4.9690

    102  H    Isotropic =    24.9955   Anisotropy =     4.9698

    103  H    Isotropic =    24.9989   Anisotropy =     1.3348

 The electronic state is 1-A.
 Alpha  occ. eigenvalues --  -77.32606 -77.32605 -19.27137 -19.27137 -19.27117
 Alpha  occ. eigenvalues --  -19.27117 -14.45829 -10.33444 -10.33443 -10.33159
 Alpha  occ. eigenvalues --  -10.33159 -10.31040 -10.29676 -10.29676 -10.29429
 Alpha  occ. eigenvalues --  -10.29429 -10.28558 -10.28558 -10.28187 -10.28187
 Alpha  occ. eigenvalues --  -10.27880 -10.27879 -10.27709 -10.27709 -10.27701
 Alpha  occ. eigenvalues --  -10.27700 -10.27308 -10.27308 -10.27165 -10.27165
 Alpha  occ. eigenvalues --  -10.27006 -10.27006 -10.26938 -10.26938 -10.26635
 Alpha  occ. eigenvalues --  -10.26635 -10.26422 -10.26420 -10.26355 -10.26355
 Alpha  occ. eigenvalues --  -10.26281 -10.26281 -10.26064 -10.26052 -10.25924
 Alpha  occ. eigenvalues --  -10.25611 -10.25610 -10.25433 -10.25433 -10.25365
 Alpha  occ. eigenvalues --  -10.25365 -10.25309 -10.25308 -10.25172 -10.25172
 Alpha  occ. eigenvalues --  -10.25074 -10.25074 -10.25009 -10.25009 -10.24885
 Alpha  occ. eigenvalues --  -10.24885  -6.77387  -6.77387  -4.93779  -4.93778
 Alpha  occ. eigenvalues --   -4.93731  -4.93728  -4.93247  -4.93247  -3.32981
 Alpha  occ. eigenvalues --   -2.10147  -2.09271  -2.06152  -1.19313  -1.19000
 Alpha  occ. eigenvalues --   -1.14871  -1.14850  -1.03948  -0.97558  -0.97460
 Alpha  occ. eigenvalues --   -0.95873  -0.95871  -0.94942  -0.94271  -0.91804
 Alpha  occ. eigenvalues --   -0.91579  -0.90719  -0.90714  -0.89744  -0.88675
 Alpha  occ. eigenvalues --   -0.88674  -0.88432  -0.85008  -0.84716  -0.84700
 Alpha  occ. eigenvalues --   -0.84144  -0.83765  -0.82911  -0.82717  -0.82637
 Alpha  occ. eigenvalues --   -0.82008  -0.81911  -0.80810  -0.79824  -0.79802
 Alpha  occ. eigenvalues --   -0.78287  -0.77654  -0.76189  -0.72844  -0.72415
 Alpha  occ. eigenvalues --   -0.71895  -0.71668  -0.71009  -0.70863  -0.70532
 Alpha  occ. eigenvalues --   -0.70349  -0.69896  -0.69621  -0.69468  -0.68330
 Alpha  occ. eigenvalues --   -0.66928  -0.66350  -0.66298  -0.66166  -0.64311
 Alpha  occ. eigenvalues --   -0.64101  -0.63920  -0.62851  -0.61624  -0.61550
 Alpha  occ. eigenvalues --   -0.61085  -0.60918  -0.60639  -0.60360  -0.59651
 Alpha  occ. eigenvalues --   -0.59153  -0.58473  -0.58061  -0.58060  -0.57740
 Alpha  occ. eigenvalues --   -0.57301  -0.57015  -0.56580  -0.55966  -0.55899
 Alpha  occ. eigenvalues --   -0.55000  -0.54682  -0.54423  -0.54378  -0.54036
 Alpha  occ. eigenvalues --   -0.53693  -0.53659  -0.53232  -0.52974  -0.52960
 Alpha  occ. eigenvalues --   -0.52754  -0.52489  -0.52465  -0.52285  -0.52038
 Alpha  occ. eigenvalues --   -0.51198  -0.51146  -0.51065  -0.50948  -0.50898
 Alpha  occ. eigenvalues --   -0.50458  -0.50457  -0.50239  -0.50121  -0.49294
 Alpha  occ. eigenvalues --   -0.48751  -0.48319  -0.48229  -0.47992  -0.47957
 Alpha  occ. eigenvalues --   -0.47876  -0.47845  -0.47080  -0.47037  -0.46748
 Alpha  occ. eigenvalues --   -0.46592  -0.46401  -0.46039  -0.45162  -0.45017
 Alpha  occ. eigenvalues --   -0.45005  -0.44645  -0.44449  -0.43817  -0.43779
 Alpha  occ. eigenvalues --   -0.43498  -0.43464  -0.43244  -0.43157  -0.42865
 Alpha  occ. eigenvalues --   -0.42696  -0.42231  -0.42163  -0.41443  -0.41309
 Alpha  occ. eigenvalues --   -0.40951  -0.40910  -0.40832  -0.40617  -0.40213
 Alpha  occ. eigenvalues --   -0.38371  -0.38333  -0.38046  -0.37788  -0.36748
 Alpha  occ. eigenvalues --   -0.36569  -0.36476  -0.36155  -0.35132  -0.34426
 Alpha  occ. eigenvalues --   -0.34040  -0.33357  -0.33285  -0.32770  -0.32322
 Alpha  occ. eigenvalues --   -0.31857  -0.30779  -0.30774  -0.29819  -0.29781
 Alpha virt. eigenvalues --   -0.16905  -0.15198  -0.14192  -0.14122  -0.12579
 Alpha virt. eigenvalues --   -0.12470  -0.10973  -0.10749  -0.10328  -0.10285
 Alpha virt. eigenvalues --   -0.09915  -0.09630  -0.09460  -0.08698  -0.07099

 Mulliken charges:
               1
     1  P    0.845891
     2  P    0.845898
     3  O   -0.323207
     4  O   -0.316800
     5  O   -0.323203
     6  O   -0.316814
     7  N   -0.454794
     8  C    0.173491
     9  C   -0.149414
    10  H    0.123461
    11  C   -0.154252
    12  H    0.117344
    13  C    0.026290
    14  C   -0.137256
    15  H    0.115419
    16  C   -0.085709
    17  H    0.122794
    18  C   -0.072002
    19  H    0.121168
    20  C   -0.120431
    21  H    0.153070
    22  C    0.007783
    23  C    0.009464
    24  C   -0.003343
    25  C    0.008392
    26  C   -0.111934
    27  H    0.156350
    28  C   -0.071905
    29  H    0.123678
    30  C   -0.082380
    31  H    0.124594
    32  C   -0.142618
    33  H    0.115877
    34  C    0.028118
    35  C   -0.129594
    36  H    0.118237
    37  C   -0.238225
    38  H    0.135430
    39  C    0.103392
    40  C    0.173504
    41  C   -0.149418
    42  H    0.123465
    43  C   -0.154252
    44  H    0.117345
    45  C    0.026268
    46  C   -0.137246
    47  H    0.115423
    48  C   -0.085717
    49  H    0.122793
    50  C   -0.072000
    51  H    0.121168
    52  C   -0.120439
    53  H    0.153077
    54  C    0.007777
    55  C    0.009479
    56  C   -0.003329
    57  C    0.008418
    58  C   -0.111944
    59  H    0.156345
    60  C   -0.071893
    61  H    0.123681
    62  C   -0.082384
    63  H    0.124596
    64  C   -0.142622
    65  H    0.115878
    66  C    0.028109
    67  C   -0.129572
    68  H    0.118237
    69  C   -0.238258
    70  H    0.135429
    71  C    0.103356
    72  Rh  -0.706741
    73  C   -0.041532
    74  C   -0.095194
    75  C   -0.041576
    76  C   -0.095167
    77  H    0.236001
    78  C   -0.351493
    79  H    0.196504
    80  C   -0.215738
    81  C   -0.351493
    82  H    0.236032
    83  H    0.196497
    84  C   -0.215737
    85  H    0.167465
    86  H    0.171050
    87  H    0.176843
    88  H    0.141452
    89  H    0.171046
    90  H    0.167466
    91  H    0.176845
    92  H    0.141455
    93  C    0.049466
    94  C   -0.106388
    95  C   -0.106344
    96  C   -0.103515
    97  H    0.140502
    98  C   -0.103534
    99  H    0.140512
   100  C   -0.085690
   101  H    0.126120
   102  H    0.126117
   103  H    0.131233
 Sum of Mulliken charges =   1.00000

 Dipole moment (field-independent basis, Debye):
    X=             -0.0002    Y=             -3.3738    Z=              0.0006  Tot=              3.3738
 Quadrupole moment (field-independent basis, Debye-Ang):
   XX=           -262.5667   YY=           -293.8136   ZZ=           -352.8721
   XY=              0.0004   XZ=             -7.7309   YZ=             -0.0002

 Summary of Natural Population Analysis:

                                       Natural Population
                Natural  -----------------------------------------------
    Atom  No    Charge         Core      Valence    Rydberg      Total
 -----------------------------------------------------------------------
      P    1    1.88197      9.99540     3.02428    0.09835    13.11803
      P    2    1.88196      9.99540     3.02429    0.09835    13.11804
      O    3   -0.74710      1.99979     6.73420    0.01311     8.74710
      O    4   -0.74154      1.99979     6.72832    0.01343     8.74154
      O    5   -0.74710      1.99979     6.73420    0.01311     8.74710
      O    6   -0.74155      1.99979     6.72833    0.01343     8.74155
      N    7   -1.03391      1.99956     6.00942    0.02493     8.03391
      C    8    0.26528      1.99860     3.71353    0.02260     5.73472
      C    9   -0.23521      1.99906     4.22112    0.01503     6.23521
      H   10    0.22703      0.00000     0.77130    0.00167     0.77297
      C   11   -0.14401      1.99915     4.13084    0.01402     6.14401
      H   12    0.21754      0.00000     0.78091    0.00154     0.78246
      C   13   -0.06335      1.99909     4.04829    0.01597     6.06335
      C   14   -0.17003      1.99915     4.15665    0.01424     6.17003
      H   15    0.21325      0.00000     0.78512    0.00163     0.78675
      C   16   -0.19688      1.99920     4.18281    0.01488     6.19688
      H   17    0.21890      0.00000     0.77994    0.00116     0.78110
      C   18   -0.18625      1.99920     4.17218    0.01486     6.18625
      H   19    0.21765      0.00000     0.78116    0.00119     0.78235
      C   20   -0.18975      1.99913     4.17668    0.01394     6.18975
      H   21    0.21972      0.00000     0.77850    0.00178     0.78028
      C   22   -0.03024      1.99904     4.01438    0.01682     6.03024
      C   23   -0.07074      1.99887     4.05235    0.01953     6.07074
      C   24   -0.05729      1.99887     4.03931    0.01911     6.05729
      C   25   -0.03272      1.99904     4.01713    0.01655     6.03272
      C   26   -0.18667      1.99913     4.17344    0.01410     6.18667
      H   27    0.22290      0.00000     0.77539    0.00171     0.77710
      C   28   -0.18476      1.99920     4.17077    0.01480     6.18476
      H   29    0.21898      0.00000     0.77984    0.00119     0.78102
      C   30   -0.19427      1.99920     4.18028    0.01480     6.19427
      H   31    0.21975      0.00000     0.77907    0.00118     0.78025
      C   32   -0.17158      1.99914     4.15845    0.01398     6.17158
      H   33    0.21344      0.00000     0.78511    0.00146     0.78656
      C   34   -0.06458      1.99910     4.04951    0.01597     6.06458
      C   35   -0.15017      1.99914     4.13723    0.01380     6.15017
      H   36    0.21772      0.00000     0.78088    0.00140     0.78228
      C   37   -0.25022      1.99906     4.23600    0.01516     6.25022
      H   38    0.22695      0.00000     0.77138    0.00167     0.77305
      C   39    0.25039      1.99861     3.72849    0.02251     5.74961
      C   40    0.26528      1.99860     3.71352    0.02260     5.73472
      C   41   -0.23521      1.99906     4.22113    0.01503     6.23521
      H   42    0.22703      0.00000     0.77130    0.00167     0.77297
      C   43   -0.14400      1.99915     4.13084    0.01402     6.14400
      H   44    0.21754      0.00000     0.78091    0.00154     0.78246
      C   45   -0.06335      1.99909     4.04828    0.01597     6.06335
      C   46   -0.17003      1.99915     4.15665    0.01424     6.17003
      H   47    0.21325      0.00000     0.78512    0.00163     0.78675
      C   48   -0.19688      1.99920     4.18281    0.01488     6.19688
      H   49    0.21890      0.00000     0.77994    0.00116     0.78110
      C   50   -0.18625      1.99920     4.17219    0.01486     6.18625
      H   51    0.21765      0.00000     0.78116    0.00119     0.78235
      C   52   -0.18975      1.99913     4.17668    0.01394     6.18975
      H   53    0.21972      0.00000     0.77850    0.00178     0.78028
      C   54   -0.03024      1.99904     4.01438    0.01682     6.03024
      C   55   -0.07075      1.99887     4.05236    0.01953     6.07075
      C   56   -0.05729      1.99887     4.03931    0.01911     6.05729
      C   57   -0.03271      1.99904     4.01713    0.01655     6.03271
      C   58   -0.18668      1.99913     4.17344    0.01410     6.18668
      H   59    0.22290      0.00000     0.77539    0.00171     0.77710
      C   60   -0.18476      1.99920     4.17076    0.01480     6.18476
      H   61    0.21898      0.00000     0.77983    0.00119     0.78102
      C   62   -0.19427      1.99920     4.18027    0.01480     6.19427
      H   63    0.21975      0.00000     0.77907    0.00118     0.78025
      C   64   -0.17158      1.99914     4.15845    0.01398     6.17158
      H   65    0.21344      0.00000     0.78511    0.00146     0.78656
      C   66   -0.06458      1.99910     4.04951    0.01597     6.06458
      C   67   -0.15017      1.99914     4.13723    0.01380     6.15017
      H   68    0.21772      0.00000     0.78088    0.00140     0.78228
      C   69   -0.25022      1.99906     4.23601    0.01516     6.25022
      H   70    0.22695      0.00000     0.77138    0.00167     0.77305
      C   71    0.25038      1.99861     3.72849    0.02251     5.74962
     Rh   72   -0.56104     35.98326     9.54970    0.02807    45.56104
      C   73   -0.16721      1.99907     4.14779    0.02035     6.16721
      C   74   -0.14392      1.99906     4.12466    0.02021     6.14392
      C   75   -0.16719      1.99907     4.14777    0.02035     6.16719
      C   76   -0.14393      1.99906     4.12467    0.02021     6.14393
      H   77    0.23565      0.00000     0.76182    0.00253     0.76435
      C   78   -0.42411      1.99936     4.41269    0.01205     6.42411
      H   79    0.23903      0.00000     0.75934    0.00163     0.76097
      C   80   -0.42539      1.99936     4.41371    0.01232     6.42539
      C   81   -0.42411      1.99936     4.41269    0.01205     6.42411
      H   82    0.23565      0.00000     0.76182    0.00253     0.76435
      H   83    0.23903      0.00000     0.75934    0.00163     0.76097
      C   84   -0.42539      1.99936     4.41371    0.01232     6.42539
      H   85    0.21226      0.00000     0.78575    0.00199     0.78774
      H   86    0.23071      0.00000     0.76785    0.00144     0.76929
      H   87    0.23780      0.00000     0.76036    0.00184     0.76220
      H   88    0.22383      0.00000     0.77467    0.00150     0.77617
      H   89    0.23070      0.00000     0.76785    0.00144     0.76930
      H   90    0.21226      0.00000     0.78575    0.00199     0.78774
      H   91    0.23780      0.00000     0.76036    0.00184     0.76220
      H   92    0.22383      0.00000     0.77467    0.00150     0.77617
      C   93    0.08853      1.99889     3.88591    0.02667     5.91147
      C   94   -0.20094      1.99907     4.18770    0.01417     6.20094
      C   95   -0.20095      1.99907     4.18771    0.01417     6.20095
      C   96   -0.19082      1.99921     4.17700    0.01461     6.19082
      H   97    0.22770      0.00000     0.77050    0.00180     0.77230
      C   98   -0.19083      1.99921     4.17700    0.01462     6.19083
      H   99    0.22770      0.00000     0.77050    0.00180     0.77230
      C  100   -0.18844      1.99921     4.17465    0.01458     6.18844
      H  101    0.21921      0.00000     0.77959    0.00119     0.78079
      H  102    0.21921      0.00000     0.77959    0.00119     0.78079
      H  103    0.21908      0.00000     0.77976    0.00115     0.78092
 =======================================================================
   * Total *    1.00000    173.92310   302.83597    1.24093   478.00000

 Normal termination of Gaussian 16 at Wed Nov  6 01:10:51 2024.
