 Gaussian 16, Revision B.01,
 Gaussian 16:  ES64L-G16RevB.01 20-Dec-2017

 ------------------------------------------
 # nmr=giao b3lyp/genecp pop=nbo scfcyc=200
 ------------------------------------------

 -------------
 Ligand 43 SPE
 -------------
 Symbolic Z-matrix:
 Charge =  1 Multiplicity = 1

                         Standard orientation:
 ---------------------------------------------------------------------
 Center     Atomic      Atomic             Coordinates (Angstroms)
 Number     Number       Type             X           Y           Z
 ---------------------------------------------------------------------
      1         15           0       -1.374779   -0.351949    0.075980
      2         15           0        1.319101   -0.310488    0.057770
      3          7           0       -0.012409   -1.366779    0.460870
      4          6           0       -0.083509   -2.845489    0.680540
      5          1           0       -1.103679   -3.012759    1.040100
      6          6           0        0.866601   -3.301249    1.797280
      7          1           0        0.709831   -2.668519    2.672660
      8          1           0        1.902101   -3.139658    1.485710
      9          6           0        0.682012   -4.766059    2.201250
     10          1           0        1.309582   -5.002018    3.061880
     11          1           0        0.956012   -5.452879    1.399910
     12          1           0       -0.353798   -4.973539    2.482180
     13          6           0        0.091801   -3.644499   -0.615440
     14          1           0       -0.536379   -3.246729   -1.410550
     15          1           0       -0.197518   -4.683559   -0.454850
     16          1           0        1.126221   -3.633668   -0.957010
     17          6           0       -2.366109   -1.137959   -1.263410
     18          6           0       -3.318339   -2.129840   -1.003970
     19          1           0       -3.530169   -2.433030    0.013170
     20          6           0       -4.008449   -2.727380   -2.052020
     21          1           0       -4.742699   -3.495200   -1.842830
     22          6           0       -3.761279   -2.337500   -3.365340
     23          1           0       -4.304049   -2.802040   -4.178960
     24          6           0       -2.822709   -1.345509   -3.630990
     25          1           0       -2.636119   -1.033509   -4.650950
     26          6           0       -2.129339   -0.747269   -2.584920
     27          1           0       -1.403700    0.030791   -2.789940
     28          6           0       -2.508809   -0.358189    1.525890
     29          6           0       -2.112639   -0.822169    2.780990
     30          1           0       -1.136289   -1.267349    2.910830
     31          6           0       -2.974599   -0.729989    3.869750
     32          1           0       -2.660559   -1.104959    4.835870
     33          6           0       -4.234000   -0.161080    3.718580
     34          1           0       -4.902880   -0.088210    4.566680
     35          6           0       -4.634410    0.310630    2.471390
     36          1           0       -5.615580    0.751080    2.346130
     37          6           0       -3.779400    0.212930    1.380610
     38          1           0       -4.113630    0.569130    0.413370
     39          6           0        2.362211   -1.092088   -1.243150
     40          6           0        3.380081   -2.009028   -0.956830
     41          1           0        3.616151   -2.265068    0.067430
     42          6           0        4.101281   -2.599658   -1.987190
     43          1           0        4.886731   -3.307858   -1.754870
     44          6           0        3.816891   -2.282468   -3.312720
     45          1           0        4.381921   -2.743488   -4.113030
     46          6           0        2.809041   -1.370528   -3.606570
     47          1           0        2.588071   -1.117628   -4.635910
     48          6           0        2.087271   -0.776538   -2.577070
     49          1           0        1.304550   -0.064588   -2.808470
     50          6           0        2.419440   -0.077268    1.516660
     51          6           0        1.873180   -0.019568    2.802310
     52          1           0        0.822740   -0.224309    2.953110
     53          6           0        2.668710    0.308092    3.892870
     54          1           0        2.234460    0.337102    4.884450
     55          6           0        4.016410    0.605912    3.712270
     56          1           0        4.635430    0.862392    4.562620
     57          6           0        4.561850    0.580702    2.433810
     58          1           0        5.607200    0.819563    2.283290
     59          6           0        3.770010    0.245322    1.339700
     60          1           0        4.214310    0.233872    0.353410
     61         45           0       -0.060840    1.507681   -0.407040
     62          6           0       -1.530360    3.049921   -1.256600
     63          6           0       -1.516700    3.154871    0.117470
     64          6           0        1.394640    3.258132   -0.155250
     65          6           0        1.387430    2.873662   -1.478540
     66          1           0       -2.309950    2.435051   -1.693580
     67          6           0       -0.815071    3.979911   -2.219420
     68          1           0       -2.300360    2.639731    0.663150
     69          6           0       -0.740311    4.148641    0.945600
     70          6           0        0.674779    4.464471    0.416330
     71          1           0        2.166120    2.832972    0.477320
     72          1           0        2.182070    2.210542   -1.805400
     73          6           0        0.608290    3.515561   -2.600870
     74          1           0       -0.784961    4.985411   -1.800330
     75          1           0       -1.408111    4.055091   -3.132430
     76          1           0       -1.316231    5.077861    1.039830
     77          1           0       -0.661230    3.743581    1.956500
     78          1           0        1.269519    4.862302    1.240200
     79          1           0        0.633369    5.254861   -0.332710
     80          1           0        1.175629    4.362612   -3.006410
     81          1           0        0.540330    2.790371   -3.415090
 ---------------------------------------------------------------------

 SCF Done:  E(RB3LYP) =  -2244.97513170     A.U. after   16 cycles

      1  P    Isotropic =   229.3671   Anisotropy =    74.3567

      2  P    Isotropic =   228.3359   Anisotropy =    75.1885

      3  N    Isotropic =   131.3078   Anisotropy =    92.5169

      4  C    Isotropic =   116.2833   Anisotropy =    59.2591

      5  H    Isotropic =    28.6625   Anisotropy =     4.3998

      6  C    Isotropic =   149.1436   Anisotropy =    17.7696

      7  H    Isotropic =    29.7141   Anisotropy =     5.1191

      8  H    Isotropic =    30.5174   Anisotropy =     6.8730

      9  C    Isotropic =   172.0734   Anisotropy =    24.6286

     10  H    Isotropic =    30.8279   Anisotropy =    11.9774

     11  H    Isotropic =    31.2403   Anisotropy =     9.3101

     12  H    Isotropic =    31.3713   Anisotropy =     9.6850

     13  C    Isotropic =   166.3730   Anisotropy =    21.6178

     14  H    Isotropic =    32.4937   Anisotropy =     9.1502

     15  H    Isotropic =    31.5786   Anisotropy =    10.3092

     16  H    Isotropic =    32.2757   Anisotropy =     9.3681

     17  C    Isotropic =    42.4715   Anisotropy =   178.1570

     18  C    Isotropic =    45.7758   Anisotropy =   190.5810

     19  H    Isotropic =    24.5916   Anisotropy =    11.2328

     20  C    Isotropic =    49.0213   Anisotropy =   189.1182

     21  H    Isotropic =    24.3109   Anisotropy =     6.3322

     22  C    Isotropic =    44.2598   Anisotropy =   198.5586

     23  H    Isotropic =    23.9873   Anisotropy =     3.9146

     24  C    Isotropic =    49.3763   Anisotropy =   187.4756

     25  H    Isotropic =    23.9779   Anisotropy =     7.0554

     26  C    Isotropic =    42.1945   Anisotropy =   180.9183

     27  H    Isotropic =    23.0215   Anisotropy =    10.1426

     28  C    Isotropic =    44.2701   Anisotropy =   161.8838

     29  C    Isotropic =    49.3982   Anisotropy =   189.0913

     30  H    Isotropic =    23.3938   Anisotropy =    10.1591

     31  C    Isotropic =    49.3364   Anisotropy =   188.9283

     32  H    Isotropic =    23.8559   Anisotropy =     6.9444

     33  C    Isotropic =    46.1230   Anisotropy =   195.8661

     34  H    Isotropic =    23.9414   Anisotropy =     3.6530

     35  C    Isotropic =    48.1021   Anisotropy =   191.8898

     36  H    Isotropic =    24.1345   Anisotropy =     6.3747

     37  C    Isotropic =    48.6290   Anisotropy =   190.5943

     38  H    Isotropic =    24.9230   Anisotropy =    11.1689

     39  C    Isotropic =    44.6707   Anisotropy =   174.5718

     40  C    Isotropic =    45.0399   Anisotropy =   192.7431

     41  H    Isotropic =    23.9950   Anisotropy =    10.5078

     42  C    Isotropic =    49.3811   Anisotropy =   188.9127

     43  H    Isotropic =    24.1595   Anisotropy =     6.0739

     44  C    Isotropic =    44.0415   Anisotropy =   198.8005

     45  H    Isotropic =    23.9303   Anisotropy =     3.9931

     46  C    Isotropic =    48.6249   Anisotropy =   188.5916

     47  H    Isotropic =    23.9640   Anisotropy =     7.1510

     48  C    Isotropic =    41.8908   Anisotropy =   182.3516

     49  H    Isotropic =    23.2541   Anisotropy =     9.7709

     50  C    Isotropic =    41.8355   Anisotropy =   165.6759

     51  C    Isotropic =    46.8109   Anisotropy =   195.7029

     52  H    Isotropic =    23.2655   Anisotropy =     9.5311

     53  C    Isotropic =    49.2498   Anisotropy =   189.2832

     54  H    Isotropic =    23.9398   Anisotropy =     7.1114

     55  C    Isotropic =    46.3646   Anisotropy =   195.6428

     56  H    Isotropic =    24.0426   Anisotropy =     3.7260

     57  C    Isotropic =    49.4896   Anisotropy =   188.9126

     58  H    Isotropic =    24.2630   Anisotropy =     6.1127

     59  C    Isotropic =    49.2373   Anisotropy =   187.5025

     60  H    Isotropic =    24.7159   Anisotropy =    11.5236

     61  Rh   Isotropic =  -280.3974   Anisotropy =   316.4003

     62  C    Isotropic =    79.9516   Anisotropy =   119.8723

     63  C    Isotropic =    71.8976   Anisotropy =   124.8479

     64  C    Isotropic =    74.3354   Anisotropy =   128.1163

     65  C    Isotropic =    77.5427   Anisotropy =   115.2718

     66  H    Isotropic =    26.8884   Anisotropy =     6.5736

     67  C    Isotropic =   153.9961   Anisotropy =    25.3336

     68  H    Isotropic =    26.8058   Anisotropy =     4.9418

     69  C    Isotropic =   148.2680   Anisotropy =    28.8054

     70  C    Isotropic =   154.3114   Anisotropy =    24.5732

     71  H    Isotropic =    27.8372   Anisotropy =     6.0101

     72  H    Isotropic =    26.5916   Anisotropy =     4.0786

     73  C    Isotropic =   147.8637   Anisotropy =    29.0724

     74  H    Isotropic =    29.7351   Anisotropy =     9.7919

     75  H    Isotropic =    29.7505   Anisotropy =    11.7051

     76  H    Isotropic =    29.4447   Anisotropy =    12.6922

     77  H    Isotropic =    29.6409   Anisotropy =     6.6648

     78  H    Isotropic =    30.2896   Anisotropy =    10.8628

     79  H    Isotropic =    29.9472   Anisotropy =     9.9020

     80  H    Isotropic =    29.0715   Anisotropy =    12.8181

     81  H    Isotropic =    28.9167   Anisotropy =     8.1275

 The electronic state is 1-A.
 Alpha  occ. eigenvalues --  -77.25801 -77.25545 -14.44068 -10.31276 -10.29540
 Alpha  occ. eigenvalues --  -10.29420 -10.29392 -10.29257 -10.28839 -10.28817
 Alpha  occ. eigenvalues --  -10.28674 -10.28651 -10.28555 -10.28484 -10.28358
 Alpha  occ. eigenvalues --  -10.28305 -10.28301 -10.28272 -10.28155 -10.28092
 Alpha  occ. eigenvalues --  -10.27903 -10.27774 -10.27743 -10.27726 -10.27615
 Alpha  occ. eigenvalues --  -10.27611 -10.27585 -10.27539 -10.27484 -10.27478
 Alpha  occ. eigenvalues --  -10.27465 -10.27444 -10.27384 -10.27222 -10.27179
 Alpha  occ. eigenvalues --  -10.27028 -10.26310 -10.24760 -10.24602  -6.71405
 Alpha  occ. eigenvalues --   -6.71187  -4.87789  -4.87582  -4.87571  -4.87360
 Alpha  occ. eigenvalues --   -4.87321  -4.87102  -3.31397  -2.08369  -2.07669
 Alpha  occ. eigenvalues --   -2.04777  -1.01891  -0.96794  -0.96452  -0.96125
 Alpha  occ. eigenvalues --   -0.96100  -0.94230  -0.89316  -0.88969  -0.87805
 Alpha  occ. eigenvalues --   -0.87567  -0.86245  -0.85536  -0.85332  -0.85305
 Alpha  occ. eigenvalues --   -0.85209  -0.84905  -0.84890  -0.81661  -0.80141
 Alpha  occ. eigenvalues --   -0.77623  -0.76539  -0.75881  -0.72714  -0.71497
 Alpha  occ. eigenvalues --   -0.71244  -0.71100  -0.71037  -0.70370  -0.70338
 Alpha  occ. eigenvalues --   -0.70215  -0.68898  -0.67509  -0.65643  -0.65242
 Alpha  occ. eigenvalues --   -0.62672  -0.62320  -0.62150  -0.61491  -0.61043
 Alpha  occ. eigenvalues --   -0.59789  -0.58309  -0.57229  -0.56758  -0.56441
 Alpha  occ. eigenvalues --   -0.56189  -0.56046  -0.55953  -0.55819  -0.55553
 Alpha  occ. eigenvalues --   -0.55442  -0.54796  -0.54374  -0.53796  -0.53457
 Alpha  occ. eigenvalues --   -0.53082  -0.52796  -0.52669  -0.52578  -0.52447
 Alpha  occ. eigenvalues --   -0.52341  -0.52213  -0.51300  -0.50798  -0.50041
 Alpha  occ. eigenvalues --   -0.48769  -0.48411  -0.48221  -0.48081  -0.47811
 Alpha  occ. eigenvalues --   -0.47423  -0.47177  -0.46857  -0.46655  -0.46240
 Alpha  occ. eigenvalues --   -0.45923  -0.45787  -0.45579  -0.45356  -0.45211
 Alpha  occ. eigenvalues --   -0.45026  -0.44707  -0.44531  -0.43604  -0.43368
 Alpha  occ. eigenvalues --   -0.43157  -0.42836  -0.42605  -0.42190  -0.41410
 Alpha  occ. eigenvalues --   -0.38086  -0.37764  -0.37594  -0.36659  -0.36475
 Alpha  occ. eigenvalues --   -0.36238  -0.36189  -0.35841  -0.35828  -0.35685
 Alpha  occ. eigenvalues --   -0.34638  -0.34232  -0.34212  -0.33616  -0.30474
 Alpha virt. eigenvalues --   -0.15837  -0.14937  -0.14539  -0.13293  -0.12442
 Alpha virt. eigenvalues --   -0.12255  -0.11792  -0.11029  -0.10774  -0.10335
 Alpha virt. eigenvalues --   -0.09162  -0.07638  -0.06243  -0.06105  -0.05696

 Mulliken charges:
               1
     1  P    0.462822
     2  P    0.418127
     3  N   -0.458637
     4  C   -0.002344
     5  H    0.148943
     6  C   -0.185131
     7  H    0.125769
     8  H    0.115164
     9  C   -0.397202
    10  H    0.144981
    11  H    0.137733
    12  H    0.120063
    13  C   -0.404555
    14  H    0.162681
    15  H    0.152285
    16  H    0.145010
    17  C   -0.304072
    18  C   -0.023303
    19  H    0.155021
    20  C   -0.092091
    21  H    0.136652
    22  C   -0.090685
    23  H    0.139153
    24  C   -0.115446
    25  H    0.130370
    26  C   -0.022568
    27  H    0.156369
    28  C   -0.169360
    29  C   -0.025455
    30  H    0.115425
    31  C   -0.124404
    32  H    0.131737
    33  C   -0.095178
    34  H    0.138801
    35  C   -0.082105
    36  H    0.135649
    37  C   -0.119043
    38  H    0.159125
    39  C   -0.211732
    40  C   -0.081292
    41  H    0.166158
    42  C   -0.090218
    43  H    0.136980
    44  C   -0.092569
    45  H    0.139732
    46  C   -0.110641
    47  H    0.131624
    48  C   -0.048140
    49  H    0.146967
    50  C   -0.149610
    51  C   -0.043446
    52  H    0.136788
    53  C   -0.121247
    54  H    0.129058
    55  C   -0.087030
    56  H    0.138149
    57  C   -0.108952
    58  H    0.134795
    59  C   -0.082789
    60  H    0.161723
    61  Rh  -0.686548
    62  C   -0.021141
    63  C   -0.112240
    64  C   -0.023648
    65  C   -0.107177
    66  H    0.190303
    67  C   -0.351683
    68  H    0.208629
    69  C   -0.218722
    70  C   -0.355632
    71  H    0.203476
    72  H    0.203125
    73  C   -0.221431
    74  H    0.168596
    75  H    0.168204
    76  H    0.170989
    77  H    0.135185
    78  H    0.169266
    79  H    0.165339
    80  H    0.172349
    81  H    0.128155
 Sum of Mulliken charges =   1.00000

 Dipole moment (field-independent basis, Debye):
    X=             -0.0262    Y=              0.0789    Z=             -0.3568  Tot=              0.3664
 Quadrupole moment (field-independent basis, Debye-Ang):
   XX=           -210.3318   YY=           -225.8024   ZZ=           -214.8019
   XY=             -0.3846   XZ=             -1.0618   YZ=              1.0173

 Summary of Natural Population Analysis:

                                       Natural Population
                Natural  -----------------------------------------------
    Atom  No    Charge         Core      Valence    Rydberg      Total
 -----------------------------------------------------------------------
      P    1    1.34584      9.99600     3.59561    0.06256    13.65416
      P    2    1.34535      9.99596     3.59546    0.06323    13.65465
      N    3   -1.00220      1.99958     5.97861    0.02401     8.00220
      C    4   -0.03866      1.99934     4.01589    0.02343     6.03866
      H    5    0.19753      0.00000     0.79908    0.00339     0.80247
      C    6   -0.38851      1.99941     4.37852    0.01058     6.38851
      H    7    0.19914      0.00000     0.79899    0.00187     0.80086
      H    8    0.19510      0.00000     0.80306    0.00184     0.80490
      C    9   -0.59204      1.99946     4.58637    0.00621     6.59204
      H   10    0.21786      0.00000     0.78107    0.00107     0.78214
      H   11    0.20587      0.00000     0.79283    0.00130     0.79413
      H   12    0.20169      0.00000     0.79699    0.00133     0.79831
      C   13   -0.61203      1.99942     4.60418    0.00844     6.61203
      H   14    0.21673      0.00000     0.78146    0.00181     0.78327
      H   15    0.21903      0.00000     0.77979    0.00118     0.78097
      H   16    0.20955      0.00000     0.78864    0.00181     0.79045
      C   17   -0.37537      1.99899     4.35079    0.02560     6.37537
      C   18   -0.18562      1.99909     4.17054    0.01598     6.18562
      H   19    0.22103      0.00000     0.77707    0.00189     0.77897
      C   20   -0.19437      1.99920     4.18047    0.01471     6.19437
      H   21    0.22354      0.00000     0.77523    0.00123     0.77646
      C   22   -0.17190      1.99921     4.15810    0.01459     6.17190
      H   23    0.22320      0.00000     0.77563    0.00117     0.77680
      C   24   -0.19841      1.99919     4.18463    0.01458     6.19841
      H   25    0.22075      0.00000     0.77801    0.00124     0.77925
      C   26   -0.18072      1.99909     4.16607    0.01555     6.18072
      H   27    0.21918      0.00000     0.77876    0.00205     0.78082
      C   28   -0.36416      1.99899     4.33980    0.02536     6.36416
      C   29   -0.19837      1.99908     4.18357    0.01572     6.19837
      H   30    0.21195      0.00000     0.78580    0.00225     0.78805
      C   31   -0.19160      1.99920     4.17777    0.01463     6.19160
      H   32    0.22085      0.00000     0.77792    0.00124     0.77915
      C   33   -0.18109      1.99920     4.16721    0.01467     6.18109
      H   34    0.22330      0.00000     0.77553    0.00117     0.77670
      C   35   -0.19013      1.99920     4.17627    0.01467     6.19013
      H   36    0.22312      0.00000     0.77565    0.00123     0.77688
      C   37   -0.19928      1.99909     4.18489    0.01530     6.19928
      H   38    0.21871      0.00000     0.77952    0.00177     0.78129
      C   39   -0.37612      1.99897     4.35188    0.02527     6.37612
      C   40   -0.19099      1.99909     4.17581    0.01609     6.19099
      H   41    0.22095      0.00000     0.77697    0.00208     0.77905
      C   42   -0.19596      1.99919     4.18213    0.01465     6.19596
      H   43    0.22402      0.00000     0.77473    0.00125     0.77598
      C   44   -0.17053      1.99921     4.15682    0.01451     6.17053
      H   45    0.22376      0.00000     0.77507    0.00117     0.77624
      C   46   -0.19691      1.99919     4.18319    0.01452     6.19691
      H   47    0.22146      0.00000     0.77730    0.00124     0.77854
      C   48   -0.17771      1.99910     4.16323    0.01538     6.17771
      H   49    0.21839      0.00000     0.77932    0.00229     0.78161
      C   50   -0.36468      1.99897     4.34061    0.02510     6.36468
      C   51   -0.18733      1.99909     4.17282    0.01543     6.18733
      H   52    0.21420      0.00000     0.78351    0.00228     0.78580
      C   53   -0.19311      1.99919     4.17939    0.01452     6.19311
      H   54    0.22035      0.00000     0.77841    0.00125     0.77965
      C   55   -0.18053      1.99920     4.16663    0.01470     6.18053
      H   56    0.22280      0.00000     0.77603    0.00117     0.77720
      C   57   -0.19293      1.99920     4.17893    0.01481     6.19293
      H   58    0.22273      0.00000     0.77603    0.00123     0.77727
      C   59   -0.20190      1.99910     4.18771    0.01510     6.20190
      H   60    0.22194      0.00000     0.77625    0.00181     0.77806
     Rh   61   -0.41593     35.98538     9.40098    0.02957    45.41593
      C   62   -0.18218      1.99907     4.16326    0.01985     6.18218
      C   63   -0.15638      1.99908     4.13709    0.02021     6.15638
      C   64   -0.16582      1.99907     4.14722    0.01952     6.16582
      C   65   -0.17118      1.99908     4.15194    0.02017     6.17118
      H   66    0.22615      0.00000     0.77190    0.00195     0.77385
      C   67   -0.42323      1.99936     4.41206    0.01181     6.42323
      H   68    0.22935      0.00000     0.76841    0.00224     0.77065
      C   69   -0.41873      1.99935     4.40680    0.01259     6.41873
      C   70   -0.42334      1.99936     4.41219    0.01179     6.42334
      H   71    0.23091      0.00000     0.76696    0.00213     0.76909
      H   72    0.22748      0.00000     0.77053    0.00199     0.77252
      C   73   -0.41743      1.99935     4.40531    0.01276     6.41743
      H   74    0.21517      0.00000     0.78284    0.00199     0.78483
      H   75    0.22771      0.00000     0.77080    0.00149     0.77229
      H   76    0.23295      0.00000     0.76512    0.00192     0.76705
      H   77    0.21936      0.00000     0.77914    0.00150     0.78064
      H   78    0.22936      0.00000     0.76915    0.00149     0.77064
      H   79    0.21359      0.00000     0.78441    0.00199     0.78641
      H   80    0.23341      0.00000     0.76468    0.00191     0.76659
      H   81    0.21202      0.00000     0.78640    0.00158     0.78798
 =======================================================================
   * Total *    1.00000    129.94730   207.22576    0.82695   338.00000

 Normal termination of Gaussian 16 at Wed Nov  6 00:15:06 2024.
