 Gaussian 16, Revision B.01,
 Gaussian 16:  ES64L-G16RevB.01 20-Dec-2017

 ------------------------------------------
 # nmr=giao b3lyp/genecp pop=nbo scfcyc=200
 ------------------------------------------

 -------------
 Ligand 45 SPE
 -------------
 Symbolic Z-matrix:
 Charge =  1 Multiplicity = 1

                         Standard orientation:
 ---------------------------------------------------------------------
 Center     Atomic      Atomic             Coordinates (Angstroms)
 Number     Number       Type             X           Y           Z
 ---------------------------------------------------------------------
      1         15           0        0.608350    0.800860    0.228149
      2         15           0       -2.123620    0.955031    0.933409
      3          6           0        1.207291    1.952680   -1.083881
      4          6           0        0.692111    1.857600   -2.377831
      5          1           0       -0.033780    1.087900   -2.611231
      6          6           0        1.108441    2.746710   -3.364621
      7          1           0        0.706141    2.666600   -4.366771
      8          6           0        2.041772    3.732329   -3.063901
      9          1           0        2.369092    4.421609   -3.832021
     10          6           0        2.560672    3.829509   -1.774921
     11          1           0        3.292132    4.592629   -1.540381
     12          6           0        2.147581    2.944249   -0.786941
     13          1           0        2.568671    3.019139    0.208349
     14          6           0       -0.525719    1.872270    1.276659
     15          1           0       -0.527819    2.908120    0.940039
     16          1           0       -0.287969    1.862610    2.337259
     17          6           0       -3.298169    2.235082    0.209119
     18          1           0       -3.264189    3.075072    0.909499
     19          6           0       -2.814369    2.722852   -1.159691
     20          1           0       -1.806619    3.137831   -1.128671
     21          1           0       -3.480028    3.509302   -1.521921
     22          1           0       -2.822119    1.914632   -1.893501
     23          6           0       -4.738079    1.713692    0.136269
     24          1           0       -4.823630    0.856052   -0.534051
     25          1           0       -5.387269    2.497493   -0.259601
     26          1           0       -5.135079    1.424523    1.109459
     27          6           0       -2.839510    0.510792    2.618259
     28          1           0       -3.772070   -0.005558    2.370619
     29          6           0       -3.167999    1.730282    3.486709
     30          1           0       -3.591239    1.397202    4.437099
     31          1           0       -3.894999    2.396962    3.023379
     32          1           0       -2.273899    2.313461    3.719659
     33          6           0       -1.934530   -0.480369    3.359699
     34          1           0       -0.998480   -0.015729    3.676629
     35          1           0       -1.686661   -1.347339    2.746469
     36          1           0       -2.439201   -0.832749    4.261669
     37         45           0       -1.100900   -0.773299   -0.323381
     38          6           0       -0.081191   -2.152930   -1.842051
     39          6           0        0.173089   -2.615470   -0.568771
     40          6           0       -2.705941   -2.381709   -0.165641
     41          6           0       -2.904221   -1.659368   -1.325261
     42          1           0        0.674569   -1.519850   -2.293111
     43          6           0       -1.100761   -2.731589   -2.804151
     44          1           0        1.121129   -2.337270   -0.121641
     45          6           0       -0.549612   -3.728400    0.148569
     46          6           0       -2.075632   -3.759449   -0.081401
     47          1           0       -3.286771   -2.084308    0.700319
     48          1           0       -3.645311   -0.868208   -1.292141
     49          6           0       -2.483121   -2.050869   -2.719651
     50          1           0       -1.194782   -3.804479   -2.637971
     51          1           0       -0.722061   -2.619109   -3.821371
     52          1           0       -0.111822   -4.693150   -0.136971
     53          1           0       -0.349752   -3.617490    1.216339
     54          1           0       -2.538732   -4.302959    0.743719
     55          1           0       -2.313612   -4.325059   -0.982121
     56          1           0       -3.246281   -2.701168   -3.165391
     57          1           0       -2.473741   -1.144999   -3.330011
     58          6           0        2.102180    0.372119    1.236789
     59          6           0        3.201090   -0.330781    0.635119
     60          6           0        2.144380    0.663819    2.583849
     61          6           0        3.266400   -0.666951   -0.740481
     62          6           0        4.307060   -0.709082    1.464359
     63          6           0        3.238610    0.291219    3.390259
     64          1           0        1.335220    1.195660    3.062289
     65          6           0        4.343069   -1.339322   -1.263861
     66          1           0        2.466540   -0.370951   -1.404161
     67          6           0        5.402319   -1.402432    0.892319
     68          6           0        4.294260   -0.383952    2.842419
     69          1           0        3.232930    0.545459    4.442379
     70          6           0        5.423439   -1.715022   -0.441681
     71          1           0        4.366229   -1.577132   -2.320021
     72          1           0        6.230049   -1.680183    1.533889
     73          1           0        5.137800   -0.677112    3.455859
     74          1           0        6.267539   -2.242403   -0.867181
 ---------------------------------------------------------------------

 SCF Done:  E(RB3LYP) =  -1999.01240544     A.U. after   16 cycles

      1  P    Isotropic =   327.2375   Anisotropy =   105.0186

      2  P    Isotropic =   302.3742   Anisotropy =   119.9996

      3  C    Isotropic =    40.7486   Anisotropy =   177.8502

      4  C    Isotropic =    43.6650   Anisotropy =   176.4467

      5  H    Isotropic =    23.0568   Anisotropy =     8.8654

      6  C    Isotropic =    49.6085   Anisotropy =   186.9146

      7  H    Isotropic =    24.0219   Anisotropy =     6.8332

      8  C    Isotropic =    45.2359   Anisotropy =   197.9158

      9  H    Isotropic =    24.0577   Anisotropy =     3.5878

     10  C    Isotropic =    47.4010   Anisotropy =   191.4935

     11  H    Isotropic =    24.3957   Anisotropy =     6.5642

     12  C    Isotropic =    48.1099   Anisotropy =   187.7160

     13  H    Isotropic =    24.8086   Anisotropy =    12.2442

     14  C    Isotropic =   141.9800   Anisotropy =    54.5327

     15  H    Isotropic =    29.1662   Anisotropy =     6.7738

     16  H    Isotropic =    27.5787   Anisotropy =     6.1576

     17  C    Isotropic =   147.2294   Anisotropy =    24.4280

     18  H    Isotropic =    29.9166   Anisotropy =     6.6124

     19  C    Isotropic =   163.9458   Anisotropy =    27.6379

     20  H    Isotropic =    31.0437   Anisotropy =     9.2485

     21  H    Isotropic =    30.6016   Anisotropy =    11.4894

     22  H    Isotropic =    30.6178   Anisotropy =     5.5422

     23  C    Isotropic =   166.7334   Anisotropy =    30.0578

     24  H    Isotropic =    31.1473   Anisotropy =     6.0221

     25  H    Isotropic =    30.5480   Anisotropy =    12.4351

     26  H    Isotropic =    30.7482   Anisotropy =     8.6134

     27  C    Isotropic =   150.0328   Anisotropy =    20.8509

     28  H    Isotropic =    29.7859   Anisotropy =     5.3747

     29  C    Isotropic =   168.4937   Anisotropy =    29.9617

     30  H    Isotropic =    30.4812   Anisotropy =    12.6011

     31  H    Isotropic =    30.7038   Anisotropy =     9.2067

     32  H    Isotropic =    30.9629   Anisotropy =     7.3081

     33  C    Isotropic =   163.3252   Anisotropy =    31.0521

     34  H    Isotropic =    30.6224   Anisotropy =     6.9477

     35  H    Isotropic =    29.8100   Anisotropy =     7.8520

     36  H    Isotropic =    30.3249   Anisotropy =    11.6167

     37  Rh   Isotropic =  -326.0082   Anisotropy =   380.1043

     38  C    Isotropic =    79.5195   Anisotropy =   120.9732

     39  C    Isotropic =    72.7266   Anisotropy =   124.7929

     40  C    Isotropic =    80.2943   Anisotropy =   120.7861

     41  C    Isotropic =    79.6319   Anisotropy =   112.4368

     42  H    Isotropic =    26.6557   Anisotropy =     5.8473

     43  C    Isotropic =   154.4959   Anisotropy =    24.2391

     44  H    Isotropic =    26.8252   Anisotropy =     8.3619

     45  C    Isotropic =   148.1097   Anisotropy =    29.7232

     46  C    Isotropic =   153.9393   Anisotropy =    25.5102

     47  H    Isotropic =    27.0830   Anisotropy =     6.2188

     48  H    Isotropic =    26.1784   Anisotropy =     4.9228

     49  C    Isotropic =   146.9681   Anisotropy =    30.6714

     50  H    Isotropic =    29.8455   Anisotropy =     9.5870

     51  H    Isotropic =    29.7269   Anisotropy =    11.4113

     52  H    Isotropic =    29.5213   Anisotropy =    12.0619

     53  H    Isotropic =    29.5385   Anisotropy =     6.2212

     54  H    Isotropic =    29.9784   Anisotropy =    11.5522

     55  H    Isotropic =    29.8754   Anisotropy =     9.7293

     56  H    Isotropic =    28.9529   Anisotropy =    12.7776

     57  H    Isotropic =    28.8502   Anisotropy =     7.5819

     58  C    Isotropic =    52.2845   Anisotropy =   151.6256

     59  C    Isotropic =    44.9924   Anisotropy =   207.5249

     60  C    Isotropic =    50.2518   Anisotropy =   183.2578

     61  C    Isotropic =    55.2460   Anisotropy =   169.7787

     62  C    Isotropic =    42.7809   Anisotropy =   216.0883

     63  C    Isotropic =    55.1984   Anisotropy =   177.2546

     64  H    Isotropic =    23.9237   Anisotropy =    11.9251

     65  C    Isotropic =    51.1830   Anisotropy =   186.0693

     66  H    Isotropic =    24.7368   Anisotropy =    10.7097

     67  C    Isotropic =    47.8842   Anisotropy =   167.6519

     68  C    Isotropic =    44.3903   Anisotropy =   171.9501

     69  H    Isotropic =    23.9913   Anisotropy =     6.3663

     70  C    Isotropic =    51.3687   Anisotropy =   187.2836

     71  H    Isotropic =    24.4551   Anisotropy =     9.2454

     72  H    Isotropic =    23.6495   Anisotropy =     6.4101

     73  H    Isotropic =    23.5185   Anisotropy =     6.0274

     74  H    Isotropic =    24.1130   Anisotropy =     4.7414

 The electronic state is 1-A.
 Alpha  occ. eigenvalues --  -77.24059 -77.22944 -10.30418 -10.30392 -10.30290
 Alpha  occ. eigenvalues --  -10.30066 -10.29505 -10.29418 -10.29310 -10.29298
 Alpha  occ. eigenvalues --  -10.29084 -10.28892 -10.28723 -10.28417 -10.28359
 Alpha  occ. eigenvalues --  -10.28244 -10.27799 -10.27672 -10.27637 -10.27619
 Alpha  occ. eigenvalues --  -10.27606 -10.27558 -10.27517 -10.27476 -10.27406
 Alpha  occ. eigenvalues --  -10.27299 -10.27213 -10.27168 -10.27103 -10.27077
 Alpha  occ. eigenvalues --  -10.26931 -10.26877 -10.26705  -6.69988  -6.69016
 Alpha  occ. eigenvalues --   -4.86285  -4.86208  -4.85885  -4.85314  -4.85188
 Alpha  occ. eigenvalues --   -4.84921  -3.31707  -2.08588  -2.07932  -2.05167
 Alpha  occ. eigenvalues --   -0.98051  -0.96464  -0.94683  -0.92866  -0.92481
 Alpha  occ. eigenvalues --   -0.89775  -0.89398  -0.89143  -0.88241  -0.86649
 Alpha  occ. eigenvalues --   -0.85293  -0.84833  -0.84295  -0.82251  -0.80558
 Alpha  occ. eigenvalues --   -0.79855  -0.79487  -0.78034  -0.75911  -0.73791
 Alpha  occ. eigenvalues --   -0.72324  -0.71521  -0.71145  -0.70788  -0.69841
 Alpha  occ. eigenvalues --   -0.69712  -0.66545  -0.66114  -0.64718  -0.62798
 Alpha  occ. eigenvalues --   -0.62208  -0.61453  -0.60390  -0.60337  -0.59958
 Alpha  occ. eigenvalues --   -0.58581  -0.57277  -0.57039  -0.56504  -0.56288
 Alpha  occ. eigenvalues --   -0.56064  -0.55780  -0.55044  -0.54660  -0.53863
 Alpha  occ. eigenvalues --   -0.53698  -0.53398  -0.52909  -0.52781  -0.52726
 Alpha  occ. eigenvalues --   -0.52283  -0.51986  -0.51178  -0.50990  -0.50436
 Alpha  occ. eigenvalues --   -0.49991  -0.49596  -0.49561  -0.49367  -0.48402
 Alpha  occ. eigenvalues --   -0.48010  -0.47936  -0.47290  -0.46853  -0.46585
 Alpha  occ. eigenvalues --   -0.46181  -0.46048  -0.45973  -0.45547  -0.45185
 Alpha  occ. eigenvalues --   -0.44923  -0.44379  -0.43994  -0.43449  -0.43231
 Alpha  occ. eigenvalues --   -0.43116  -0.42708  -0.42329  -0.41777  -0.41020
 Alpha  occ. eigenvalues --   -0.39365  -0.36901  -0.36713  -0.36097  -0.35848
 Alpha  occ. eigenvalues --   -0.35192  -0.34860  -0.34815  -0.33934  -0.32266
 Alpha  occ. eigenvalues --   -0.30849
 Alpha virt. eigenvalues --   -0.16689  -0.15382  -0.13879  -0.13163  -0.12121
 Alpha virt. eigenvalues --   -0.11404  -0.09610  -0.08948  -0.08276  -0.07717
 Alpha virt. eigenvalues --   -0.07198  -0.06964  -0.06604  -0.05517  -0.05181

 Mulliken charges:
               1
     1  P    0.317675
     2  P    0.448642
     3  C   -0.321203
     4  C   -0.012316
     5  H    0.163165
     6  C   -0.105304
     7  H    0.129150
     8  C   -0.091139
     9  H    0.140271
    10  C   -0.091774
    11  H    0.135993
    12  C   -0.040309
    13  H    0.151755
    14  C   -0.624602
    15  H    0.225966
    16  H    0.192080
    17  C   -0.188544
    18  H    0.179738
    19  C   -0.390063
    20  H    0.149858
    21  H    0.159631
    22  H    0.126066
    23  C   -0.394640
    24  H    0.130885
    25  H    0.159715
    26  H    0.146835
    27  C   -0.213673
    28  H    0.175149
    29  C   -0.378953
    30  H    0.154907
    31  H    0.148863
    32  H    0.132520
    33  C   -0.388971
    34  H    0.119507
    35  H    0.144985
    36  H    0.159928
    37  Rh  -0.520707
    38  C   -0.058051
    39  C   -0.054098
    40  C   -0.031751
    41  C   -0.087633
    42  H    0.179879
    43  C   -0.357944
    44  H    0.215766
    45  C   -0.231646
    46  C   -0.352419
    47  H    0.181414
    48  H    0.171110
    49  C   -0.216475
    50  H    0.170038
    51  H    0.169449
    52  H    0.173181
    53  H    0.136541
    54  H    0.168012
    55  H    0.169018
    56  H    0.172520
    57  H    0.129538
    58  C   -0.211787
    59  C    0.131208
    60  C   -0.014238
    61  C   -0.054572
    62  C   -0.026515
    63  C   -0.087327
    64  H    0.095023
    65  C   -0.113398
    66  H    0.141846
    67  C   -0.139023
    68  C   -0.148735
    69  H    0.123743
    70  C   -0.074687
    71  H    0.119875
    72  H    0.126138
    73  H    0.126826
    74  H    0.128089
 Sum of Mulliken charges =   1.00000

 Dipole moment (field-independent basis, Debye):
    X=             -2.1605    Y=              0.8917    Z=              0.8014  Tot=              2.4709
 Quadrupole moment (field-independent basis, Debye-Ang):
   XX=           -179.5309   YY=           -199.1593   ZZ=           -195.3718
   XY=             -2.7480   XZ=             -1.3124   YZ=              2.3454

 Summary of Natural Population Analysis:

                                       Natural Population
                Natural  -----------------------------------------------
    Atom  No    Charge         Core      Valence    Rydberg      Total
 -----------------------------------------------------------------------
      P    1    1.08868      9.99663     3.86420    0.05049    13.91132
      P    2    1.10316      9.99682     3.85418    0.04584    13.89684
      C    3   -0.34182      1.99899     4.31790    0.02493     6.34182
      C    4   -0.19360      1.99908     4.17905    0.01547     6.19360
      H    5    0.22092      0.00000     0.77704    0.00205     0.77908
      C    6   -0.19709      1.99919     4.18320    0.01469     6.19709
      H    7    0.22095      0.00000     0.77782    0.00123     0.77905
      C    8   -0.17678      1.99921     4.16298    0.01459     6.17678
      H    9    0.22327      0.00000     0.77556    0.00118     0.77673
      C   10   -0.18792      1.99920     4.17421    0.01450     6.18792
      H   11    0.22368      0.00000     0.77510    0.00122     0.77632
      C   12   -0.19201      1.99909     4.17664    0.01629     6.19201
      H   13    0.22020      0.00000     0.77792    0.00188     0.77980
      C   14   -0.98998      1.99941     4.97213    0.01845     6.98998
      H   15    0.26345      0.00000     0.73470    0.00185     0.73655
      H   16    0.25096      0.00000     0.74668    0.00236     0.74904
      C   17   -0.46679      1.99941     4.45225    0.01513     6.46679
      H   18    0.22134      0.00000     0.77611    0.00255     0.77866
      C   19   -0.59302      1.99942     4.58544    0.00816     6.59302
      H   20    0.21069      0.00000     0.78747    0.00185     0.78931
      H   21    0.22374      0.00000     0.77472    0.00154     0.77626
      H   22    0.21000      0.00000     0.78844    0.00157     0.79000
      C   23   -0.59785      1.99941     4.59080    0.00765     6.59785
      H   24    0.20342      0.00000     0.79508    0.00150     0.79658
      H   25    0.22727      0.00000     0.77125    0.00148     0.77273
      H   26    0.20972      0.00000     0.78881    0.00147     0.79028
      C   27   -0.46386      1.99941     4.45023    0.01422     6.46386
      H   28    0.22338      0.00000     0.77467    0.00195     0.77662
      C   29   -0.60205      1.99941     4.59431    0.00832     6.60205
      H   30    0.22669      0.00000     0.77183    0.00148     0.77331
      H   31    0.21102      0.00000     0.78753    0.00145     0.78898
      H   32    0.20285      0.00000     0.79545    0.00170     0.79715
      C   33   -0.59072      1.99941     4.58380    0.00751     6.59072
      H   34    0.19955      0.00000     0.79874    0.00170     0.80045
      H   35    0.22065      0.00000     0.77791    0.00144     0.77935
      H   36    0.22351      0.00000     0.77500    0.00149     0.77649
     Rh   37   -0.38328     35.98599     9.36893    0.02835    45.38328
      C   38   -0.18588      1.99908     4.16721    0.01960     6.18588
      C   39   -0.15586      1.99909     4.13716    0.01961     6.15586
      C   40   -0.17060      1.99908     4.15202    0.01950     6.17060
      C   41   -0.16464      1.99909     4.14556    0.01998     6.16464
      H   42    0.22264      0.00000     0.77531    0.00206     0.77736
      C   43   -0.42301      1.99936     4.41177    0.01189     6.42301
      H   44    0.23552      0.00000     0.76237    0.00211     0.76448
      C   45   -0.41793      1.99935     4.40599    0.01259     6.41793
      C   46   -0.42420      1.99936     4.41289    0.01195     6.42420
      H   47    0.22065      0.00000     0.77730    0.00205     0.77935
      H   48    0.22037      0.00000     0.77742    0.00221     0.77963
      C   49   -0.41687      1.99935     4.40478    0.01274     6.41687
      H   50    0.21570      0.00000     0.78233    0.00197     0.78430
      H   51    0.22815      0.00000     0.77035    0.00149     0.77185
      H   52    0.23462      0.00000     0.76350    0.00188     0.76538
      H   53    0.21757      0.00000     0.78076    0.00167     0.78243
      H   54    0.22845      0.00000     0.77006    0.00149     0.77155
      H   55    0.21611      0.00000     0.78194    0.00195     0.78389
      H   56    0.23416      0.00000     0.76396    0.00188     0.76584
      H   57    0.21500      0.00000     0.78334    0.00165     0.78500
      C   58   -0.30496      1.99893     4.28311    0.02292     6.30496
      C   59   -0.05661      1.99902     4.03713    0.02046     6.05661
      C   60   -0.18632      1.99910     4.17187    0.01535     6.18632
      C   61   -0.20248      1.99911     4.18794    0.01543     6.20248
      C   62   -0.05650      1.99910     4.04040    0.01700     6.05650
      C   63   -0.20673      1.99918     4.19193    0.01561     6.20673
      H   64    0.19970      0.00000     0.79778    0.00252     0.80030
      C   65   -0.18112      1.99920     4.16698    0.01495     6.18112
      H   66    0.20884      0.00000     0.78842    0.00273     0.79116
      C   67   -0.16266      1.99915     4.14923    0.01428     6.16266
      C   68   -0.14269      1.99914     4.12919    0.01436     6.14269
      H   69    0.22266      0.00000     0.77618    0.00117     0.77734
      C   70   -0.19224      1.99920     4.17798    0.01507     6.19224
      H   71    0.21831      0.00000     0.78035    0.00134     0.78169
      H   72    0.21785      0.00000     0.78057    0.00158     0.78215
      H   73    0.21995      0.00000     0.77849    0.00156     0.78005
      H   74    0.22272      0.00000     0.77618    0.00110     0.77728
 =======================================================================
   * Total *    1.00000    117.95496   181.37783    0.66721   300.00000

 Normal termination of Gaussian 16 at Wed Nov  6 00:06:00 2024.
