 Gaussian 16, Revision B.01,
 Gaussian 16:  ES64L-G16RevB.01 20-Dec-2017

 ------------------------------------------
 # nmr=giao b3lyp/genecp pop=nbo scfcyc=200
 ------------------------------------------

 -------------
 Ligand 50 SPE
 -------------
 Symbolic Z-matrix:
 Charge =  1 Multiplicity = 1

                         Standard orientation:
 ---------------------------------------------------------------------
 Center     Atomic      Atomic             Coordinates (Angstroms)
 Number     Number       Type             X           Y           Z
 ---------------------------------------------------------------------
      1          6           0        3.568500    0.849731    1.334701
      2          6           0        4.719170    1.642372    1.373281
      3          1           0        5.144060    2.052492    0.470911
      4          6           0        5.342150    1.925222    2.585381
      5          1           0        6.233020    2.540532    2.595681
      6          6           0        4.825070    1.425832    3.774511
      7          1           0        5.311270    1.649692    4.715591
      8          6           0        3.682490    0.631111    3.748301
      9          1           0        3.275940    0.232521    4.669471
     10          6           0        3.065260    0.339341    2.539411
     11          1           0        2.183081   -0.290019    2.528701
     12          6           0        3.603650    0.819431   -1.772089
     13          6           0        2.761590    0.282071   -2.943879
     14          1           0        1.804820    0.797761   -3.023699
     15          1           0        2.572671   -0.789429   -2.853219
     16          1           0        3.307820    0.451811   -3.874919
     17          6           0        4.936650    0.046302   -1.711989
     18          1           0        4.790111   -1.021068   -1.546789
     19          1           0        5.610290    0.417502   -0.941369
     20          1           0        5.442490    0.158792   -2.673769
     21          6           0        3.871380    2.313601   -2.001619
     22          1           0        4.478530    2.415962   -2.905239
     23          1           0        4.419129    2.789952   -1.190899
     24          1           0        2.952079    2.869191   -2.159399
     25          6           0        0.598969    2.600500    0.080171
     26          1           0       -0.470250    2.487810    0.273361
     27          6           0        1.209259    3.214370    1.337811
     28          1           0        1.066040    2.551790    2.189121
     29          1           0        0.715339    4.160450    1.560651
     30          1           0        2.277079    3.403981    1.235951
     31          6           0        0.700299    3.473190   -1.169359
     32          6           0        0.071879    3.065080   -2.351159
     33          1           0       -0.451810    2.118680   -2.376559
     34          6           0        0.102279    3.863370   -3.487629
     35          1           0       -0.393411    3.529850   -4.391139
     36          6           0        0.752609    5.094410   -3.463859
     37          1           0        0.771968    5.719320   -4.347859
     38          6           0        1.364438    5.519091   -2.291719
     39          1           0        1.863818    6.479371   -2.255859
     40          6           0        1.335629    4.716230   -1.153529
     41          1           0        1.818299    5.076071   -0.255519
     42          6           0       -2.235079   -0.620901   -1.260199
     43          6           0       -2.317729   -1.495771   -2.358629
     44          1           0       -1.531189   -1.476561   -3.101589
     45          6           0       -3.394929   -2.331421   -2.469759
     46          1           0       -3.483928   -2.997291   -3.319659
     47          6           0       -4.394389   -2.358352   -1.466469
     48          6           0       -5.470828   -3.277872   -1.531269
     49          1           0       -5.535648   -3.941412   -2.385559
     50          6           0       -6.404078   -3.341062   -0.529979
     51          1           0       -7.219478   -4.050923   -0.586609
     52          6           0       -6.292209   -2.487932    0.586941
     53          1           0       -7.016719   -2.558663    1.388571
     54          6           0       -5.273829   -1.571812    0.671371
     55          1           0       -5.204399   -0.930602    1.538051
     56          6           0       -4.303039   -1.459722   -0.356059
     57          6           0       -3.218389   -0.517511   -0.299469
     58          6           0       -3.123300    0.525369    0.756671
     59          6           0       -4.179240    1.476238    0.982431
     60          6           0       -5.299400    1.593778    0.120921
     61          1           0       -5.372110    0.952908   -0.745699
     62          6           0       -6.285420    2.517688    0.361701
     63          1           0       -7.125681    2.592867   -0.317149
     64          6           0       -6.214011    3.374588    1.478711
     65          1           0       -7.004311    4.091927    1.659741
     66          6           0       -5.134821    3.306208    2.320231
     67          1           0       -5.057781    3.973228    3.170761
     68          6           0       -4.089410    2.377988    2.089471
     69          6           0       -2.944520    2.344189    2.921971
     70          1           0       -2.892851    3.010639    3.774471
     71          6           0       -1.904350    1.502409    2.642681
     72          1           0       -1.012740    1.479290    3.254531
     73          6           0       -1.994520    0.628989    1.543061
     74          7           0        1.057760    1.178390   -0.124899
     75          8           0       -1.099450    0.198740   -1.186999
     76          8           0       -0.881879   -0.195200    1.321791
     77         15           0        2.640370    0.368531   -0.191309
     78         15           0        0.043901   -0.179280   -0.047589
     79         45           0        1.623681   -1.788519   -0.100709
     80          6           0        0.486532   -3.503550    0.863741
     81          6           0        0.362742   -3.613140   -0.507419
     82          6           0        3.277502   -3.372149   -0.533909
     83          6           0        3.370662   -2.983389    0.779471
     84          1           0       -0.312178   -2.989570    1.386621
     85          6           0        1.404942   -4.335849    1.740371
     86          1           0       -0.544358   -3.217100   -0.952459
     87          6           0        1.161912   -4.506910   -1.421999
     88          6           0        2.648982   -4.655519   -1.037499
     89          1           0        3.905992   -2.853149   -1.248179
     90          1           0        4.093751   -2.212338    1.023381
     91          6           0        2.795822   -3.705389    1.972641
     92          1           0        1.507312   -5.334549    1.316361
     93          1           0        0.923902   -4.470460    2.710391
     94          1           0        0.692842   -5.497370   -1.473499
     95          1           0        1.093712   -4.094550   -2.431319
     96          1           0        3.202382   -4.986249   -1.918049
     97          1           0        2.773182   -5.440899   -0.292879
     98          1           0        3.500592   -4.477829    2.304941
     99          1           0        2.732662   -2.989509    2.794241
 ---------------------------------------------------------------------

 SCF Done:  E(RB3LYP) =  -2780.31346700     A.U. after   20 cycles

      1  C    Isotropic =    42.1348   Anisotropy =   166.8029

      2  C    Isotropic =    47.8784   Anisotropy =   185.5867

      3  H    Isotropic =    23.8219   Anisotropy =    11.4796

      4  C    Isotropic =    49.3896   Anisotropy =   188.7468

      5  H    Isotropic =    24.1058   Anisotropy =     5.7849

      6  C    Isotropic =    45.2811   Anisotropy =   197.1204

      7  H    Isotropic =    23.9202   Anisotropy =     3.8807

      8  C    Isotropic =    48.8913   Anisotropy =   188.9515

      9  H    Isotropic =    23.7852   Anisotropy =     7.5366

     10  C    Isotropic =    41.7730   Anisotropy =   189.3982

     11  H    Isotropic =    22.7985   Anisotropy =     9.9004

     12  C    Isotropic =   132.9829   Anisotropy =    34.4788

     13  C    Isotropic =   153.0797   Anisotropy =    39.5032

     14  H    Isotropic =    30.1439   Anisotropy =     6.1896

     15  H    Isotropic =    30.2349   Anisotropy =     6.9914

     16  H    Isotropic =    31.0724   Anisotropy =     9.5027

     17  C    Isotropic =   157.5863   Anisotropy =    39.0146

     18  H    Isotropic =    31.2392   Anisotropy =     6.5393

     19  H    Isotropic =    30.4844   Anisotropy =     8.5913

     20  H    Isotropic =    30.9326   Anisotropy =    11.0983

     21  C    Isotropic =   156.8218   Anisotropy =    38.9489

     22  H    Isotropic =    31.2739   Anisotropy =     9.9468

     23  H    Isotropic =    30.4637   Anisotropy =     7.4428

     24  H    Isotropic =    32.1245   Anisotropy =    16.5635

     25  C    Isotropic =   120.4013   Anisotropy =    39.3178

     26  H    Isotropic =    27.5366   Anisotropy =     9.6931

     27  C    Isotropic =   164.2263   Anisotropy =    11.1680

     28  H    Isotropic =    30.9094   Anisotropy =     2.4298

     29  H    Isotropic =    30.8689   Anisotropy =    10.1366

     30  H    Isotropic =    31.0378   Anisotropy =     6.0091

     31  C    Isotropic =    36.3843   Anisotropy =   191.0790

     32  C    Isotropic =    48.3265   Anisotropy =   187.7758

     33  H    Isotropic =    23.6010   Anisotropy =    10.2292

     34  C    Isotropic =    49.6672   Anisotropy =   187.9192

     35  H    Isotropic =    24.3392   Anisotropy =     7.8067

     36  C    Isotropic =    49.6242   Anisotropy =   190.9274

     37  H    Isotropic =    24.4140   Anisotropy =     3.8036

     38  C    Isotropic =    50.2194   Anisotropy =   187.5611

     39  H    Isotropic =    24.4863   Anisotropy =     5.4677

     40  C    Isotropic =    53.5536   Anisotropy =   184.2427

     41  H    Isotropic =    24.8861   Anisotropy =    11.6178

     42  C    Isotropic =    30.3362   Anisotropy =   105.7985

     43  C    Isotropic =    60.6492   Anisotropy =   147.2529

     44  H    Isotropic =    24.0364   Anisotropy =     7.9625

     45  C    Isotropic =    47.4180   Anisotropy =   164.4925

     46  H    Isotropic =    23.5404   Anisotropy =     7.6134

     47  C    Isotropic =    45.4768   Anisotropy =   212.9153

     48  C    Isotropic =    49.9001   Anisotropy =   162.6262

     49  H    Isotropic =    23.6917   Anisotropy =     7.6806

     50  C    Isotropic =    51.0088   Anisotropy =   184.5066

     51  H    Isotropic =    24.0794   Anisotropy =     4.2683

     52  C    Isotropic =    50.3919   Anisotropy =   186.7670

     53  H    Isotropic =    24.3001   Anisotropy =     7.8508

     54  C    Isotropic =    50.5530   Anisotropy =   177.9398

     55  H    Isotropic =    24.5548   Anisotropy =    14.8049

     56  C    Isotropic =    44.9156   Anisotropy =   204.9483

     57  C    Isotropic =    53.0028   Anisotropy =   141.6118

     58  C    Isotropic =    55.0766   Anisotropy =   137.9984

     59  C    Isotropic =    44.3569   Anisotropy =   202.0738

     60  C    Isotropic =    51.9647   Anisotropy =   180.0766

     61  H    Isotropic =    24.5875   Anisotropy =    14.7929

     62  C    Isotropic =    50.5762   Anisotropy =   187.2919

     63  H    Isotropic =    24.3430   Anisotropy =     7.9971

     64  C    Isotropic =    52.1415   Anisotropy =   186.9839

     65  H    Isotropic =    24.1260   Anisotropy =     4.2277

     66  C    Isotropic =    50.8137   Anisotropy =   164.9607

     67  H    Isotropic =    23.7626   Anisotropy =     7.8557

     68  C    Isotropic =    46.5697   Anisotropy =   213.3056

     69  C    Isotropic =    47.3354   Anisotropy =   163.5231

     70  H    Isotropic =    23.7578   Anisotropy =     7.9583

     71  C    Isotropic =    61.4758   Anisotropy =   145.0317

     72  H    Isotropic =    24.2558   Anisotropy =     8.1247

     73  C    Isotropic =    25.8706   Anisotropy =   109.9502

     74  N    Isotropic =    82.5760   Anisotropy =   101.1663

     75  O    Isotropic =   132.4767   Anisotropy =    87.5695

     76  O    Isotropic =   134.6472   Anisotropy =    62.5066

     77  P    Isotropic =   197.6416   Anisotropy =    81.9005

     78  P    Isotropic =   161.6913   Anisotropy =   194.2865

     79  Rh   Isotropic =  -275.1490   Anisotropy =   318.8354

     80  C    Isotropic =    77.3399   Anisotropy =   125.7501

     81  C    Isotropic =    82.4479   Anisotropy =   110.4368

     82  C    Isotropic =    71.1012   Anisotropy =   132.7302

     83  C    Isotropic =    69.2874   Anisotropy =   130.8318

     84  H    Isotropic =    26.8783   Anisotropy =     4.5406

     85  C    Isotropic =   153.9133   Anisotropy =    25.0996

     86  H    Isotropic =    26.9343   Anisotropy =    10.8931

     87  C    Isotropic =   147.4740   Anisotropy =    31.3704

     88  C    Isotropic =   154.6225   Anisotropy =    25.0173

     89  H    Isotropic =    26.7216   Anisotropy =     6.5955

     90  H    Isotropic =    26.7046   Anisotropy =     3.0248

     91  C    Isotropic =   148.9281   Anisotropy =    26.5146

     92  H    Isotropic =    29.8783   Anisotropy =     9.6364

     93  H    Isotropic =    29.9624   Anisotropy =    10.7187

     94  H    Isotropic =    29.2277   Anisotropy =    12.1575

     95  H    Isotropic =    29.1609   Anisotropy =     7.1274

     96  H    Isotropic =    29.9442   Anisotropy =    12.0452

     97  H    Isotropic =    29.8864   Anisotropy =     9.6351

     98  H    Isotropic =    29.4200   Anisotropy =    13.1149

     99  H    Isotropic =    29.2943   Anisotropy =     7.8854

 The electronic state is 1-A.
 Alpha  occ. eigenvalues --  -77.31704 -77.25805 -19.26745 -19.26655 -14.44780
 Alpha  occ. eigenvalues --  -10.33343 -10.33341 -10.32058 -10.30896 -10.29797
 Alpha  occ. eigenvalues --  -10.29459 -10.29189 -10.28912 -10.28687 -10.28538
 Alpha  occ. eigenvalues --  -10.28512 -10.28411 -10.28359 -10.27837 -10.27769
 Alpha  occ. eigenvalues --  -10.27730 -10.27707 -10.27668 -10.27537 -10.27470
 Alpha  occ. eigenvalues --  -10.27404 -10.27290 -10.27166 -10.26977 -10.26904
 Alpha  occ. eigenvalues --  -10.26903 -10.26896 -10.26737 -10.26662 -10.26629
 Alpha  occ. eigenvalues --  -10.25935 -10.25661 -10.25634 -10.25530 -10.25521
 Alpha  occ. eigenvalues --  -10.25472 -10.25424 -10.25404 -10.25396 -10.25395
 Alpha  occ. eigenvalues --  -10.25329 -10.25308 -10.25278 -10.25256 -10.25190
 Alpha  occ. eigenvalues --  -10.25078  -6.76501  -6.71402  -4.92901  -4.92827
 Alpha  occ. eigenvalues --   -4.92367  -4.87822  -4.87538  -4.87304  -3.32007
 Alpha  occ. eigenvalues --   -2.09084  -2.08246  -2.05310  -1.18619  -1.14438
 Alpha  occ. eigenvalues --   -1.02210  -0.97543  -0.96569  -0.96000  -0.94567
 Alpha  occ. eigenvalues --   -0.94308  -0.92195  -0.91738  -0.90819  -0.89266
 Alpha  occ. eigenvalues --   -0.88807  -0.88083  -0.87864  -0.86092  -0.85474
 Alpha  occ. eigenvalues --   -0.84815  -0.83598  -0.82995  -0.82789  -0.82082
 Alpha  occ. eigenvalues --   -0.81560  -0.80437  -0.79902  -0.79224  -0.78696
 Alpha  occ. eigenvalues --   -0.77896  -0.77090  -0.76112  -0.73001  -0.71836
 Alpha  occ. eigenvalues --   -0.71622  -0.71293  -0.70639  -0.70459  -0.69742
 Alpha  occ. eigenvalues --   -0.69352  -0.68722  -0.68163  -0.66648  -0.66452
 Alpha  occ. eigenvalues --   -0.65890  -0.64392  -0.63885  -0.62572  -0.61979
 Alpha  occ. eigenvalues --   -0.61667  -0.61379  -0.60901  -0.60026  -0.59900
 Alpha  occ. eigenvalues --   -0.59683  -0.58284  -0.57968  -0.57341  -0.56892
 Alpha  occ. eigenvalues --   -0.56485  -0.56258  -0.55908  -0.55454  -0.54937
 Alpha  occ. eigenvalues --   -0.54783  -0.54434  -0.54261  -0.53865  -0.53805
 Alpha  occ. eigenvalues --   -0.53694  -0.53633  -0.52796  -0.52713  -0.52645
 Alpha  occ. eigenvalues --   -0.52589  -0.52441  -0.52042  -0.51711  -0.51236
 Alpha  occ. eigenvalues --   -0.51105  -0.50730  -0.50641  -0.50197  -0.50038
 Alpha  occ. eigenvalues --   -0.49494  -0.49028  -0.48538  -0.48263  -0.48202
 Alpha  occ. eigenvalues --   -0.47988  -0.47955  -0.47699  -0.47634  -0.47209
 Alpha  occ. eigenvalues --   -0.46924  -0.46675  -0.46437  -0.46121  -0.46061
 Alpha  occ. eigenvalues --   -0.45546  -0.45130  -0.44876  -0.44793  -0.44135
 Alpha  occ. eigenvalues --   -0.43941  -0.43668  -0.43383  -0.43351  -0.43113
 Alpha  occ. eigenvalues --   -0.42965  -0.42890  -0.42532  -0.42211  -0.42009
 Alpha  occ. eigenvalues --   -0.41461  -0.41292  -0.40799  -0.40632  -0.38412
 Alpha  occ. eigenvalues --   -0.38257  -0.37768  -0.37433  -0.36670  -0.36447
 Alpha  occ. eigenvalues --   -0.36189  -0.34969  -0.34833  -0.34037  -0.33790
 Alpha  occ. eigenvalues --   -0.33321  -0.33205  -0.32870  -0.31078  -0.30810
 Alpha  occ. eigenvalues --   -0.29945
 Alpha virt. eigenvalues --   -0.16084  -0.15050  -0.14263  -0.12896  -0.12589
 Alpha virt. eigenvalues --   -0.11681  -0.10622  -0.10151  -0.10036  -0.09491
 Alpha virt. eigenvalues --   -0.09282  -0.07863  -0.07154  -0.06547  -0.06156

 Mulliken charges:
               1
     1  C   -0.152464
     2  C   -0.048586
     3  H    0.130603
     4  C   -0.119458
     5  H    0.134451
     6  C   -0.082355
     7  H    0.139685
     8  C   -0.100927
     9  H    0.130938
    10  C   -0.071825
    11  H    0.212340
    12  C    0.018109
    13  C   -0.411639
    14  H    0.158522
    15  H    0.138355
    16  H    0.156642
    17  C   -0.406401
    18  H    0.126393
    19  H    0.153312
    20  H    0.156416
    21  C   -0.357496
    22  H    0.147459
    23  H    0.134371
    24  H    0.161056
    25  C   -0.068447
    26  H    0.202718
    27  C   -0.409857
    28  H    0.139934
    29  H    0.168258
    30  H    0.146732
    31  C   -0.092142
    32  C   -0.131034
    33  H    0.201185
    34  C   -0.094271
    35  H    0.122002
    36  C   -0.101628
    37  H    0.126827
    38  C   -0.087884
    39  H    0.124028
    40  C   -0.076140
    41  H    0.131229
    42  C    0.110280
    43  C   -0.228684
    44  H    0.123579
    45  C   -0.124411
    46  H    0.119867
    47  C    0.034319
    48  C   -0.149097
    49  H    0.115597
    50  C   -0.080588
    51  H    0.124378
    52  C   -0.073835
    53  H    0.123001
    54  C   -0.105588
    55  H    0.155152
    56  C    0.001179
    57  C   -0.018738
    58  C    0.013814
    59  C   -0.007820
    60  C   -0.111421
    61  H    0.154127
    62  C   -0.071985
    63  H    0.122008
    64  C   -0.084176
    65  H    0.123798
    66  C   -0.140103
    67  H    0.116395
    68  C    0.028805
    69  C   -0.165741
    70  H    0.119957
    71  C   -0.168379
    72  H    0.133472
    73  C    0.142688
    74  N   -0.418077
    75  O   -0.317484
    76  O   -0.320172
    77  P    0.286872
    78  P    0.774528
    79  Rh  -0.700287
    80  C   -0.011312
    81  C   -0.128801
    82  C   -0.021153
    83  C   -0.091995
    84  H    0.196187
    85  C   -0.357862
    86  H    0.259174
    87  C   -0.237676
    88  C   -0.338691
    89  H    0.183261
    90  H    0.207063
    91  C   -0.244706
    92  H    0.168325
    93  H    0.171830
    94  H    0.173226
    95  H    0.135101
    96  H    0.171239
    97  H    0.167884
    98  H    0.173501
    99  H    0.139168
 Sum of Mulliken charges =   1.00000

 Dipole moment (field-independent basis, Debye):
    X=              4.6414    Y=             -1.7600    Z=              0.7212  Tot=              5.0160
 Quadrupole moment (field-independent basis, Debye-Ang):
   XX=           -247.7105   YY=           -272.3273   ZZ=           -293.0859
   XY=              4.2524   XZ=              3.6605   YZ=              9.2918

 Summary of Natural Population Analysis:

                                       Natural Population
                Natural  -----------------------------------------------
    Atom  No    Charge         Core      Valence    Rydberg      Total
 -----------------------------------------------------------------------
      C    1   -0.37561      1.99895     4.35059    0.02607     6.37561
      C    2   -0.19168      1.99909     4.17680    0.01580     6.19168
      H    3    0.21145      0.00000     0.78606    0.00249     0.78855
      C    4   -0.19327      1.99919     4.17949    0.01459     6.19327
      H    5    0.22349      0.00000     0.77527    0.00124     0.77651
      C    6   -0.17370      1.99920     4.15987    0.01463     6.17370
      H    7    0.22368      0.00000     0.77515    0.00117     0.77632
      C    8   -0.19761      1.99919     4.18351    0.01492     6.19761
      H    9    0.22126      0.00000     0.77745    0.00129     0.77874
      C   10   -0.18617      1.99910     4.17043    0.01664     6.18617
      H   11    0.22422      0.00000     0.77335    0.00244     0.77578
      C   12   -0.28567      1.99942     4.26701    0.01925     6.28567
      C   13   -0.60075      1.99936     4.59313    0.00827     6.60075
      H   14    0.22301      0.00000     0.77530    0.00169     0.77699
      H   15    0.21513      0.00000     0.78332    0.00155     0.78487
      H   16    0.22210      0.00000     0.77621    0.00168     0.77790
      C   17   -0.60142      1.99935     4.59430    0.00777     6.60142
      H   18    0.20490      0.00000     0.79355    0.00155     0.79510
      H   19    0.21424      0.00000     0.78422    0.00154     0.78576
      H   20    0.22575      0.00000     0.77251    0.00174     0.77425
      C   21   -0.60620      1.99934     4.59667    0.01019     6.60620
      H   22    0.21944      0.00000     0.77885    0.00171     0.78056
      H   23    0.20119      0.00000     0.79721    0.00160     0.79881
      H   24    0.23383      0.00000     0.76422    0.00195     0.76617
      C   25   -0.06125      1.99923     4.03664    0.02537     6.06125
      H   26    0.22394      0.00000     0.77289    0.00317     0.77606
      C   27   -0.60536      1.99943     4.59721    0.00873     6.60536
      H   28    0.21564      0.00000     0.78261    0.00175     0.78436
      H   29    0.22655      0.00000     0.77233    0.00113     0.77345
      H   30    0.20898      0.00000     0.78909    0.00193     0.79102
      C   31   -0.05190      1.99904     4.03322    0.01964     6.05190
      C   32   -0.20860      1.99910     4.19455    0.01495     6.20860
      H   33    0.22622      0.00000     0.77151    0.00227     0.77378
      C   34   -0.19609      1.99920     4.18203    0.01486     6.19609
      H   35    0.21520      0.00000     0.78356    0.00124     0.78480
      C   36   -0.19683      1.99920     4.18276    0.01487     6.19683
      H   37    0.21825      0.00000     0.78056    0.00119     0.78175
      C   38   -0.19694      1.99920     4.18249    0.01524     6.19694
      H   39    0.21700      0.00000     0.78177    0.00123     0.78300
      C   40   -0.21105      1.99910     4.19739    0.01456     6.21105
      H   41    0.21281      0.00000     0.78561    0.00159     0.78719
      C   42    0.25583      1.99862     3.72266    0.02289     5.74417
      C   43   -0.24938      1.99906     4.23505    0.01527     6.24938
      H   44    0.22665      0.00000     0.77166    0.00169     0.77335
      C   45   -0.14991      1.99914     4.13703    0.01375     6.14991
      H   46    0.21792      0.00000     0.78067    0.00140     0.78208
      C   47   -0.06523      1.99910     4.05016    0.01597     6.06523
      C   48   -0.17113      1.99914     4.15800    0.01398     6.17113
      H   49    0.21348      0.00000     0.78506    0.00146     0.78652
      C   50   -0.19499      1.99920     4.18099    0.01481     6.19499
      H   51    0.21969      0.00000     0.77912    0.00118     0.78031
      C   52   -0.18492      1.99920     4.17091    0.01480     6.18492
      H   53    0.21869      0.00000     0.78012    0.00119     0.78131
      C   54   -0.18765      1.99913     4.17441    0.01410     6.18765
      H   55    0.22198      0.00000     0.77629    0.00172     0.77802
      C   56   -0.03208      1.99904     4.01654    0.01650     6.03208
      C   57   -0.06006      1.99888     4.04194    0.01924     6.06006
      C   58   -0.07073      1.99887     4.05214    0.01971     6.07073
      C   59   -0.03011      1.99904     4.01430    0.01677     6.03011
      C   60   -0.18905      1.99913     4.17597    0.01395     6.18905
      H   61    0.22051      0.00000     0.77772    0.00177     0.77949
      C   62   -0.18433      1.99920     4.17031    0.01482     6.18433
      H   63    0.21829      0.00000     0.78052    0.00119     0.78171
      C   64   -0.19575      1.99920     4.18171    0.01485     6.19575
      H   65    0.21955      0.00000     0.77930    0.00116     0.78045
      C   66   -0.17032      1.99915     4.15694    0.01423     6.17032
      H   67    0.21346      0.00000     0.78491    0.00163     0.78654
      C   68   -0.06603      1.99909     4.05096    0.01597     6.06603
      C   69   -0.14763      1.99914     4.13437    0.01412     6.14763
      H   70    0.21783      0.00000     0.78062    0.00155     0.78217
      C   71   -0.24663      1.99906     4.23237    0.01521     6.24663
      H   72    0.22343      0.00000     0.77497    0.00160     0.77657
      C   73    0.26407      1.99860     3.71366    0.02366     5.73593
      N   74   -1.02972      1.99955     6.00560    0.02456     8.02972
      O   75   -0.75345      1.99979     6.73973    0.01393     8.75345
      O   76   -0.75715      1.99978     6.74354    0.01382     8.75715
      P   77    1.30752      9.99620     3.63671    0.05957    13.69248
      P   78    1.88196      9.99522     3.02240    0.10042    13.11804
     Rh   79   -0.46024     35.98427     9.44747    0.02850    45.46024
      C   80   -0.15686      1.99907     4.13829    0.01951     6.15686
      C   81   -0.17861      1.99909     4.15897    0.02055     6.17861
      C   82   -0.17665      1.99908     4.15737    0.02021     6.17665
      C   83   -0.15207      1.99908     4.13267    0.02032     6.15207
      H   84    0.23614      0.00000     0.76195    0.00191     0.76386
      C   85   -0.42449      1.99936     4.41333    0.01180     6.42449
      H   86    0.23558      0.00000     0.76195    0.00247     0.76442
      C   87   -0.41732      1.99935     4.40497    0.01300     6.41732
      C   88   -0.42516      1.99936     4.41390    0.01190     6.42516
      H   89    0.22230      0.00000     0.77556    0.00213     0.77770
      H   90    0.23277      0.00000     0.76541    0.00182     0.76723
      C   91   -0.42105      1.99935     4.40890    0.01280     6.42105
      H   92    0.21490      0.00000     0.78316    0.00195     0.78510
      H   93    0.22984      0.00000     0.76870    0.00146     0.77016
      H   94    0.23385      0.00000     0.76428    0.00187     0.76615
      H   95    0.21627      0.00000     0.78221    0.00153     0.78373
      H   96    0.22992      0.00000     0.76860    0.00148     0.77008
      H   97    0.21541      0.00000     0.78260    0.00199     0.78459
      H   98    0.23526      0.00000     0.76284    0.00191     0.76474
      H   99    0.21739      0.00000     0.78083    0.00178     0.78261
 =======================================================================
   * Total *    1.00000    153.93523   265.01398    1.05078   420.00000

 Normal termination of Gaussian 16 at Wed Nov  6 01:41:01 2024.
