 Gaussian 16, Revision B.01,
 Gaussian 16:  ES64L-G16RevB.01 20-Dec-2017

 ------------------------------------------
 # nmr=giao b3lyp/genecp pop=nbo scfcyc=200
 ------------------------------------------

 --------------
 Ligand 57a SPE
 --------------
 Symbolic Z-matrix:
 Charge =  1 Multiplicity = 1

                         Standard orientation:
 ---------------------------------------------------------------------
 Center     Atomic      Atomic             Coordinates (Angstroms)
 Number     Number       Type             X           Y           Z
 ---------------------------------------------------------------------
      1          6           0       -1.000910   -1.035111    2.043060
      2          1           0       -0.129449   -1.633611    1.749340
      3          6           0       -0.600520   -0.292941    3.321850
      4          1           0        0.200340    0.408909    3.102720
      5          1           0       -0.229140   -0.990641    4.073390
      6          1           0       -1.428550    0.266468    3.753920
      7          6           0       -2.151179   -2.030142    2.231280
      8          6           0       -2.767869   -2.627992    1.125830
      9          1           0       -2.492529   -2.319222    0.126090
     10          6           0       -3.762588   -3.584673    1.284340
     11          1           0       -4.229138   -4.022193    0.410410
     12          6           0       -4.164848   -3.971923    2.558820
     13          1           0       -4.940178   -4.716943    2.685190
     14          6           0       -3.568068   -3.384523    3.666500
     15          1           0       -3.875438   -3.669953    4.664970
     16          6           0       -2.573889   -2.422372    3.504230
     17          1           0       -2.132259   -1.984552    4.388130
     18          6           0        1.017009    2.515860    0.732280
     19          1           0       -0.048491    2.486279    0.973240
     20          6           0        1.751699    2.711330    2.059230
     21          1           0        1.644699    1.833400    2.691490
     22          1           0        1.325508    3.559000    2.595540
     23          1           0        2.815779    2.900860    1.923760
     24          6           0        1.195058    3.683240   -0.245650
     25          6           0        1.761728    4.893180    0.166640
     26          1           0        2.135297    5.011760    1.173600
     27          6           0        1.865327    5.974170   -0.705410
     28          1           0        2.312447    6.897670   -0.358600
     29          6           0        1.398957    5.871310   -2.009430
     30          1           0        1.479547    6.710920   -2.688330
     31          6           0        0.821908    4.677249   -2.430230
     32          1           0        0.445978    4.584349   -3.442050
     33          6           0        0.718078    3.599759   -1.557940
     34          1           0        0.260329    2.683949   -1.901650
     35          6           0        3.931709    1.023471   -1.359500
     36          6           0        4.337699    2.477911   -1.076680
     37          1           0        4.907639    2.597541   -0.157740
     38          1           0        3.482958    3.147001   -1.043480
     39          1           0        4.983769    2.812391   -1.893180
     40          6           0        3.219459    0.976211   -2.723850
     41          1           0        3.904189    1.345261   -3.491370
     42          1           0        2.335169    1.612350   -2.736810
     43          1           0        2.916410   -0.035150   -2.996350
     44          6           0        5.194580    0.139952   -1.398420
     45          1           0        5.830660    0.481612   -2.218560
     46          1           0        4.971240   -0.911889   -1.578450
     47          1           0        5.775980    0.206012   -0.479700
     48          6           0        3.600730   -0.028999    1.516640
     49          6           0        3.163971   -1.111249    2.290220
     50          1           0        2.370851   -1.745800    1.912010
     51          6           0        3.738241   -1.387869    3.525570
     52          1           0        3.383511   -2.229069    4.108110
     53          6           0        4.774070   -0.593539    4.004100
     54          1           0        5.229140   -0.809588    4.962490
     55          6           0        5.226570    0.477962    3.241310
     56          1           0        6.035039    1.100072    3.604500
     57          6           0        4.645200    0.759721    2.010410
     58          1           0        5.013939    1.604892    1.451100
     59          6           0       -2.552440    0.539668    0.710670
     60          1           0       -3.208850   -0.079513    1.317120
     61          6           0       -2.690281    1.962748    1.257160
     62          6           0       -2.456872    3.093278    0.471430
     63          1           0       -2.158112    2.984338   -0.562530
     64          6           0       -2.619232    4.371318    0.996580
     65          1           0       -2.429863    5.234188    0.370440
     66          6           0       -3.037082    4.541078    2.312260
     67          1           0       -3.173523    5.536057    2.717040
     68          6           0       -3.300102    3.423487    3.097600
     69          1           0       -3.649832    3.543667    4.115560
     70          6           0       -3.131971    2.148218    2.569910
     71          1           0       -3.368261    1.286587    3.183770
     72          6           0       -2.109190    0.496728   -1.744050
     73          6           0       -3.024330    0.412048   -0.726360
     74          6           0       -4.402080    0.226777   -1.061350
     75          6           0       -5.433910    0.161286   -0.090640
     76          1           0       -5.197190    0.263116    0.959130
     77          6           0       -6.744640   -0.014484   -0.459530
     78          1           0       -7.514110   -0.057485    0.301180
     79          6           0       -7.101560   -0.133954   -1.817630
     80          1           0       -8.139610   -0.271805   -2.092060
     81          6           0       -6.132250   -0.068504   -2.784660
     82          1           0       -6.396060   -0.152524   -3.832380
     83          6           0       -4.770850    0.116757   -2.441040
     84          6           0       -3.769090    0.204407   -3.439870
     85          1           0       -4.058540    0.126417   -4.480880
     86          6           0       -2.456820    0.391708   -3.104180
     87          1           0       -1.680200    0.473858   -3.853050
     88          7           0       -1.210950   -0.112922    0.889490
     89          7           0        1.267579    1.159900    0.143580
     90          8           0       -0.770360    0.759149   -1.463830
     91         15           0        0.048620   -0.003081   -0.236110
     92         15           0        2.738700    0.206020   -0.110770
     93         45           0        1.498481   -1.691920   -0.804100
     94          6           0        2.979181   -2.967609   -2.058090
     95          6           0        3.124572   -3.312249   -0.736600
     96          6           0        0.214732   -3.579561   -0.775090
     97          6           0        0.061411   -2.960211   -1.998450
     98          1           0        3.651591   -2.212739   -2.445990
     99          6           0        2.229312   -3.758170   -3.111730
    100          1           0        3.924171   -2.833579   -0.180880
    101          6           0        2.498452   -4.497230   -0.046020
    102          6           0        1.056312   -4.812130   -0.497440
    103          1           0       -0.531378   -3.361581   -0.022000
    104          1           0       -0.811899   -2.328691   -2.129290
    105          6           0        0.761682   -3.315931   -3.285500
    106          1           0        2.283022   -4.821490   -2.881680
    107          1           0        2.744082   -3.631500   -4.065740
    108          1           0        3.132273   -5.381499   -0.187540
    109          1           0        2.504092   -4.300370    1.028140
    110          1           0        0.567523   -5.388631    0.289650
    111          1           0        1.065813   -5.456450   -1.376050
    112          1           0        0.198312   -4.099241   -3.807960
    113          1           0        0.725911   -2.439701   -3.936560
 ---------------------------------------------------------------------

 SCF Done:  E(RB3LYP) =  -2955.82235918     A.U. after   18 cycles

      1  C    Isotropic =   122.2162   Anisotropy =    37.7848

      2  H    Isotropic =    26.0857   Anisotropy =     8.0370

      3  C    Isotropic =   161.5446   Anisotropy =    19.5638

      4  H    Isotropic =    30.8028   Anisotropy =     7.7114

      5  H    Isotropic =    29.9835   Anisotropy =    10.2426

      6  H    Isotropic =    29.8027   Anisotropy =     7.4489

      7  C    Isotropic =    38.6359   Anisotropy =   181.7162

      8  C    Isotropic =    52.8537   Anisotropy =   183.7404

      9  H    Isotropic =    25.1026   Anisotropy =     6.4302

     10  C    Isotropic =    49.8516   Anisotropy =   188.7856

     11  H    Isotropic =    24.9330   Anisotropy =     8.2671

     12  C    Isotropic =    49.6137   Anisotropy =   190.7295

     13  H    Isotropic =    24.3588   Anisotropy =     4.4255

     14  C    Isotropic =    48.4225   Anisotropy =   188.9576

     15  H    Isotropic =    24.0694   Anisotropy =     5.2365

     16  C    Isotropic =    51.6972   Anisotropy =   181.8112

     17  H    Isotropic =    24.1257   Anisotropy =    12.1019

     18  C    Isotropic =   119.3409   Anisotropy =    46.7377

     19  H    Isotropic =    27.6640   Anisotropy =    10.1953

     20  C    Isotropic =   162.6125   Anisotropy =    10.8109

     21  H    Isotropic =    31.5534   Anisotropy =     3.7842

     22  H    Isotropic =    30.8163   Anisotropy =     9.2697

     23  H    Isotropic =    30.7127   Anisotropy =     6.6464

     24  C    Isotropic =    34.2877   Anisotropy =   193.2057

     25  C    Isotropic =    53.0102   Anisotropy =   181.8932

     26  H    Isotropic =    24.7794   Anisotropy =    11.6601

     27  C    Isotropic =    49.5874   Anisotropy =   187.5578

     28  H    Isotropic =    24.2752   Anisotropy =     5.1175

     29  C    Isotropic =    50.1569   Anisotropy =   189.8003

     30  H    Isotropic =    24.2009   Anisotropy =     4.2359

     31  C    Isotropic =    49.8490   Anisotropy =   186.5165

     32  H    Isotropic =    24.0150   Anisotropy =     8.3177

     33  C    Isotropic =    49.0838   Anisotropy =   191.3977

     34  H    Isotropic =    22.8882   Anisotropy =     9.8106

     35  C    Isotropic =   133.0107   Anisotropy =    33.8227

     36  C    Isotropic =   156.2255   Anisotropy =    39.8172

     37  H    Isotropic =    30.4534   Anisotropy =     8.1408

     38  H    Isotropic =    31.4329   Anisotropy =    15.9551

     39  H    Isotropic =    31.2058   Anisotropy =     9.9415

     40  C    Isotropic =   153.7096   Anisotropy =    38.4805

     41  H    Isotropic =    31.0248   Anisotropy =     9.7927

     42  H    Isotropic =    29.7097   Anisotropy =     6.6634

     43  H    Isotropic =    29.9906   Anisotropy =     7.6385

     44  C    Isotropic =   157.4608   Anisotropy =    37.4979

     45  H    Isotropic =    31.0068   Anisotropy =    11.3113

     46  H    Isotropic =    31.4469   Anisotropy =     6.2101

     47  H    Isotropic =    30.7761   Anisotropy =     7.8976

     48  C    Isotropic =    39.0572   Anisotropy =   171.0062

     49  C    Isotropic =    40.4355   Anisotropy =   180.9017

     50  H    Isotropic =    22.8904   Anisotropy =     9.1759

     51  C    Isotropic =    49.7078   Anisotropy =   186.4669

     52  H    Isotropic =    24.0557   Anisotropy =     7.9772

     53  C    Isotropic =    45.5397   Anisotropy =   197.9102

     54  H    Isotropic =    24.0121   Anisotropy =     4.1483

     55  C    Isotropic =    49.8644   Anisotropy =   187.8222

     56  H    Isotropic =    24.1599   Anisotropy =     6.0564

     57  C    Isotropic =    46.1519   Anisotropy =   186.5146

     58  H    Isotropic =    23.7274   Anisotropy =    11.2226

     59  C    Isotropic =   119.9019   Anisotropy =    20.5653

     60  H    Isotropic =    25.8740   Anisotropy =     3.1906

     61  C    Isotropic =    36.2465   Anisotropy =   193.8167

     62  C    Isotropic =    49.5005   Anisotropy =   187.9677

     63  H    Isotropic =    24.8951   Anisotropy =     9.7725

     64  C    Isotropic =    49.6987   Anisotropy =   190.5099

     65  H    Isotropic =    25.3774   Anisotropy =     7.7173

     66  C    Isotropic =    49.3404   Anisotropy =   190.9868

     67  H    Isotropic =    24.6995   Anisotropy =     4.1502

     68  C    Isotropic =    49.7795   Anisotropy =   186.2184

     69  H    Isotropic =    24.4585   Anisotropy =     5.9578

     70  C    Isotropic =    48.8605   Anisotropy =   167.6276

     71  H    Isotropic =    24.4558   Anisotropy =    10.2677

     72  C    Isotropic =    28.7029   Anisotropy =   111.1335

     73  C    Isotropic =    52.3099   Anisotropy =   158.4326

     74  C    Isotropic =    48.7712   Anisotropy =   200.5752

     75  C    Isotropic =    57.8160   Anisotropy =   175.2456

     76  H    Isotropic =    24.8254   Anisotropy =    12.7272

     77  C    Isotropic =    50.5808   Anisotropy =   186.7759

     78  H    Isotropic =    24.4666   Anisotropy =     8.4090

     79  C    Isotropic =    52.5009   Anisotropy =   183.6940

     80  H    Isotropic =    24.2418   Anisotropy =     4.1177

     81  C    Isotropic =    49.6272   Anisotropy =   164.4333

     82  H    Isotropic =    23.8221   Anisotropy =     7.6618

     83  C    Isotropic =    46.6237   Anisotropy =   211.8583

     84  C    Isotropic =    47.5352   Anisotropy =   163.2766

     85  H    Isotropic =    23.6564   Anisotropy =     7.3922

     86  C    Isotropic =    62.3170   Anisotropy =   144.9420

     87  H    Isotropic =    23.9774   Anisotropy =     8.4757

     88  N    Isotropic =   145.0260   Anisotropy =    39.7072

     89  N    Isotropic =    80.6760   Anisotropy =   108.9359

     90  O    Isotropic =   160.1270   Anisotropy =    89.9094

     91  P    Isotropic =   179.5263   Anisotropy =   192.1919

     92  P    Isotropic =   189.2223   Anisotropy =    88.0440

     93  Rh   Isotropic =  -284.4209   Anisotropy =   332.3248

     94  C    Isotropic =    71.1049   Anisotropy =   133.8425

     95  C    Isotropic =    74.0619   Anisotropy =   125.3070

     96  C    Isotropic =    79.3348   Anisotropy =   122.5970

     97  C    Isotropic =    80.8656   Anisotropy =   112.2695

     98  H    Isotropic =    26.5183   Anisotropy =     6.1373

     99  C    Isotropic =   154.5139   Anisotropy =    25.3040

    100  H    Isotropic =    26.7122   Anisotropy =     3.7221

    101  C    Isotropic =   149.0431   Anisotropy =    25.5066

    102  C    Isotropic =   154.3980   Anisotropy =    24.3298

    103  H    Isotropic =    26.9301   Anisotropy =    10.0078

    104  H    Isotropic =    26.5241   Anisotropy =     5.5534

    105  C    Isotropic =   147.1375   Anisotropy =    31.1187

    106  H    Isotropic =    29.8007   Anisotropy =     9.9384

    107  H    Isotropic =    29.8464   Anisotropy =    12.0884

    108  H    Isotropic =    29.3918   Anisotropy =    13.3899

    109  H    Isotropic =    29.3911   Anisotropy =     7.2997

    110  H    Isotropic =    30.2245   Anisotropy =    10.0767

    111  H    Isotropic =    29.9515   Anisotropy =     9.8935

    112  H    Isotropic =    29.1440   Anisotropy =    12.3522

    113  H    Isotropic =    28.9317   Anisotropy =     7.0464

 The electronic state is 1-A.
 Alpha  occ. eigenvalues --  -77.29819 -77.25031 -19.26046 -14.43878 -14.43219
 Alpha  occ. eigenvalues --  -10.32803 -10.31837 -10.31737 -10.31276 -10.30360
 Alpha  occ. eigenvalues --  -10.29261 -10.28904 -10.28836 -10.28641 -10.28382
 Alpha  occ. eigenvalues --  -10.28099 -10.28095 -10.27559 -10.27526 -10.27478
 Alpha  occ. eigenvalues --  -10.27386 -10.27373 -10.27334 -10.27326 -10.27217
 Alpha  occ. eigenvalues --  -10.27120 -10.27001 -10.26793 -10.26685 -10.26653
 Alpha  occ. eigenvalues --  -10.26414 -10.26338 -10.26095 -10.25900 -10.25887
 Alpha  occ. eigenvalues --  -10.25720 -10.25664 -10.25632 -10.25468 -10.25430
 Alpha  occ. eigenvalues --  -10.25420 -10.25362 -10.25350 -10.25346 -10.25277
 Alpha  occ. eigenvalues --  -10.25248 -10.25237 -10.25215 -10.25214 -10.25212
 Alpha  occ. eigenvalues --  -10.25187 -10.25166 -10.25164 -10.25020 -10.24952
 Alpha  occ. eigenvalues --  -10.24933  -6.74693  -6.70623  -4.91127  -4.90961
 Alpha  occ. eigenvalues --   -4.90591  -4.87023  -4.86771  -4.86534  -3.31247
 Alpha  occ. eigenvalues --   -2.08247  -2.07486  -2.04610  -1.16498  -1.02906
 Alpha  occ. eigenvalues --   -1.00721  -0.96494  -0.96189  -0.94619  -0.94265
 Alpha  occ. eigenvalues --   -0.94113  -0.93830  -0.91645  -0.91055  -0.88966
 Alpha  occ. eigenvalues --   -0.88927  -0.87802  -0.87418  -0.86279  -0.85510
 Alpha  occ. eigenvalues --   -0.85129  -0.84202  -0.83300  -0.82913  -0.82892
 Alpha  occ. eigenvalues --   -0.82702  -0.81695  -0.81341  -0.80882  -0.80145
 Alpha  occ. eigenvalues --   -0.78750  -0.78284  -0.77620  -0.77035  -0.76053
 Alpha  occ. eigenvalues --   -0.75383  -0.72426  -0.71933  -0.71004  -0.70845
 Alpha  occ. eigenvalues --   -0.70349  -0.69202  -0.68996  -0.68951  -0.68559
 Alpha  occ. eigenvalues --   -0.68234  -0.67904  -0.67064  -0.66471  -0.65632
 Alpha  occ. eigenvalues --   -0.64486  -0.63631  -0.62586  -0.62379  -0.61727
 Alpha  occ. eigenvalues --   -0.61295  -0.60532  -0.60300  -0.59950  -0.59679
 Alpha  occ. eigenvalues --   -0.59376  -0.58244  -0.57478  -0.56763  -0.56600
 Alpha  occ. eigenvalues --   -0.56226  -0.55891  -0.55701  -0.55449  -0.54754
 Alpha  occ. eigenvalues --   -0.54510  -0.54222  -0.54006  -0.53930  -0.53778
 Alpha  occ. eigenvalues --   -0.53588  -0.53551  -0.53399  -0.53253  -0.52905
 Alpha  occ. eigenvalues --   -0.52540  -0.52434  -0.52308  -0.52250  -0.52019
 Alpha  occ. eigenvalues --   -0.51542  -0.51301  -0.50799  -0.50676  -0.50323
 Alpha  occ. eigenvalues --   -0.50221  -0.49901  -0.49713  -0.49517  -0.49073
 Alpha  occ. eigenvalues --   -0.48569  -0.48392  -0.48109  -0.47855  -0.47561
 Alpha  occ. eigenvalues --   -0.47387  -0.47328  -0.47217  -0.46975  -0.46600
 Alpha  occ. eigenvalues --   -0.46413  -0.46227  -0.45872  -0.45818  -0.45747
 Alpha  occ. eigenvalues --   -0.45274  -0.45053  -0.44758  -0.44568  -0.44399
 Alpha  occ. eigenvalues --   -0.43839  -0.43660  -0.43572  -0.43233  -0.43050
 Alpha  occ. eigenvalues --   -0.42960  -0.42772  -0.42690  -0.42658  -0.42469
 Alpha  occ. eigenvalues --   -0.42269  -0.41909  -0.41636  -0.41082  -0.41040
 Alpha  occ. eigenvalues --   -0.40121  -0.37821  -0.37447  -0.36983  -0.36772
 Alpha  occ. eigenvalues --   -0.36098  -0.35823  -0.35115  -0.34556  -0.34182
 Alpha  occ. eigenvalues --   -0.34038  -0.33947  -0.33623  -0.33511  -0.33332
 Alpha  occ. eigenvalues --   -0.32794  -0.32622  -0.32472  -0.30449  -0.29840
 Alpha virt. eigenvalues --   -0.15548  -0.14326  -0.13071  -0.12410  -0.11440
 Alpha virt. eigenvalues --   -0.10357  -0.10130  -0.09840  -0.09702  -0.09563
 Alpha virt. eigenvalues --   -0.09264  -0.09184  -0.08898  -0.07383  -0.06411

 Mulliken charges:
               1
     1  C   -0.015374
     2  H    0.150644
     3  C   -0.382766
     4  H    0.130113
     5  H    0.147795
     6  H    0.139929
     7  C   -0.102672
     8  C   -0.175984
     9  H    0.189827
    10  C   -0.099238
    11  H    0.123789
    12  C   -0.097605
    13  H    0.125572
    14  C   -0.082282
    15  H    0.123968
    16  C   -0.128992
    17  H    0.132314
    18  C   -0.003966
    19  H    0.203245
    20  C   -0.491433
    21  H    0.179195
    22  H    0.170996
    23  H    0.152781
    24  C   -0.111368
    25  C   -0.061345
    26  H    0.129153
    27  C   -0.093482
    28  H    0.121039
    29  C   -0.096077
    30  H    0.124190
    31  C   -0.103990
    32  H    0.117702
    33  C   -0.171421
    34  H    0.228972
    35  C   -0.017538
    36  C   -0.380355
    37  H    0.139838
    38  H    0.180455
    39  H    0.146868
    40  C   -0.399920
    41  H    0.154164
    42  H    0.151541
    43  H    0.128472
    44  C   -0.415785
    45  H    0.153156
    46  H    0.141260
    47  H    0.156431
    48  C   -0.190706
    49  C   -0.040629
    50  H    0.194967
    51  C   -0.108783
    52  H    0.128268
    53  C   -0.088546
    54  H    0.137521
    55  C   -0.102584
    56  H    0.131600
    57  C   -0.050235
    58  H    0.137030
    59  C   -0.381472
    60  H    0.284661
    61  C    0.147462
    62  C   -0.139052
    63  H    0.139715
    64  C   -0.067287
    65  H    0.129189
    66  C   -0.114465
    67  H    0.124101
    68  C   -0.086748
    69  H    0.124353
    70  C   -0.180461
    71  H    0.134874
    72  C    0.153964
    73  C    0.074786
    74  C   -0.037524
    75  C   -0.143548
    76  H    0.119996
    77  C   -0.063312
    78  H    0.118570
    79  C   -0.090619
    80  H    0.122052
    81  C   -0.124490
    82  H    0.117685
    83  C    0.014304
    84  C   -0.197384
    85  H    0.116038
    86  C   -0.144636
    87  H    0.122566
    88  N   -0.323823
    89  N   -0.432630
    90  O   -0.342990
    91  P    0.773395
    92  P    0.395606
    93  Rh  -0.767512
    94  C   -0.038791
    95  C   -0.072602
    96  C   -0.050469
    97  C   -0.104764
    98  H    0.171989
    99  C   -0.348514
   100  H    0.209496
   101  C   -0.254198
   102  C   -0.352995
   103  H    0.202910
   104  H    0.229621
   105  C   -0.226424
   106  H    0.168472
   107  H    0.168907
   108  H    0.174396
   109  H    0.138687
   110  H    0.173410
   111  H    0.170620
   112  H    0.171460
   113  H    0.133704
 Sum of Mulliken charges =   1.00000

 Dipole moment (field-independent basis, Debye):
    X=              3.7144    Y=             -2.4431    Z=              0.6315  Tot=              4.4905
 Quadrupole moment (field-independent basis, Debye-Ang):
   XX=           -290.5476   YY=           -310.3037   ZZ=           -312.3711
   XY=              6.4131   XZ=              2.5244   YZ=              3.7954

 Summary of Natural Population Analysis:

                                       Natural Population
                Natural  -----------------------------------------------
    Atom  No    Charge         Core      Valence    Rydberg      Total
 -----------------------------------------------------------------------
      C    1   -0.04194      1.99923     4.02537    0.01733     6.04194
      H    2    0.21970      0.00000     0.77729    0.00301     0.78030
      C    3   -0.60466      1.99941     4.59687    0.00838     6.60466
      H    4    0.21200      0.00000     0.78672    0.00127     0.78800
      H    5    0.21309      0.00000     0.78560    0.00130     0.78691
      H    6    0.21346      0.00000     0.78493    0.00161     0.78654
      C    7   -0.05380      1.99904     4.03656    0.01820     6.05380
      C    8   -0.21789      1.99909     4.20387    0.01493     6.21789
      H    9    0.21239      0.00000     0.78520    0.00241     0.78761
      C   10   -0.19200      1.99919     4.17756    0.01525     6.19200
      H   11    0.21687      0.00000     0.78184    0.00129     0.78313
      C   12   -0.19681      1.99920     4.18292    0.01470     6.19681
      H   13    0.21867      0.00000     0.78014    0.00119     0.78133
      C   14   -0.19104      1.99921     4.17689    0.01494     6.19104
      H   15    0.21726      0.00000     0.78151    0.00123     0.78274
      C   16   -0.20815      1.99910     4.19493    0.01412     6.20815
      H   17    0.21336      0.00000     0.78504    0.00160     0.78664
      C   18   -0.07672      1.99923     4.05183    0.02566     6.07672
      H   19    0.23639      0.00000     0.76005    0.00356     0.76361
      C   20   -0.60274      1.99942     4.59472    0.00860     6.60274
      H   21    0.21346      0.00000     0.78453    0.00202     0.78654
      H   22    0.22568      0.00000     0.77315    0.00117     0.77432
      H   23    0.20529      0.00000     0.79281    0.00190     0.79471
      C   24   -0.04259      1.99903     4.02373    0.01983     6.04259
      C   25   -0.21304      1.99911     4.19952    0.01441     6.21304
      H   26    0.21225      0.00000     0.78610    0.00165     0.78775
      C   27   -0.19557      1.99920     4.18115    0.01522     6.19557
      H   28    0.21628      0.00000     0.78249    0.00123     0.78372
      C   29   -0.20076      1.99919     4.18663    0.01493     6.20076
      H   30    0.21756      0.00000     0.78125    0.00119     0.78244
      C   31   -0.19763      1.99920     4.18329    0.01514     6.19763
      H   32    0.21328      0.00000     0.78541    0.00131     0.78672
      C   33   -0.22130      1.99909     4.20636    0.01585     6.22130
      H   34    0.22826      0.00000     0.76886    0.00287     0.77174
      C   35   -0.28424      1.99941     4.26558    0.01924     6.28424
      C   36   -0.60408      1.99934     4.59468    0.01006     6.60408
      H   37    0.19708      0.00000     0.80138    0.00154     0.80292
      H   38    0.23233      0.00000     0.76584    0.00183     0.76767
      H   39    0.21960      0.00000     0.77864    0.00176     0.78040
      C   40   -0.59876      1.99936     4.59114    0.00826     6.59876
      H   41    0.21914      0.00000     0.77912    0.00174     0.78086
      H   42    0.22353      0.00000     0.77483    0.00164     0.77647
      H   43    0.21297      0.00000     0.78538    0.00165     0.78703
      C   44   -0.60241      1.99935     4.59522    0.00783     6.60241
      H   45    0.22441      0.00000     0.77383    0.00176     0.77559
      H   46    0.20413      0.00000     0.79427    0.00160     0.79587
      H   47    0.21740      0.00000     0.78108    0.00152     0.78260
      C   48   -0.37117      1.99894     4.34634    0.02589     6.37117
      C   49   -0.18361      1.99910     4.16759    0.01692     6.18361
      H   50    0.22043      0.00000     0.77669    0.00288     0.77957
      C   51   -0.20068      1.99918     4.18652    0.01498     6.20068
      H   52    0.21941      0.00000     0.77928    0.00131     0.78059
      C   53   -0.17320      1.99920     4.15941    0.01459     6.17320
      H   54    0.22279      0.00000     0.77603    0.00117     0.77721
      C   55   -0.19446      1.99919     4.18073    0.01454     6.19446
      H   56    0.22258      0.00000     0.77618    0.00125     0.77742
      C   57   -0.18803      1.99909     4.17283    0.01611     6.18803
      H   58    0.21010      0.00000     0.78740    0.00250     0.78990
      C   59   -0.08379      1.99911     4.05899    0.02570     6.08379
      H   60    0.24459      0.00000     0.75180    0.00361     0.75541
      C   61   -0.04720      1.99900     4.02917    0.01903     6.04720
      C   62   -0.21010      1.99909     4.19600    0.01502     6.21010
      H   63    0.21967      0.00000     0.77800    0.00233     0.78033
      C   64   -0.19319      1.99921     4.17870    0.01528     6.19319
      H   65    0.21943      0.00000     0.77921    0.00135     0.78057
      C   66   -0.19478      1.99920     4.18075    0.01483     6.19478
      H   67    0.21786      0.00000     0.78101    0.00113     0.78214
      C   68   -0.19589      1.99920     4.18172    0.01497     6.19589
      H   69    0.21667      0.00000     0.78212    0.00121     0.78333
      C   70   -0.20487      1.99910     4.19125    0.01451     6.20487
      H   71    0.20426      0.00000     0.79362    0.00212     0.79574
      C   72    0.25416      1.99858     3.72493    0.02233     5.74584
      C   73   -0.05081      1.99885     4.03492    0.01704     6.05081
      C   74   -0.03549      1.99904     4.01950    0.01695     6.03549
      C   75   -0.19184      1.99913     4.17916    0.01356     6.19184
      H   76    0.20851      0.00000     0.78966    0.00183     0.79149
      C   77   -0.18166      1.99921     4.16769    0.01476     6.18166
      H   78    0.21699      0.00000     0.78182    0.00119     0.78301
      C   79   -0.19991      1.99920     4.18569    0.01502     6.19991
      H   80    0.21911      0.00000     0.77974    0.00115     0.78089
      C   81   -0.16681      1.99915     4.15340    0.01426     6.16681
      H   82    0.21326      0.00000     0.78512    0.00162     0.78674
      C   83   -0.06306      1.99910     4.04786    0.01610     6.06306
      C   84   -0.15012      1.99915     4.13691    0.01405     6.15012
      H   85    0.21746      0.00000     0.78099    0.00155     0.78254
      C   86   -0.24208      1.99907     4.22748    0.01553     6.24208
      H   87    0.22499      0.00000     0.77345    0.00156     0.77501
      N   88   -0.77141      1.99951     5.75042    0.02149     7.77141
      N   89   -1.03031      1.99956     6.00586    0.02490     8.03031
      O   90   -0.75879      1.99978     6.74468    0.01433     8.75879
      P   91    1.81929      9.99546     3.09408    0.09117    13.18071
      P   92    1.30379      9.99618     3.64063    0.05940    13.69621
     Rh   93   -0.45417     35.98499     9.44152    0.02767    45.45417
      C   94   -0.16860      1.99907     4.14927    0.02025     6.16860
      C   95   -0.17068      1.99909     4.15118    0.02041     6.17068
      C   96   -0.17969      1.99909     4.16007    0.02053     6.17969
      C   97   -0.16740      1.99908     4.14914    0.01917     6.16740
      H   98    0.22173      0.00000     0.77611    0.00217     0.77827
      C   99   -0.42534      1.99935     4.41393    0.01206     6.42534
      H  100    0.23073      0.00000     0.76726    0.00200     0.76927
      C  101   -0.41827      1.99935     4.40606    0.01286     6.41827
      C  102   -0.42325      1.99935     4.41145    0.01244     6.42325
      H  103    0.23249      0.00000     0.76504    0.00246     0.76751
      H  104    0.22806      0.00000     0.76972    0.00222     0.77194
      C  105   -0.41560      1.99935     4.40362    0.01264     6.41560
      H  106    0.21554      0.00000     0.78247    0.00199     0.78446
      H  107    0.22907      0.00000     0.76942    0.00150     0.77093
      H  108    0.23441      0.00000     0.76368    0.00191     0.76559
      H  109    0.21456      0.00000     0.78375    0.00169     0.78544
      H  110    0.22922      0.00000     0.76930    0.00148     0.77078
      H  111    0.21487      0.00000     0.78319    0.00195     0.78513
      H  112    0.23260      0.00000     0.76545    0.00195     0.76740
      H  113    0.21791      0.00000     0.78046    0.00163     0.78209
 =======================================================================
   * Total *    1.00000    163.93270   292.92354    1.14377   458.00000

 Normal termination of Gaussian 16 at Wed Nov  6 02:17:24 2024.
